Title t= 6470.00000 step= 3235000
44412
    1GLY      N    1   5.021   5.543   5.063
    1GLY    HT1    2   4.996   5.530   5.163
    1GLY    HT2    3   4.959   5.472   5.019
    1GLY    HT3    4   5.008   5.640   5.028
    1GLY     CA    5   5.160   5.489   5.044
    1GLY    HA1    6   5.169   5.389   5.085
    1GLY    HA2    7   5.221   5.544   5.114
    1GLY      C    8   5.223   5.508   4.910
    1GLY      O    9   5.149   5.551   4.818
    2PRO      N   10   5.352   5.490   4.886
    2PRO     CD   11   5.445   5.456   4.993
    2PRO    HD1   12   5.411   5.375   5.062
    2PRO    HD2   13   5.469   5.545   5.055
    2PRO     CA   14   5.400   5.468   4.750
    2PRO     HA   15   5.371   5.552   4.689
    2PRO     CB   16   5.556   5.460   4.772
    2PRO    HB1   17   5.606   5.560   4.774
    2PRO    HB2   18   5.604   5.381   4.711
    2PRO     CG   19   5.572   5.408   4.917
    2PRO    HG1   20   5.566   5.297   4.923
    2PRO    HG2   21   5.666   5.440   4.967
    2PRO      C   22   5.332   5.347   4.681
    2PRO      O   23   5.286   5.252   4.744
    3GLY      N   24   5.327   5.348   4.551
    3GLY     HN   25   5.368   5.424   4.499
    3GLY     CA   26   5.280   5.233   4.471
    3GLY    HA1   27   5.347   5.153   4.497
    3GLY    HA2   28   5.285   5.253   4.365
    3GLY      C   29   5.140   5.167   4.499
    3GLY      O   30   5.062   5.219   4.580
    4ASP      N   31   5.115   5.055   4.431
    4ASP     HN   32   5.187   5.015   4.375
    4ASP     CA   33   4.983   4.991   4.416
    4ASP     HA   34   4.904   5.064   4.423
    4ASP     CB   35   4.962   4.928   4.280
    4ASP    HB1   36   4.877   4.857   4.267
    4ASP    HB2   37   5.049   4.866   4.251
    4ASP     CG   38   4.954   5.036   4.170
    4ASP    OD1   39   4.948   5.155   4.205
    4ASP    OD2   40   4.965   4.997   4.051
    4ASP      C   41   4.971   4.894   4.531
    4ASP      O   42   5.072   4.848   4.586
    5PRO      N   43   4.855   4.863   4.584
    5PRO     CD   44   4.725   4.899   4.527
    5PRO    HD1   45   4.728   4.896   4.416
    5PRO    HD2   46   4.705   5.001   4.568
    5PRO     CA   47   4.843   4.751   4.680
    5PRO     HA   48   4.899   4.780   4.767
    5PRO     CB   49   4.693   4.738   4.700
    5PRO    HB1   50   4.666   4.800   4.789
    5PRO    HB2   51   4.653   4.635   4.713
    5PRO     CG   52   4.634   4.797   4.581
    5PRO    HG1   53   4.612   4.714   4.511
    5PRO    HG2   54   4.548   4.861   4.610
    5PRO      C   55   4.911   4.617   4.643
    5PRO      O   56   4.918   4.608   4.522
    6GLY      N   57   4.947   4.520   4.729
    6GLY     HN   58   4.946   4.538   4.827
    6GLY     CA   59   5.019   4.401   4.691
    6GLY    HA1   60   5.078   4.365   4.774
    6GLY    HA2   61   5.080   4.431   4.606
    6GLY      C   62   4.923   4.284   4.654
    6GLY      O   63   4.804   4.309   4.650
    7PRO      N   64   4.969   4.161   4.633
    7PRO     CD   65   5.112   4.138   4.630
    7PRO    HD1   66   5.158   4.119   4.729
    7PRO    HD2   67   5.178   4.215   4.584
    7PRO     CA   68   4.896   4.048   4.589
    7PRO     HA   69   4.861   4.058   4.487
    7PRO     CB   70   5.002   3.934   4.591
    7PRO    HB1   71   4.989   3.846   4.525
    7PRO    HB2   72   5.012   3.913   4.699
    7PRO     CG   73   5.133   4.002   4.555
    7PRO    HG1   74   5.215   3.934   4.586
    7PRO    HG2   75   5.134   4.029   4.447
    7PRO      C   76   4.769   4.006   4.668
    7PRO      O   77   4.771   4.001   4.792
    8GLY      N   78   4.655   3.972   4.601
    8GLY     HN   79   4.655   3.970   4.501
    8GLY     CA   80   4.524   3.947   4.659
    8GLY    HA1   81   4.450   3.922   4.585
    8GLY    HA2   82   4.500   4.039   4.711
    8GLY      C   83   4.516   3.834   4.759
    8GLY      O   84   4.601   3.743   4.756
    9ASP      N   85   4.415   3.833   4.848
    9ASP     HN   86   4.344   3.903   4.844
    9ASP     CA   87   4.396   3.738   4.950
    9ASP     HA   88   4.494   3.731   4.995
    9ASP     CB   89   4.290   3.779   5.049
    9ASP    HB1   90   4.256   3.695   5.113
    9ASP    HB2   91   4.197   3.816   5.002
    9ASP     CG   92   4.325   3.884   5.155
    9ASP    OD1   93   4.237   3.904   5.243
    9ASP    OD2   94   4.431   3.956   5.144
    9ASP      C   95   4.356   3.601   4.894
    9ASP      O   96   4.307   3.595   4.781
   10PRO      N   97   4.383   3.486   4.951
   10PRO     CD   98   4.474   3.477   5.063
   10PRO    HD1   99   4.447   3.544   5.147
   10PRO    HD2  100   4.578   3.498   5.030
   10PRO     CA  101   4.361   3.365   4.876
   10PRO     HA  102   4.410   3.374   4.780
   10PRO     CB  103   4.429   3.262   4.968
   10PRO    HB1  104   4.518   3.237   4.907
   10PRO    HB2  105   4.374   3.166   4.973
   10PRO     CG  106   4.463   3.331   5.103
   10PRO    HG1  107   4.376   3.317   5.170
   10PRO    HG2  108   4.549   3.277   5.146
   10PRO      C  109   4.211   3.340   4.859
   10PRO      O  110   4.138   3.371   4.950
   11GLY      N  111   4.165   3.285   4.742
   11GLY     HN  112   4.236   3.268   4.674
   11GLY     CA  113   4.030   3.241   4.702
   11GLY    HA1  114   4.041   3.202   4.602
   11GLY    HA2  115   3.969   3.327   4.721
   11GLY      C  116   3.977   3.124   4.783
   11GLY      O  117   4.049   3.067   4.864
   12PRO      N  118   3.856   3.077   4.774
   12PRO     CD  119   3.742   3.140   4.708
   12PRO    HD1  120   3.734   3.110   4.601
   12PRO    HD2  121   3.746   3.248   4.731
   12PRO     CA  122   3.816   2.944   4.824
   12PRO     HA  123   3.814   2.950   4.932
   12PRO     CB  124   3.668   2.932   4.776
   12PRO    HB1  125   3.612   2.859   4.839
   12PRO    HB2  126   3.655   2.885   4.676
   12PRO     CG  127   3.612   3.073   4.771
   12PRO    HG1  128   3.526   3.078   4.701
   12PRO    HG2  129   3.589   3.108   4.874
   12PRO      C  130   3.896   2.820   4.796
   12PRO      O  131   3.941   2.804   4.681
   13GLY      N  132   3.910   2.719   4.896
   13GLY     HN  133   3.853   2.723   4.978
   13GLY     CA  134   3.970   2.583   4.879
   13GLY    HA1  135   3.961   2.529   4.972
   13GLY    HA2  136   4.075   2.596   4.857
   13GLY      C  137   3.912   2.504   4.764
   13GLY      O  138   3.801   2.524   4.718
   14ASP      N  139   3.991   2.407   4.709
   14ASP     HN  140   4.089   2.398   4.723
   14ASP     CA  141   3.927   2.305   4.631
   14ASP     HA  142   3.876   2.355   4.550
   14ASP     CB  143   4.040   2.206   4.575
   14ASP    HB1  144   3.997   2.117   4.524
   14ASP    HB2  145   4.104   2.180   4.663
   14ASP     CG  146   4.125   2.284   4.469
   14ASP    OD1  147   4.098   2.404   4.427
   14ASP    OD2  148   4.227   2.222   4.426
   14ASP      C  149   3.824   2.218   4.710
   14ASP      O  150   3.861   2.183   4.822
   15PRO      N  151   3.711   2.182   4.654
   15PRO     CD  152   3.663   2.224   4.527
   15PRO    HD1  153   3.683   2.142   4.454
   15PRO    HD2  154   3.699   2.320   4.485
   15PRO     CA  155   3.611   2.099   4.725
   15PRO     HA  156   3.578   2.152   4.813
   15PRO     CB  157   3.493   2.093   4.636
   15PRO    HB1  158   3.397   2.090   4.693
   15PRO    HB2  159   3.498   2.006   4.567
   15PRO     CG  160   3.506   2.216   4.546
   15PRO    HG1  161   3.460   2.197   4.447
   15PRO    HG2  162   3.451   2.294   4.603
   15PRO      C  163   3.653   1.952   4.749
   15PRO    OT1  164   3.746   1.895   4.686
   15PRO    OT2  165   3.594   1.881   4.839
   16SOD    SOD  166   5.973   5.751   5.030
   17SOD    SOD  167   6.325   3.828   6.564
   18SOD    SOD  168   5.575   2.373   4.383
   19SOD    SOD  169   4.213   6.341   3.743
   20SOD    SOD  170   3.337   7.813   6.177
   21SOD    SOD  171   2.094   5.602   6.555
   22SOD    SOD  172   6.186   5.608   4.121
   23SOD    SOD  173   0.010   5.150   6.348
   24SOD    SOD  174   3.025   7.069   4.121
   25SOD    SOD  175   4.140   0.734   6.272
   26SOD    SOD  176   0.918   7.542   1.137
   27SOD    SOD  177   4.413   3.138   0.668
   28SOD    SOD  178   3.890   5.560   6.679
   29SOD    SOD  179   4.964   1.141   0.024
   30SOD    SOD  180   1.963   2.962   5.177
   31SOD    SOD  181   7.997   4.825   2.131
   32SOD    SOD  182   7.032   0.392   3.481
   33SOD    SOD  183   0.255   0.556   4.144
   34SOD    SOD  184   6.409   5.070   5.802
   35SOD    SOD  185   4.818   0.721   4.654
   36SOD    SOD  186   1.582   3.185   2.584
   37SOD    SOD  187   6.539   6.015   4.255
   38SOD    SOD  188   6.963   1.944   0.829
   39SOD    SOD  189   1.006   4.774   6.173
   40SOD    SOD  190   1.170   5.831   2.394
   41SOD    SOD  191   3.785   2.629   4.301
   42SOD    SOD  192   6.764   0.793   5.235
   43SOD    SOD  193   6.896   7.122   0.460
   44SOD    SOD  194   3.693   2.131   3.622
   45SOD    SOD  195   7.221   1.261   2.235
   46SOD    SOD  196   7.573   0.957   5.012
   47SOD    SOD  197   6.536   5.150   5.276
   48SOD    SOD  198   1.619   6.866   4.616
   49SOD    SOD  199   2.832   5.117   2.133
   50SOD    SOD  200   5.755   1.427   3.027
   51SOD    SOD  201   4.293   5.707   5.684
   52SOD    SOD  202   4.315   5.710   4.230
   53SOD    SOD  203   1.476   3.351   1.978
   54SOD    SOD  204   4.645   4.111   1.514
   55SOD    SOD  205   3.045   2.512   2.915
   56SOD    SOD  206   2.820   4.779   5.310
   57SOD    SOD  207   7.086   6.195   4.388
   58SOD    SOD  208   8.066   3.876   5.891
   59SOD    SOD  209   3.634   0.734   1.960
   60SOD    SOD  210   3.599   1.624   2.261
   61CLA    CLA  211   3.740   7.642   1.170
   62CLA    CLA  212   1.657   2.901   4.417
   63CLA    CLA  213   4.099   3.465   1.321
   64CLA    CLA  214   3.151   1.831   0.660
   65CLA    CLA  215   1.701   0.712   4.029
   66CLA    CLA  216   3.398   5.031   2.271
   67CLA    CLA  217   3.909   5.782   4.614
   68CLA    CLA  218   5.641   3.063   6.498
   69CLA    CLA  219   4.804   1.332   3.888
   70CLA    CLA  220   2.737   7.804   4.880
   71CLA    CLA  221   4.409   5.057   4.946
   72CLA    CLA  222   5.408   7.293   1.438
   73CLA    CLA  223   6.821   4.703   0.666
   74CLA    CLA  224   2.148   7.257   5.653
   75CLA    CLA  225   4.696   4.090   2.162
   76CLA    CLA  226   6.505   6.691   6.384
   77CLA    CLA  227   6.714   0.067   5.479
   78CLA    CLA  228   0.612   4.210   1.612
   79CLA    CLA  229   7.708   4.525   6.755
   80CLA    CLA  230   5.834   6.483   3.618
   81CLA    CLA  231   6.630   5.731   5.613
   82CLA    CLA  232   2.535   4.753   6.621
   83CLA    CLA  233   4.394   4.947   2.449
   84CLA    CLA  234   7.944   5.642   1.091
   85CLA    CLA  235   7.058   0.874   1.971
   86CLA    CLA  236   3.612   0.600   1.207
   87CLA    CLA  237   4.701   6.008   3.535
   88CLA    CLA  238   3.784   7.385   2.661
   89CLA    CLA  239   0.710   5.434   3.136
   90CLA    CLA  240   7.454   1.966   1.854
   91CLA    CLA  241   1.603   1.598   5.294
   92CLA    CLA  242   4.790   0.257   3.316
   93CLA    CLA  243   2.905   1.916   3.584
   94CLA    CLA  244   2.648   0.038   4.639
   95CLA    CLA  245   7.931   1.815   2.535
   96CLA    CLA  246   1.421   5.584   5.306
   97CLA    CLA  247   0.349   5.660   1.554
   98CLA    CLA  248   7.782   6.146   2.636
   99CLA    CLA  249   5.055   5.886   5.366
  100CLA    CLA  250   0.355   6.814   6.444
  101CLA    CLA  251   0.185   4.743   5.906
  102CLA    CLA  252   7.512   6.972   1.145
  103TIP3   OH2  253   2.218   3.796   5.466
  103TIP3    H1  254   2.134   3.753   5.451
  103TIP3    H2  255   2.283   3.732   5.435
  104TIP3   OH2  256   2.543   3.486   5.146
  104TIP3    H1  257   2.488   3.560   5.121
  104TIP3    H2  258   2.590   3.516   5.223
  105TIP3   OH2  259   4.068   7.188   1.576
  105TIP3    H1  260   4.108   7.252   1.517
  105TIP3    H2  261   3.993   7.234   1.613
  106TIP3   OH2  262   0.085   4.882   1.570
  106TIP3    H1  263   0.085   4.802   1.518
  106TIP3    H2  264   0.006   4.929   1.542
  107TIP3   OH2  265   7.195   3.649   3.426
  107TIP3    H1  266   7.142   3.602   3.490
  107TIP3    H2  267   7.264   3.691   3.477
  108TIP3   OH2  268   4.930   7.407   3.926
  108TIP3    H1  269   4.974   7.462   3.862
  108TIP3    H2  270   4.849   7.379   3.883
  109TIP3   OH2  271   6.873   6.037   2.683
  109TIP3    H1  272   6.907   6.043   2.772
  109TIP3    H2  273   6.793   5.984   2.692
  110TIP3   OH2  274   2.331   3.415   4.788
  110TIP3    H1  275   2.320   3.320   4.792
  110TIP3    H2  276   2.244   3.450   4.808
  111TIP3   OH2  277   1.953   4.360   5.415
  111TIP3    H1  278   1.931   4.273   5.449
  111TIP3    H2  279   1.871   4.410   5.422
  112TIP3   OH2  280   5.368   0.464   3.292
  112TIP3    H1  281   5.438   0.517   3.256
  112TIP3    H2  282   5.390   0.374   3.266
  113TIP3   OH2  283   5.633   1.707   1.095
  113TIP3    H1  284   5.541   1.703   1.070
  113TIP3    H2  285   5.649   1.801   1.111
  114TIP3   OH2  286   3.167   0.003   5.169
  114TIP3    H1  287   3.171   0.001   5.265
  114TIP3    H2  288   3.082   0.042   5.149
  115TIP3   OH2  289   1.752   0.645   3.636
  115TIP3    H1  290   1.678   0.652   3.696
  115TIP3    H2  291   1.829   0.646   3.692
  116TIP3   OH2  292   7.100   6.975   4.039
  116TIP3    H1  293   7.162   7.023   3.983
  116TIP3    H2  294   7.118   6.883   4.019
  117TIP3   OH2  295   6.108   6.664   0.144
  117TIP3    H1  296   6.097   6.759   0.156
  117TIP3    H2  297   6.036   6.639   0.086
  118TIP3   OH2  298   6.178   0.578   5.807
  118TIP3    H1  299   6.153   0.488   5.787
  118TIP3    H2  300   6.134   0.598   5.890
  119TIP3   OH2  301   6.971   2.625   4.779
  119TIP3    H1  302   6.952   2.532   4.789
  119TIP3    H2  303   7.060   2.628   4.746
  120TIP3   OH2  304   3.080   4.493   1.148
  120TIP3    H1  305   3.144   4.561   1.127
  120TIP3    H2  306   3.019   4.494   1.075
  121TIP3   OH2  307   7.295   4.899   2.820
  121TIP3    H1  308   7.316   4.982   2.863
  121TIP3    H2  309   7.381   4.862   2.797
  122TIP3   OH2  310   2.286   7.394   4.030
  122TIP3    H1  311   2.213   7.422   4.086
  122TIP3    H2  312   2.316   7.473   3.987
  123TIP3   OH2  313   7.238   7.748   3.744
  123TIP3    H1  314   7.197   7.714   3.824
  123TIP3    H2  315   7.212   7.686   3.676
  124TIP3   OH2  316   5.668   0.425   3.510
  124TIP3    H1  317   5.588   0.389   3.550
  124TIP3    H2  318   5.724   0.444   3.585
  125TIP3   OH2  319   1.914   0.887   4.235
  125TIP3    H1  320   1.857   0.849   4.168
  125TIP3    H2  321   1.861   0.890   4.314
  126TIP3   OH2  322   5.761   3.871   6.327
  126TIP3    H1  323   5.820   3.935   6.366
  126TIP3    H2  324   5.723   3.825   6.402
  127TIP3   OH2  325   6.776   3.021   3.967
  127TIP3    H1  326   6.811   2.986   3.885
  127TIP3    H2  327   6.681   3.024   3.953
  128TIP3   OH2  328   3.359   1.250   3.992
  128TIP3    H1  329   3.282   1.194   3.990
  128TIP3    H2  330   3.325   1.338   3.974
  129TIP3   OH2  331   5.623   1.849   3.418
  129TIP3    H1  332   5.667   1.933   3.413
  129TIP3    H2  333   5.562   1.849   3.345
  130TIP3   OH2  334   5.438   3.728   2.552
  130TIP3    H1  335   5.493   3.727   2.631
  130TIP3    H2  336   5.498   3.708   2.480
  131TIP3   OH2  337   6.585   6.576   1.387
  131TIP3    H1  338   6.620   6.520   1.457
  131TIP3    H2  339   6.663   6.606   1.340
  132TIP3   OH2  340   3.920   0.566   2.321
  132TIP3    H1  341   3.938   0.474   2.342
  132TIP3    H2  342   3.972   0.615   2.385
  133TIP3   OH2  343   0.597   0.040   2.783
  133TIP3    H1  344   0.594  -0.002   2.869
  133TIP3    H2  345   0.647   0.120   2.797
  134TIP3   OH2  346   5.402   2.460   0.020
  134TIP3    H1  347   5.398   2.388   0.083
  134TIP3    H2  348   5.496   2.480   0.014
  135TIP3   OH2  349   5.605   4.543   6.592
  135TIP3    H1  350   5.691   4.554   6.634
  135TIP3    H2  351   5.625   4.509   6.505
  136TIP3   OH2  352   4.228   0.572   5.221
  136TIP3    H1  353   4.298   0.569   5.286
  136TIP3    H2  354   4.177   0.493   5.238
  137TIP3   OH2  355   4.639   2.489   6.613
  137TIP3    H1  356   4.679   2.524   6.533
  137TIP3    H2  357   4.678   2.541   6.684
  138TIP3   OH2  358   7.067   2.820   1.686
  138TIP3    H1  359   7.086   2.765   1.610
  138TIP3    H2  360   6.985   2.864   1.663
  139TIP3   OH2  361   2.159   4.845   3.181
  139TIP3    H1  362   2.191   4.914   3.239
  139TIP3    H2  363   2.083   4.884   3.136
  140TIP3   OH2  364   5.027   3.509   4.585
  140TIP3    H1  365   5.003   3.452   4.658
  140TIP3    H2  366   5.066   3.450   4.521
  141TIP3   OH2  367   0.426   7.798   5.944
  141TIP3    H1  368   0.483   7.727   5.913
  141TIP3    H2  369   0.340   7.776   5.909
  142TIP3   OH2  370   5.066   7.011   3.350
  142TIP3    H1  371   5.015   6.954   3.292
  142TIP3    H2  372   5.157   6.986   3.335
  143TIP3   OH2  373   2.582   0.812   0.607
  143TIP3    H1  374   2.538   0.872   0.668
  143TIP3    H2  375   2.537   0.826   0.524
  144TIP3   OH2  376   3.061   7.035   5.891
  144TIP3    H1  377   3.078   7.042   5.798
  144TIP3    H2  378   2.982   7.088   5.905
  145TIP3   OH2  379   1.530   6.679   0.501
  145TIP3    H1  380   1.470   6.647   0.568
  145TIP3    H2  381   1.517   6.773   0.500
  146TIP3   OH2  382   4.821   6.974   1.136
  146TIP3    H1  383   4.832   6.964   1.230
  146TIP3    H2  384   4.855   7.061   1.116
  147TIP3   OH2  385   3.259   1.945   1.308
  147TIP3    H1  386   3.234   1.979   1.222
  147TIP3    H2  387   3.180   1.901   1.340
  148TIP3   OH2  388   1.037   6.082   4.485
  148TIP3    H1  389   1.104   6.070   4.417
  148TIP3    H2  390   1.047   6.006   4.542
  149TIP3   OH2  391   2.250   6.995   6.641
  149TIP3    H1  392   2.229   7.011   6.733
  149TIP3    H2  393   2.323   7.054   6.623
  150TIP3   OH2  394   4.487   4.931   5.269
  150TIP3    H1  395   4.578   4.902   5.267
  150TIP3    H2  396   4.479   4.990   5.193
  151TIP3   OH2  397   7.683   1.540   0.659
  151TIP3    H1  398   7.777   1.556   0.651
  151TIP3    H2  399   7.642   1.625   0.640
  152TIP3   OH2  400   0.797   0.929   0.055
  152TIP3    H1  401   0.885   0.921   0.020
  152TIP3    H2  402   0.750   0.854   0.017
  153TIP3   OH2  403   6.115   1.353   1.553
  153TIP3    H1  404   6.201   1.392   1.534
  153TIP3    H2  405   6.090   1.309   1.471
  154TIP3   OH2  406   6.427   1.215   0.720
  154TIP3    H1  407   6.449   1.123   0.737
  154TIP3    H2  408   6.510   1.262   0.729
  155TIP3   OH2  409   1.915   6.192   3.289
  155TIP3    H1  410   1.915   6.132   3.214
  155TIP3    H2  411   2.000   6.177   3.331
  156TIP3   OH2  412   0.562   6.070   5.609
  156TIP3    H1  413   0.548   6.081   5.515
  156TIP3    H2  414   0.541   5.979   5.627
  157TIP3   OH2  415   3.330   7.025   5.653
  157TIP3    H1  416   3.389   7.090   5.693
  157TIP3    H2  417   3.248   7.072   5.641
  158TIP3   OH2  418   5.748   2.686   5.683
  158TIP3    H1  419   5.665   2.684   5.636
  158TIP3    H2  420   5.790   2.767   5.654
  159TIP3   OH2  421   5.831   7.131   0.931
  159TIP3    H1  422   5.749   7.113   0.975
  159TIP3    H2  423   5.820   7.218   0.893
  160TIP3   OH2  424   6.753   0.315   5.007
  160TIP3    H1  425   6.725   0.236   5.054
  160TIP3    H2  426   6.775   0.285   4.919
  161TIP3   OH2  427   0.050   2.484   0.780
  161TIP3    H1  428  -0.017   2.415   0.782
  161TIP3    H2  429   0.107   2.460   0.707
  162TIP3   OH2  430   4.964   1.354   4.852
  162TIP3    H1  431   4.919   1.413   4.791
  162TIP3    H2  432   5.050   1.341   4.813
  163TIP3   OH2  433   6.506   5.339   1.783
  163TIP3    H1  434   6.418   5.305   1.766
  163TIP3    H2  435   6.497   5.434   1.776
  164TIP3   OH2  436   2.268   6.743   0.748
  164TIP3    H1  437   2.229   6.709   0.667
  164TIP3    H2  438   2.287   6.835   0.728
  165TIP3   OH2  439   7.564   5.645   1.597
  165TIP3    H1  440   7.507   5.617   1.669
  165TIP3    H2  441   7.651   5.612   1.621
  166TIP3   OH2  442   5.085   4.348   3.141
  166TIP3    H1  443   5.093   4.288   3.067
  166TIP3    H2  444   5.170   4.393   3.144
  167TIP3   OH2  445   7.070   7.389   2.630
  167TIP3    H1  446   7.058   7.473   2.586
  167TIP3    H2  447   7.154   7.356   2.598
  168TIP3   OH2  448   3.780   1.774   2.208
  168TIP3    H1  449   3.730   1.844   2.166
  168TIP3    H2  450   3.870   1.788   2.179
  169TIP3   OH2  451   3.707   2.447   2.264
  169TIP3    H1  452   3.687   2.538   2.241
  169TIP3    H2  453   3.796   2.450   2.300
  170TIP3   OH2  454   2.208   1.940   5.983
  170TIP3    H1  455   2.227   2.029   6.013
  170TIP3    H2  456   2.138   1.910   6.042
  171TIP3   OH2  457   4.018   1.200   0.079
  171TIP3    H1  458   4.061   1.206  -0.006
  171TIP3    H2  459   4.052   1.274   0.129
  172TIP3   OH2  460   6.216   5.870   5.895
  172TIP3    H1  461   6.309   5.845   5.899
  172TIP3    H2  462   6.173   5.808   5.954
  173TIP3   OH2  463   6.998   1.908   2.105
  173TIP3    H1  464   7.030   1.915   2.195
  173TIP3    H2  465   7.060   1.960   2.054
  174TIP3   OH2  466   1.115   0.074   2.128
  174TIP3    H1  467   1.202   0.052   2.093
  174TIP3    H2  468   1.056   0.068   2.053
  175TIP3   OH2  469   0.833   4.505   4.928
  175TIP3    H1  470   0.819   4.552   4.846
  175TIP3    H2  471   0.781   4.554   4.992
  176TIP3   OH2  472   0.917   4.475   1.061
  176TIP3    H1  473   0.914   4.409   0.991
  176TIP3    H2  474   0.828   4.512   1.062
  177TIP3   OH2  475   2.016   0.625   2.440
  177TIP3    H1  476   2.051   0.584   2.360
  177TIP3    H2  477   1.969   0.702   2.408
  178TIP3   OH2  478   0.033   5.633   4.181
  178TIP3    H1  479   0.007   5.709   4.130
  178TIP3    H2  480   0.096   5.667   4.246
  179TIP3   OH2  481   1.368   5.901   4.825
  179TIP3    H1  482   1.368   5.851   4.907
  179TIP3    H2  483   1.307   5.972   4.840
  180TIP3   OH2  484   8.099   4.781   0.450
  180TIP3    H1  485   8.031   4.849   0.447
  180TIP3    H2  486   8.079   4.731   0.529
  181TIP3   OH2  487   2.157   2.942   2.077
  181TIP3    H1  488   2.113   2.906   2.001
  181TIP3    H2  489   2.235   2.886   2.088
  182TIP3   OH2  490   0.464   3.365   4.128
  182TIP3    H1  491   0.429   3.285   4.167
  182TIP3    H2  492   0.557   3.346   4.115
  183TIP3   OH2  493   1.289   1.034   2.937
  183TIP3    H1  494   1.335   1.118   2.940
  183TIP3    H2  495   1.358   0.969   2.946
  184TIP3   OH2  496   0.112   1.276   4.304
  184TIP3    H1  497   0.062   1.212   4.355
  184TIP3    H2  498   0.152   1.333   4.369
  185TIP3   OH2  499   3.682   3.191   6.629
  185TIP3    H1  500   3.772   3.181   6.659
  185TIP3    H2  501   3.635   3.227   6.704
  186TIP3   OH2  502   4.209   6.534   1.295
  186TIP3    H1  503   4.253   6.451   1.312
  186TIP3    H2  504   4.138   6.537   1.359
  187TIP3   OH2  505   3.662   4.792   5.077
  187TIP3    H1  506   3.570   4.766   5.077
  187TIP3    H2  507   3.707   4.720   5.033
  188TIP3   OH2  508   1.005   6.228   0.343
  188TIP3    H1  509   1.096   6.197   0.342
  188TIP3    H2  510   0.976   6.220   0.252
  189TIP3   OH2  511   4.490   4.510   5.858
  189TIP3    H1  512   4.472   4.567   5.933
  189TIP3    H2  513   4.585   4.517   5.846
  190TIP3   OH2  514   8.042   0.533   5.167
  190TIP3    H1  515   8.042   0.628   5.182
  190TIP3    H2  516   8.122   0.516   5.118
  191TIP3   OH2  517   3.404   5.776   1.115
  191TIP3    H1  518   3.422   5.724   1.037
  191TIP3    H2  519   3.418   5.716   1.188
  192TIP3   OH2  520   1.071   2.747   3.111
  192TIP3    H1  521   1.056   2.763   3.018
  192TIP3    H2  522   0.985   2.719   3.144
  193TIP3   OH2  523   2.578   2.845   0.684
  193TIP3    H1  524   2.579   2.792   0.604
  193TIP3    H2  525   2.661   2.826   0.727
  194TIP3   OH2  526   5.830   3.977   3.130
  194TIP3    H1  527   5.915   4.003   3.166
  194TIP3    H2  528   5.835   4.000   3.037
  195TIP3   OH2  529   5.987   1.920   2.200
  195TIP3    H1  530   5.964   1.893   2.289
  195TIP3    H2  531   6.017   2.010   2.209
  196TIP3   OH2  532   6.086   2.073   3.259
  196TIP3    H1  533   6.108   1.980   3.248
  196TIP3    H2  534   6.126   2.116   3.184
  197TIP3   OH2  535   7.717   3.286   5.984
  197TIP3    H1  536   7.713   3.328   6.070
  197TIP3    H2  537   7.780   3.215   5.995
  198TIP3   OH2  538   6.482   0.556   1.324
  198TIP3    H1  539   6.510   0.479   1.274
  198TIP3    H2  540   6.470   0.524   1.413
  199TIP3   OH2  541   2.529   2.708   2.734
  199TIP3    H1  542   2.527   2.783   2.794
  199TIP3    H2  543   2.526   2.747   2.647
  200TIP3   OH2  544   0.802   3.335   5.191
  200TIP3    H1  545   0.856   3.387   5.251
  200TIP3    H2  546   0.863   3.306   5.123
  201TIP3   OH2  547   4.452   2.976   2.720
  201TIP3    H1  548   4.460   2.987   2.625
  201TIP3    H2  549   4.542   2.986   2.753
  202TIP3   OH2  550   1.253   5.900   3.579
  202TIP3    H1  551   1.255   5.965   3.649
  202TIP3    H2  552   1.296   5.823   3.616
  203TIP3   OH2  553   0.431   6.047   6.416
  203TIP3    H1  554   0.441   6.104   6.493
  203TIP3    H2  555   0.409   6.107   6.345
  204TIP3   OH2  556   7.741   2.089   0.608
  204TIP3    H1  557   7.835   2.085   0.591
  204TIP3    H2  558   7.731   2.160   0.672
  205TIP3   OH2  559   8.294   0.090   1.082
  205TIP3    H1  560   8.313   0.024   1.015
  205TIP3    H2  561   8.198   0.096   1.082
  206TIP3   OH2  562   0.503   0.256   1.563
  206TIP3    H1  563   0.409   0.276   1.561
  206TIP3    H2  564   0.537   0.309   1.635
  207TIP3   OH2  565   7.625   7.487   2.571
  207TIP3    H1  566   7.552   7.549   2.580
  207TIP3    H2  567   7.617   7.431   2.649
  208TIP3   OH2  568   0.238   7.657   3.356
  208TIP3    H1  569   0.245   7.564   3.377
  208TIP3    H2  570   0.323   7.680   3.319
  209TIP3   OH2  571   7.385   6.404   6.484
  209TIP3    H1  572   7.415   6.487   6.447
  209TIP3    H2  573   7.321   6.429   6.551
  210TIP3   OH2  574   2.725   2.860   1.974
  210TIP3    H1  575   2.736   2.946   1.934
  210TIP3    H2  576   2.630   2.849   1.983
  211TIP3   OH2  577   2.463   7.164   0.429
  211TIP3    H1  578   2.526   7.106   0.473
  211TIP3    H2  579   2.478   7.249   0.468
  212TIP3   OH2  580   6.741   5.884   1.593
  212TIP3    H1  581   6.691   5.880   1.675
  212TIP3    H2  582   6.674   5.883   1.524
  213TIP3   OH2  583   8.255   3.912   5.432
  213TIP3    H1  584   8.194   3.840   5.415
  213TIP3    H2  585   8.339   3.882   5.396
  214TIP3   OH2  586   8.129   3.283   3.859
  214TIP3    H1  587   8.191   3.323   3.798
  214TIP3    H2  588   8.091   3.357   3.907
  215TIP3   OH2  589   4.548   3.863   6.539
  215TIP3    H1  590   4.608   3.822   6.477
  215TIP3    H2  591   4.463   3.825   6.518
  216TIP3   OH2  592   1.904   7.611   6.596
  216TIP3    H1  593   1.956   7.644   6.522
  216TIP3    H2  594   1.940   7.523   6.612
  217TIP3   OH2  595   6.971   2.218   5.046
  217TIP3    H1  596   6.977   2.247   5.137
  217TIP3    H2  597   6.954   2.124   5.051
  218TIP3   OH2  598   6.333   0.588   6.269
  218TIP3    H1  599   6.350   0.581   6.175
  218TIP3    H2  600   6.276   0.514   6.288
  219TIP3   OH2  601   5.492   6.790   2.043
  219TIP3    H1  602   5.436   6.748   2.109
  219TIP3    H2  603   5.499   6.726   1.973
  220TIP3   OH2  604   4.802   4.264   0.180
  220TIP3    H1  605   4.821   4.194   0.242
  220TIP3    H2  606   4.710   4.284   0.194
  221TIP3   OH2  607   2.845   6.328   0.220
  221TIP3    H1  608   2.833   6.303   0.312
  221TIP3    H2  609   2.891   6.253   0.181
  222TIP3   OH2  610   4.104   4.365   5.708
  222TIP3    H1  611   4.200   4.365   5.709
  222TIP3    H2  612   4.081   4.360   5.615
  223TIP3   OH2  613   6.174   4.237   2.177
  223TIP3    H1  614   6.183   4.328   2.206
  223TIP3    H2  615   6.177   4.242   2.081
  224TIP3   OH2  616   4.935   7.795   2.289
  224TIP3    H1  617   5.001   7.779   2.222
  224TIP3    H2  618   4.936   7.717   2.344
  225TIP3   OH2  619   0.153   2.445   5.205
  225TIP3    H1  620   0.118   2.358   5.188
  225TIP3    H2  621   0.076   2.498   5.228
  226TIP3   OH2  622   0.297   1.008   6.145
  226TIP3    H1  623   0.347   0.949   6.201
  226TIP3    H2  624   0.316   0.978   6.056
  227TIP3   OH2  625   3.118   2.519   3.133
  227TIP3    H1  626   3.197   2.541   3.181
  227TIP3    H2  627   3.046   2.549   3.189
  228TIP3   OH2  628   5.277   7.475   2.622
  228TIP3    H1  629   5.247   7.564   2.639
  228TIP3    H2  630   5.371   7.485   2.604
  229TIP3   OH2  631   3.739   0.908   4.032
  229TIP3    H1  632   3.705   0.989   4.069
  229TIP3    H2  633   3.684   0.891   3.955
  230TIP3   OH2  634   2.770   3.169   2.834
  230TIP3    H1  635   2.813   3.225   2.769
  230TIP3    H2  636   2.757   3.226   2.910
  231TIP3   OH2  637   2.119   1.621   5.779
  231TIP3    H1  638   2.198   1.607   5.725
  231TIP3    H2  639   2.114   1.716   5.789
  232TIP3   OH2  640   2.583   0.913   6.620
  232TIP3    H1  641   2.562   1.006   6.628
  232TIP3    H2  642   2.567   0.892   6.528
  233TIP3   OH2  643   7.043   6.218   1.147
  233TIP3    H1  644   7.116   6.277   1.131
  233TIP3    H2  645   7.057   6.186   1.236
  234TIP3   OH2  646   1.699   2.787   0.616
  234TIP3    H1  647   1.778   2.746   0.652
  234TIP3    H2  648   1.636   2.783   0.688
  235TIP3   OH2  649   7.623   5.294   2.841
  235TIP3    H1  650   7.587   5.218   2.887
  235TIP3    H2  651   7.718   5.286   2.851
  236TIP3   OH2  652   0.697   7.052   1.297
  236TIP3    H1  653   0.755   7.057   1.373
  236TIP3    H2  654   0.623   7.108   1.319
  237TIP3   OH2  655   4.153   6.739   3.772
  237TIP3    H1  656   4.112   6.677   3.713
  237TIP3    H2  657   4.222   6.689   3.816
  238TIP3   OH2  658   3.848   4.353   2.674
  238TIP3    H1  659   3.755   4.376   2.681
  238TIP3    H2  660   3.894   4.436   2.672
  239TIP3   OH2  661   5.752   0.892   3.713
  239TIP3    H1  662   5.672   0.918   3.759
  239TIP3    H2  663   5.722   0.862   3.628
  240TIP3   OH2  664   1.759   5.649   4.654
  240TIP3    H1  665   1.733   5.610   4.570
  240TIP3    H2  666   1.738   5.741   4.646
  241TIP3   OH2  667   3.356   0.516   5.625
  241TIP3    H1  668   3.333   0.515   5.718
  241TIP3    H2  669   3.412   0.593   5.616
  242TIP3   OH2  670   4.544   7.118   2.858
  242TIP3    H1  671   4.473   7.058   2.835
  242TIP3    H2  672   4.571   7.091   2.946
  243TIP3   OH2  673   6.616   6.694   5.123
  243TIP3    H1  674   6.585   6.774   5.081
  243TIP3    H2  675   6.677   6.724   5.190
  244TIP3   OH2  676   0.159   1.698   2.768
  244TIP3    H1  677   0.082   1.734   2.811
  244TIP3    H2  678   0.226   1.696   2.836
  245TIP3   OH2  679   1.339   5.550   0.136
  245TIP3    H1  680   1.399   5.567   0.062
  245TIP3    H2  681   1.354   5.458   0.158
  246TIP3   OH2  682   7.798   1.953   2.977
  246TIP3    H1  683   7.719   1.929   2.930
  246TIP3    H2  684   7.868   1.904   2.934
  247TIP3   OH2  685   1.029   6.096   2.009
  247TIP3    H1  686   1.009   6.178   1.962
  247TIP3    H2  687   0.944   6.052   2.017
  248TIP3   OH2  688   7.717   0.967   5.939
  248TIP3    H1  689   7.689   0.879   5.913
  248TIP3    H2  690   7.709   0.968   6.034
  249TIP3   OH2  691   0.702   7.296   3.738
  249TIP3    H1  692   0.725   7.263   3.825
  249TIP3    H2  693   0.774   7.267   3.682
  250TIP3   OH2  694   4.033   6.532   5.665
  250TIP3    H1  695   4.123   6.508   5.689
  250TIP3    H2  696   4.006   6.466   5.601
  251TIP3   OH2  697   3.113   0.778   3.079
  251TIP3    H1  698   3.172   0.839   3.034
  251TIP3    H2  699   3.101   0.816   3.166
  252TIP3   OH2  700   4.352   3.799   0.397
  252TIP3    H1  701   4.299   3.829   0.323
  252TIP3    H2  702   4.365   3.877   0.451
  253TIP3   OH2  703   7.492   3.686   5.481
  253TIP3    H1  704   7.468   3.727   5.564
  253TIP3    H2  705   7.412   3.644   5.451
  254TIP3   OH2  706   7.868   5.033   1.657
  254TIP3    H1  707   7.892   4.955   1.707
  254TIP3    H2  708   7.856   5.002   1.567
  255TIP3   OH2  709   7.612   6.085   3.650
  255TIP3    H1  710   7.688   6.115   3.600
  255TIP3    H2  711   7.545   6.152   3.633
  256TIP3   OH2  712   7.240   6.952   4.319
  256TIP3    H1  713   7.186   6.895   4.373
  256TIP3    H2  714   7.196   6.952   4.234
  257TIP3   OH2  715   1.275   3.915   3.169
  257TIP3    H1  716   1.294   3.901   3.076
  257TIP3    H2  717   1.347   3.970   3.200
  258TIP3   OH2  718   0.426   6.417   2.709
  258TIP3    H1  719   0.400   6.486   2.769
  258TIP3    H2  720   0.427   6.337   2.762
  259TIP3   OH2  721   4.952   6.815   3.156
  259TIP3    H1  722   4.935   6.734   3.205
  259TIP3    H2  723   4.899   6.805   3.077
  260TIP3   OH2  724   1.401   5.793   0.861
  260TIP3    H1  725   1.445   5.711   0.839
  260TIP3    H2  726   1.380   5.833   0.777
  261TIP3   OH2  727   0.556   3.790   0.940
  261TIP3    H1  728   0.541   3.788   0.846
  261TIP3    H2  729   0.602   3.873   0.955
  262TIP3   OH2  730   1.172   0.548   5.143
  262TIP3    H1  731   1.160   0.454   5.135
  262TIP3    H2  732   1.251   0.567   5.091
  263TIP3   OH2  733   6.512   5.126   0.647
  263TIP3    H1  734   6.600   5.155   0.669
  263TIP3    H2  735   6.525   5.051   0.589
  264TIP3   OH2  736   7.394   4.874   6.588
  264TIP3    H1  737   7.337   4.872   6.511
  264TIP3    H2  738   7.478   4.842   6.556
  265TIP3   OH2  739   1.995   7.385   0.484
  265TIP3    H1  740   2.029   7.472   0.464
  265TIP3    H2  741   1.906   7.400   0.516
  266TIP3   OH2  742   5.368   1.021   1.522
  266TIP3    H1  743   5.395   1.112   1.512
  266TIP3    H2  744   5.276   1.026   1.548
  267TIP3   OH2  745   5.737   1.312   3.810
  267TIP3    H1  746   5.781   1.242   3.859
  267TIP3    H2  747   5.652   1.274   3.785
  268TIP3   OH2  748   3.862   7.780   4.271
  268TIP3    H1  749   3.801   7.758   4.341
  268TIP3    H2  750   3.948   7.786   4.314
  269TIP3   OH2  751   0.644   1.003   1.855
  269TIP3    H1  752   0.650   1.083   1.906
  269TIP3    H2  753   0.676   1.027   1.768
  270TIP3   OH2  754   1.573   7.317   4.908
  270TIP3    H1  755   1.604   7.407   4.898
  270TIP3    H2  756   1.507   7.306   4.839
  271TIP3   OH2  757   0.356   7.230   4.334
  271TIP3    H1  758   0.366   7.316   4.293
  271TIP3    H2  759   0.314   7.176   4.268
  272TIP3   OH2  760   8.147   3.005   3.085
  272TIP3    H1  761   8.235   2.992   3.121
  272TIP3    H2  762   8.108   3.072   3.142
  273TIP3   OH2  763   7.177   6.728   2.218
  273TIP3    H1  764   7.260   6.766   2.191
  273TIP3    H2  765   7.188   6.707   2.310
  274TIP3   OH2  766   1.830   7.165   3.075
  274TIP3    H1  767   1.794   7.102   3.012
  274TIP3    H2  768   1.881   7.112   3.136
  275TIP3   OH2  769   5.116   4.676   1.292
  275TIP3    H1  770   5.063   4.732   1.349
  275TIP3    H2  771   5.204   4.713   1.299
  276TIP3   OH2  772   0.221   6.871   3.519
  276TIP3    H1  773   0.169   6.807   3.567
  276TIP3    H2  774   0.161   6.909   3.455
  277TIP3   OH2  775   5.607   5.029   0.873
  277TIP3    H1  776   5.564   5.111   0.898
  277TIP3    H2  777   5.591   4.970   0.948
  278TIP3   OH2  778   3.248   6.039   5.108
  278TIP3    H1  779   3.202   6.109   5.155
  278TIP3    H2  780   3.327   6.023   5.161
  279TIP3   OH2  781   7.374   5.953   3.090
  279TIP3    H1  782   7.446   6.012   3.111
  279TIP3    H2  783   7.296   6.009   3.094
  280TIP3   OH2  784   5.210   4.522   0.319
  280TIP3    H1  785   5.216   4.529   0.223
  280TIP3    H2  786   5.237   4.608   0.351
  281TIP3   OH2  787   8.253   1.071   4.006
  281TIP3    H1  788   8.273   1.165   4.001
  281TIP3    H2  789   8.200   1.053   3.929
  282TIP3   OH2  790   6.794   1.972   6.314
  282TIP3    H1  791   6.714   1.946   6.360
  282TIP3    H2  792   6.860   1.909   6.342
  283TIP3   OH2  793   7.232   5.339   4.188
  283TIP3    H1  794   7.158   5.391   4.220
  283TIP3    H2  795   7.192   5.275   4.130
  284TIP3   OH2  796   2.151   2.850   1.607
  284TIP3    H1  797   2.234   2.862   1.561
  284TIP3    H2  798   2.089   2.823   1.538
  285TIP3   OH2  799   1.444   3.126   5.910
  285TIP3    H1  800   1.513   3.155   5.970
  285TIP3    H2  801   1.377   3.088   5.966
  286TIP3   OH2  802   0.101   6.345   1.129
  286TIP3    H1  803   0.190   6.352   1.163
  286TIP3    H2  804   0.102   6.399   1.049
  287TIP3   OH2  805   6.819   4.139   3.548
  287TIP3    H1  806   6.842   4.214   3.493
  287TIP3    H2  807   6.836   4.063   3.493
  288TIP3   OH2  808   4.266   0.063   2.349
  288TIP3    H1  809   4.287   0.155   2.362
  288TIP3    H2  810   4.196   0.045   2.412
  289TIP3   OH2  811   1.375   1.769   6.095
  289TIP3    H1  812   1.320   1.844   6.120
  289TIP3    H2  813   1.451   1.809   6.051
  290TIP3   OH2  814   4.784   6.647   6.644
  290TIP3    H1  815   4.722   6.588   6.688
  290TIP3    H2  816   4.756   6.647   6.553
  291TIP3   OH2  817   0.460   5.067   6.243
  291TIP3    H1  818   0.492   5.060   6.153
  291TIP3    H2  819   0.505   5.144   6.278
  292TIP3   OH2  820   0.406   5.679   2.759
  292TIP3    H1  821   0.371   5.592   2.781
  292TIP3    H2  822   0.484   5.661   2.708
  293TIP3   OH2  823   3.400   4.646   6.671
  293TIP3    H1  824   3.306   4.664   6.679
  293TIP3    H2  825   3.406   4.576   6.607
  294TIP3   OH2  826   1.113   3.696   1.942
  294TIP3    H1  827   1.128   3.757   2.014
  294TIP3    H2  828   1.038   3.733   1.894
  295TIP3   OH2  829   3.279   6.023   3.952
  295TIP3    H1  830   3.333   6.034   3.874
  295TIP3    H2  831   3.206   6.083   3.939
  296TIP3   OH2  832   3.217   4.948   4.108
  296TIP3    H1  833   3.291   4.931   4.050
  296TIP3    H2  834   3.152   4.881   4.084
  297TIP3   OH2  835   6.301   7.726   3.892
  297TIP3    H1  836   6.277   7.664   3.824
  297TIP3    H2  837   6.280   7.682   3.974
  298TIP3   OH2  838   2.660   5.452   0.566
  298TIP3    H1  839   2.693   5.530   0.611
  298TIP3    H2  840   2.675   5.380   0.627
  299TIP3   OH2  841   0.834   4.779   5.999
  299TIP3    H1  842   0.833   4.833   5.921
  299TIP3    H2  843   0.775   4.707   5.979
  300TIP3   OH2  844   7.680   6.201   6.309
  300TIP3    H1  845   7.700   6.254   6.386
  300TIP3    H2  846   7.749   6.221   6.247
  301TIP3   OH2  847   2.923   2.099   1.434
  301TIP3    H1  848   2.966   2.160   1.374
  301TIP3    H2  849   2.934   2.138   1.520
  302TIP3   OH2  850   6.165   6.111   0.449
  302TIP3    H1  851   6.101   6.163   0.400
  302TIP3    H2  852   6.221   6.176   0.492
  303TIP3   OH2  853   0.883   2.366   5.868
  303TIP3    H1  854   0.954   2.308   5.896
  303TIP3    H2  855   0.883   2.436   5.933
  304TIP3   OH2  856   6.307   6.936   4.148
  304TIP3    H1  857   6.316   6.917   4.054
  304TIP3    H2  858   6.272   7.025   4.151
  305TIP3   OH2  859   5.149   6.427   5.552
  305TIP3    H1  860   5.160   6.415   5.458
  305TIP3    H2  861   5.082   6.364   5.578
  306TIP3   OH2  862   7.183   6.614   4.654
  306TIP3    H1  863   7.153   6.705   4.646
  306TIP3    H2  864   7.171   6.593   4.746
  307TIP3   OH2  865   6.446   6.531   2.203
  307TIP3    H1  866   6.431   6.624   2.219
  307TIP3    H2  867   6.422   6.518   2.111
  308TIP3   OH2  868   6.096   2.509   1.377
  308TIP3    H1  869   6.173   2.466   1.339
  308TIP3    H2  870   6.126   2.541   1.462
  309TIP3   OH2  871   3.667   6.447   5.646
  309TIP3    H1  872   3.586   6.467   5.694
  309TIP3    H2  873   3.713   6.531   5.641
  310TIP3   OH2  874   4.716   5.528   2.657
  310TIP3    H1  875   4.666   5.593   2.706
  310TIP3    H2  876   4.800   5.524   2.702
  311TIP3   OH2  877   8.030   5.690   5.979
  311TIP3    H1  878   7.948   5.644   5.961
  311TIP3    H2  879   8.017   5.729   6.065
  312TIP3   OH2  880   3.442   0.018   0.700
  312TIP3    H1  881   3.401   0.087   0.647
  312TIP3    H2  882   3.525  -0.001   0.656
  313TIP3   OH2  883   8.118   1.422   3.976
  313TIP3    H1  884   8.038   1.400   4.024
  313TIP3    H2  885   8.088   1.444   3.888
  314TIP3   OH2  886   7.736   5.324   5.162
  314TIP3    H1  887   7.789   5.404   5.152
  314TIP3    H2  888   7.665   5.349   5.221
  315TIP3   OH2  889   3.871   5.158   4.799
  315TIP3    H1  890   3.795   5.213   4.817
  315TIP3    H2  891   3.891   5.116   4.883
  316TIP3   OH2  892   3.755   4.750   0.877
  316TIP3    H1  893   3.660   4.757   0.879
  316TIP3    H2  894   3.784   4.817   0.815
  317TIP3   OH2  895   5.573   0.484   5.502
  317TIP3    H1  896   5.662   0.497   5.536
  317TIP3    H2  897   5.516   0.506   5.576
  318TIP3   OH2  898   6.949   3.703   3.129
  318TIP3    H1  899   7.008   3.628   3.126
  318TIP3    H2  900   6.995   3.771   3.081
  319TIP3   OH2  901   2.062   0.423   4.860
  319TIP3    H1  902   2.001   0.365   4.813
  319TIP3    H2  903   2.009   0.462   4.930
  320TIP3   OH2  904   2.114   7.695   5.981
  320TIP3    H1  905   2.142   7.607   5.956
  320TIP3    H2  906   2.156   7.710   6.066
  321TIP3   OH2  907   4.889   1.328   1.000
  321TIP3    H1  908   4.968   1.300   0.955
  321TIP3    H2  909   4.863   1.252   1.052
  322TIP3   OH2  910   3.035   0.220   0.018
  322TIP3    H1  911   3.128   0.240   0.008
  322TIP3    H2  912   3.024   0.201   0.111
  323TIP3   OH2  913   5.812   5.509   6.274
  323TIP3    H1  914   5.856   5.544   6.351
  323TIP3    H2  915   5.853   5.424   6.259
  324TIP3   OH2  916   2.685   7.807   3.651
  324TIP3    H1  917   2.712   7.827   3.740
  324TIP3    H2  918   2.693   7.712   3.645
  325TIP3   OH2  919   0.862   2.785   1.585
  325TIP3    H1  920   0.781   2.800   1.633
  325TIP3    H2  921   0.930   2.785   1.652
  326TIP3   OH2  922   5.359   4.174   4.067
  326TIP3    H1  923   5.391   4.259   4.037
  326TIP3    H2  924   5.275   4.163   4.022
  327TIP3   OH2  925   7.642   7.092   5.119
  327TIP3    H1  926   7.652   7.084   5.214
  327TIP3    H2  927   7.557   7.052   5.101
  328TIP3   OH2  928   5.362   3.153   4.694
  328TIP3    H1  929   5.304   3.122   4.625
  328TIP3    H2  930   5.435   3.091   4.695
  329TIP3   OH2  931   0.867   3.346   5.947
  329TIP3    H1  932   0.817   3.331   6.027
  329TIP3    H2  933   0.802   3.341   5.877
  330TIP3   OH2  934   7.162   4.179   1.184
  330TIP3    H1  935   7.162   4.240   1.258
  330TIP3    H2  936   7.119   4.227   1.113
  331TIP3   OH2  937   6.667   3.720   0.644
  331TIP3    H1  938   6.739   3.784   0.645
  331TIP3    H2  939   6.604   3.756   0.706
  332TIP3   OH2  940   1.323   5.972   2.042
  332TIP3    H1  941   1.303   5.947   1.951
  332TIP3    H2  942   1.262   6.042   2.062
  333TIP3   OH2  943   4.026   2.691   2.151
  333TIP3    H1  944   4.049   2.777   2.185
  333TIP3    H2  945   3.953   2.662   2.206
  334TIP3   OH2  946   3.451   0.873   1.985
  334TIP3    H1  947   3.381   0.888   1.922
  334TIP3    H2  948   3.421   0.915   2.066
  335TIP3   OH2  949   4.750   2.368   2.986
  335TIP3    H1  950   4.783   2.318   2.910
  335TIP3    H2  951   4.660   2.339   2.997
  336TIP3   OH2  952   1.531   4.304   2.627
  336TIP3    H1  953   1.603   4.262   2.675
  336TIP3    H2  954   1.570   4.383   2.589
  337TIP3   OH2  955   2.450   2.265   4.951
  337TIP3    H1  956   2.476   2.337   5.009
  337TIP3    H2  957   2.435   2.306   4.866
  338TIP3   OH2  958   7.120   6.634   5.766
  338TIP3    H1  959   7.066   6.675   5.699
  338TIP3    H2  960   7.152   6.553   5.726
  339TIP3   OH2  961   7.158   6.765   1.691
  339TIP3    H1  962   7.227   6.705   1.663
  339TIP3    H2  963   7.122   6.725   1.770
  340TIP3   OH2  964   5.779   1.278   2.188
  340TIP3    H1  965   5.698   1.326   2.208
  340TIP3    H2  966   5.793   1.293   2.095
  341TIP3   OH2  967   0.455   0.324   0.048
  341TIP3    H1  968   0.369   0.359   0.073
  341TIP3    H2  969   0.504   0.322   0.130
  342TIP3   OH2  970   6.230   0.370   4.460
  342TIP3    H1  971   6.166   0.301   4.477
  342TIP3    H2  972   6.281   0.375   4.541
  343TIP3   OH2  973   6.321   6.560   3.858
  343TIP3    H1  974   6.248   6.516   3.816
  343TIP3    H2  975   6.299   6.653   3.855
  344TIP3   OH2  976   6.788   1.502   4.450
  344TIP3    H1  977   6.790   1.436   4.381
  344TIP3    H2  978   6.790   1.453   4.531
  345TIP3   OH2  979   6.451   1.095   2.490
  345TIP3    H1  980   6.355   1.096   2.490
  345TIP3    H2  981   6.474   1.003   2.496
  346TIP3   OH2  982   1.233   3.933   6.302
  346TIP3    H1  983   1.228   4.018   6.346
  346TIP3    H2  984   1.215   3.869   6.371
  347TIP3   OH2  985   4.376   1.081   3.163
  347TIP3    H1  986   4.292   1.087   3.118
  347TIP3    H2  987   4.357   1.028   3.241
  348TIP3   OH2  988   1.735   6.975   0.421
  348TIP3    H1  989   1.745   7.065   0.392
  348TIP3    H2  990   1.643   6.967   0.444
  349TIP3   OH2  991   4.702   4.496   1.656
  349TIP3    H1  992   4.619   4.465   1.692
  349TIP3    H2  993   4.706   4.588   1.680
  350TIP3   OH2  994   1.427   5.196   6.016
  350TIP3    H1  995   1.355   5.160   5.965
  350TIP3    H2  996   1.420   5.291   6.004
  351TIP3   OH2  997   1.877   5.553   0.641
  351TIP3    H1  998   1.888   5.604   0.560
  351TIP3    H2  999   1.955   5.497   0.644
  352TIP3   OH2 1000   3.495   1.626   4.935
  352TIP3    H1 1001   3.531   1.706   4.895
  352TIP3    H2 1002   3.476   1.569   4.860
  353TIP3   OH2 1003   1.787   5.421   2.667
  353TIP3    H1 1004   1.815   5.340   2.624
  353TIP3    H2 1005   1.742   5.391   2.746
  354TIP3   OH2 1006   0.332   1.230   1.648
  354TIP3    H1 1007   0.405   1.274   1.605
  354TIP3    H2 1008   0.295   1.298   1.706
  355TIP3   OH2 1009   2.661   5.078   2.642
  355TIP3    H1 1010   2.666   5.169   2.610
  355TIP3    H2 1011   2.731   5.033   2.594
  356TIP3   OH2 1012   0.529   1.082   4.140
  356TIP3    H1 1013   0.485   1.142   4.079
  356TIP3    H2 1014   0.616   1.069   4.103
  357TIP3   OH2 1015   5.655   7.011   1.099
  357TIP3    H1 1016   5.565   6.982   1.111
  357TIP3    H2 1017   5.678   7.053   1.181
  358TIP3   OH2 1018   0.181   5.393   3.473
  358TIP3    H1 1019   0.275   5.386   3.453
  358TIP3    H2 1020   0.140   5.402   3.387
  359TIP3   OH2 1021   3.475   4.273   2.210
  359TIP3    H1 1022   3.570   4.283   2.213
  359TIP3    H2 1023   3.443   4.326   2.283
  360TIP3   OH2 1024   6.843   4.495   5.239
  360TIP3    H1 1025   6.845   4.524   5.330
  360TIP3    H2 1026   6.863   4.402   5.243
  361TIP3   OH2 1027   3.469   1.034   3.438
  361TIP3    H1 1028   3.442   0.944   3.457
  361TIP3    H2 1029   3.538   1.025   3.372
  362TIP3   OH2 1030   6.865   4.799   5.288
  362TIP3    H1 1031   6.950   4.809   5.331
  362TIP3    H2 1032   6.874   4.721   5.234
  363TIP3   OH2 1033   4.795   6.126   2.090
  363TIP3    H1 1034   4.826   6.052   2.038
  363TIP3    H2 1035   4.854   6.197   2.068
  364TIP3   OH2 1036   5.706   4.609   2.655
  364TIP3    H1 1037   5.740   4.521   2.672
  364TIP3    H2 1038   5.659   4.633   2.735
  365TIP3   OH2 1039   6.588   5.094   2.936
  365TIP3    H1 1040   6.607   5.057   2.850
  365TIP3    H2 1041   6.672   5.129   2.967
  366TIP3   OH2 1042   8.280   5.643   3.412
  366TIP3    H1 1043   8.248   5.722   3.369
  366TIP3    H2 1044   8.330   5.598   3.345
  367TIP3   OH2 1045   1.648   0.654   1.969
  367TIP3    H1 1046   1.608   0.649   2.055
  367TIP3    H2 1047   1.605   0.729   1.926
  368TIP3   OH2 1048   2.101   7.326   0.246
  368TIP3    H1 1049   2.067   7.353   0.331
  368TIP3    H2 1050   2.181   7.378   0.235
  369TIP3   OH2 1051   4.598   3.842   2.867
  369TIP3    H1 1052   4.582   3.773   2.802
  369TIP3    H2 1053   4.692   3.859   2.861
  370TIP3   OH2 1054   3.628   7.352   1.990
  370TIP3    H1 1055   3.589   7.359   2.077
  370TIP3    H2 1056   3.711   7.400   1.998
  371TIP3   OH2 1057   4.467   0.454   6.398
  371TIP3    H1 1058   4.483   0.368   6.361
  371TIP3    H2 1059   4.545   0.505   6.374
  372TIP3   OH2 1060   0.744   6.082   1.564
  372TIP3    H1 1061   0.659   6.065   1.605
  372TIP3    H2 1062   0.770   5.998   1.526
  373TIP3   OH2 1063   7.880   0.579   2.461
  373TIP3    H1 1064   7.877   0.581   2.557
  373TIP3    H2 1065   7.856   0.490   2.438
  374TIP3   OH2 1066   6.602   4.743   5.078
  374TIP3    H1 1067   6.587   4.650   5.094
  374TIP3    H2 1068   6.538   4.766   5.010
  375TIP3   OH2 1069   7.024   5.402   6.115
  375TIP3    H1 1070   7.009   5.484   6.069
  375TIP3    H2 1071   7.112   5.409   6.151
  376TIP3   OH2 1072   1.835   7.732   2.779
  376TIP3    H1 1073   1.820   7.750   2.686
  376TIP3    H2 1074   1.925   7.762   2.795
  377TIP3   OH2 1075   1.561   7.077   3.568
  377TIP3    H1 1076   1.619   7.029   3.508
  377TIP3    H2 1077   1.573   7.169   3.545
  378TIP3   OH2 1078   8.129   4.715   3.211
  378TIP3    H1 1079   8.063   4.679   3.272
  378TIP3    H2 1080   8.143   4.804   3.242
  379TIP3   OH2 1081   3.770   6.069   3.235
  379TIP3    H1 1082   3.811   6.111   3.159
  379TIP3    H2 1083   3.823   5.991   3.249
  380TIP3   OH2 1084   2.552   0.459   5.475
  380TIP3    H1 1085   2.620   0.486   5.537
  380TIP3    H2 1086   2.600   0.422   5.401
  381TIP3   OH2 1087   0.874   5.564   2.531
  381TIP3    H1 1088   0.841   5.538   2.445
  381TIP3    H2 1089   0.935   5.635   2.512
  382TIP3   OH2 1090   7.663   3.714   4.007
  382TIP3    H1 1091   7.743   3.761   4.028
  382TIP3    H2 1092   7.647   3.658   4.083
  383TIP3   OH2 1093   7.416   1.103   6.436
  383TIP3    H1 1094   7.433   1.181   6.383
  383TIP3    H2 1095   7.322   1.105   6.453
  384TIP3   OH2 1096   1.969   2.472   2.705
  384TIP3    H1 1097   1.968   2.415   2.782
  384TIP3    H2 1098   1.882   2.464   2.667
  385TIP3   OH2 1099   7.114   0.449   0.589
  385TIP3    H1 1100   7.033   0.416   0.627
  385TIP3    H2 1101   7.135   0.527   0.640
  386TIP3   OH2 1102   4.738   0.029   5.160
  386TIP3    H1 1103   4.759   0.007   5.069
  386TIP3    H2 1104   4.752   0.124   5.164
  387TIP3   OH2 1105   6.510   4.434   5.855
  387TIP3    H1 1106   6.415   4.441   5.855
  387TIP3    H2 1107   6.533   4.414   5.764
  388TIP3   OH2 1108   0.546   0.314   6.137
  388TIP3    H1 1109   0.516   0.230   6.171
  388TIP3    H2 1110   0.573   0.295   6.047
  389TIP3   OH2 1111   5.293   0.184   4.981
  389TIP3    H1 1112   5.307   0.257   4.921
  389TIP3    H2 1113   5.367   0.125   4.963
  390TIP3   OH2 1114   3.625   0.629   5.913
  390TIP3    H1 1115   3.627   0.664   5.824
  390TIP3    H2 1116   3.665   0.543   5.907
  391TIP3   OH2 1117   6.781   1.596   0.109
  391TIP3    H1 1118   6.821   1.679   0.081
  391TIP3    H2 1119   6.826   1.529   0.058
  392TIP3   OH2 1120   4.706   6.853   2.593
  392TIP3    H1 1121   4.774   6.819   2.534
  392TIP3    H2 1122   4.642   6.893   2.535
  393TIP3   OH2 1123   0.396   3.804   3.687
  393TIP3    H1 1124   0.402   3.898   3.670
  393TIP3    H2 1125   0.317   3.776   3.641
  394TIP3   OH2 1126   6.494   1.361   4.118
  394TIP3    H1 1127   6.525   1.444   4.155
  394TIP3    H2 1128   6.424   1.333   4.176
  395TIP3   OH2 1129   3.045   3.618   4.912
  395TIP3    H1 1130   3.124   3.656   4.950
  395TIP3    H2 1131   3.065   3.524   4.905
  396TIP3   OH2 1132   5.631   6.851   3.981
  396TIP3    H1 1133   5.669   6.774   4.023
  396TIP3    H2 1134   5.548   6.820   3.945
  397TIP3   OH2 1135   7.338   3.836   6.305
  397TIP3    H1 1136   7.378   3.922   6.310
  397TIP3    H2 1137   7.354   3.807   6.215
  398TIP3   OH2 1138   4.168   2.163   3.061
  398TIP3    H1 1139   4.124   2.231   3.010
  398TIP3    H2 1140   4.224   2.117   2.998
  399TIP3   OH2 1141   6.561   7.487   3.744
  399TIP3    H1 1142   6.561   7.570   3.697
  399TIP3    H2 1143   6.610   7.427   3.688
  400TIP3   OH2 1144   6.324   1.459   0.245
  400TIP3    H1 1145   6.235   1.449   0.279
  400TIP3    H2 1146   6.325   1.547   0.206
  401TIP3   OH2 1147   3.090   1.027   5.863
  401TIP3    H1 1148   3.044   1.107   5.890
  401TIP3    H2 1149   3.177   1.058   5.835
  402TIP3   OH2 1150   7.628   7.480   1.530
  402TIP3    H1 1151   7.687   7.555   1.524
  402TIP3    H2 1152   7.602   7.463   1.439
  403TIP3   OH2 1153   2.340   3.490   3.708
  403TIP3    H1 1154   2.313   3.548   3.637
  403TIP3    H2 1155   2.260   3.442   3.731
  404TIP3   OH2 1156   2.569   5.813   2.282
  404TIP3    H1 1157   2.567   5.877   2.211
  404TIP3    H2 1158   2.478   5.806   2.311
  405TIP3   OH2 1159   5.216   3.337   3.701
  405TIP3    H1 1160   5.127   3.312   3.726
  405TIP3    H2 1161   5.264   3.255   3.699
  406TIP3   OH2 1162   2.456   4.549   3.500
  406TIP3    H1 1163   2.377   4.592   3.469
  406TIP3    H2 1164   2.527   4.589   3.450
  407TIP3   OH2 1165   7.403   0.717   3.192
  407TIP3    H1 1166   7.339   0.653   3.162
  407TIP3    H2 1167   7.351   0.790   3.224
  408TIP3   OH2 1168   3.751   5.005   1.524
  408TIP3    H1 1169   3.728   4.921   1.562
  408TIP3    H2 1170   3.762   5.064   1.599
  409TIP3   OH2 1171   6.773   1.268   5.441
  409TIP3    H1 1172   6.686   1.283   5.404
  409TIP3    H2 1173   6.816   1.353   5.440
  410TIP3   OH2 1174   6.759   7.381   1.141
  410TIP3    H1 1175   6.803   7.377   1.056
  410TIP3    H2 1176   6.802   7.313   1.193
  411TIP3   OH2 1177   6.619   5.240   1.323
  411TIP3    H1 1178   6.612   5.335   1.337
  411TIP3    H2 1179   6.646   5.231   1.232
  412TIP3   OH2 1180   4.533   6.646   2.090
  412TIP3    H1 1181   4.567   6.569   2.136
  412TIP3    H2 1182   4.593   6.660   2.018
  413TIP3   OH2 1183   6.365   4.082   3.125
  413TIP3    H1 1184   6.444   4.129   3.100
  413TIP3    H2 1185   6.386   3.990   3.108
  414TIP3   OH2 1186   4.457   0.139   5.461
  414TIP3    H1 1187   4.467   0.166   5.553
  414TIP3    H2 1188   4.543   0.106   5.437
  415TIP3   OH2 1189   7.728   1.074   1.716
  415TIP3    H1 1190   7.788   1.011   1.676
  415TIP3    H2 1191   7.717   1.142   1.649
  416TIP3   OH2 1192   2.902   4.536   1.578
  416TIP3    H1 1193   2.842   4.600   1.617
  416TIP3    H2 1194   2.935   4.579   1.499
  417TIP3   OH2 1195   6.864   6.528   5.983
  417TIP3    H1 1196   6.827   6.553   6.068
  417TIP3    H2 1197   6.956   6.508   6.001
  418TIP3   OH2 1198   3.161   7.347   2.457
  418TIP3    H1 1199   3.095   7.409   2.427
  418TIP3    H2 1200   3.125   7.261   2.433
  419TIP3   OH2 1201   3.730   0.701   2.162
  419TIP3    H1 1202   3.779   0.757   2.222
  419TIP3    H2 1203   3.737   0.613   2.200
  420TIP3   OH2 1204   5.309   6.999   5.436
  420TIP3    H1 1205   5.302   6.969   5.346
  420TIP3    H2 1206   5.334   7.091   5.429
  421TIP3   OH2 1207   2.735   6.926   3.761
  421TIP3    H1 1208   2.716   7.010   3.803
  421TIP3    H2 1209   2.694   6.861   3.818
  422TIP3   OH2 1210   6.410   2.735   2.496
  422TIP3    H1 1211   6.488   2.779   2.462
  422TIP3    H2 1212   6.347   2.806   2.509
  423TIP3   OH2 1213   5.961   5.085   5.706
  423TIP3    H1 1214   6.033   5.077   5.644
  423TIP3    H2 1215   5.917   5.166   5.682
  424TIP3   OH2 1216   3.420   6.344   0.433
  424TIP3    H1 1217   3.328   6.331   0.411
  424TIP3    H2 1218   3.467   6.331   0.350
  425TIP3   OH2 1219   7.861   6.801   4.705
  425TIP3    H1 1220   7.804   6.726   4.724
  425TIP3    H2 1221   7.818   6.875   4.748
  426TIP3   OH2 1222   5.213   1.401   4.745
  426TIP3    H1 1223   5.307   1.381   4.739
  426TIP3    H2 1224   5.186   1.417   4.655
  427TIP3   OH2 1225   2.004   5.478   3.667
  427TIP3    H1 1226   1.972   5.393   3.695
  427TIP3    H2 1227   2.010   5.472   3.572
  428TIP3   OH2 1228   0.385   2.889   2.844
  428TIP3    H1 1229   0.381   2.834   2.766
  428TIP3    H2 1230   0.423   2.971   2.812
  429TIP3   OH2 1231   2.913   2.284   3.279
  429TIP3    H1 1232   2.866   2.367   3.273
  429TIP3    H2 1233   2.846   2.217   3.266
  430TIP3   OH2 1234   6.467   3.053   0.825
  430TIP3    H1 1235   6.519   3.062   0.745
  430TIP3    H2 1236   6.507   3.113   0.887
  431TIP3   OH2 1237   2.702   5.989   3.707
  431TIP3    H1 1238   2.769   5.922   3.722
  431TIP3    H2 1239   2.735   6.040   3.633
  432TIP3   OH2 1240   1.728   6.962   3.383
  432TIP3    H1 1241   1.809   6.949   3.333
  432TIP3    H2 1242   1.670   6.892   3.352
  433TIP3   OH2 1243   1.144   4.506   0.572
  433TIP3    H1 1244   1.059   4.536   0.606
  433TIP3    H2 1245   1.121   4.435   0.512
  434TIP3   OH2 1246   5.364   7.443   1.973
  434TIP3    H1 1247   5.357   7.433   1.878
  434TIP3    H2 1248   5.400   7.360   2.004
  435TIP3   OH2 1249   2.653   7.083   2.206
  435TIP3    H1 1250   2.594   7.014   2.238
  435TIP3    H2 1251   2.701   7.042   2.134
  436TIP3   OH2 1252   4.956   5.806   1.265
  436TIP3    H1 1253   4.909   5.884   1.235
  436TIP3    H2 1254   5.032   5.799   1.206
  437TIP3   OH2 1255   2.865   2.997   4.343
  437TIP3    H1 1256   2.868   3.085   4.305
  437TIP3    H2 1257   2.815   2.946   4.279
  438TIP3   OH2 1258   6.014   5.511   5.027
  438TIP3    H1 1259   6.039   5.464   5.107
  438TIP3    H2 1260   5.959   5.449   4.979
  439TIP3   OH2 1261   7.124   6.755   0.192
  439TIP3    H1 1262   7.179   6.677   0.182
  439TIP3    H2 1263   7.116   6.766   0.287
  440TIP3   OH2 1264   2.943   4.708   4.346
  440TIP3    H1 1265   2.850   4.732   4.343
  440TIP3    H2 1266   2.944   4.624   4.392
  441TIP3   OH2 1267   1.067   2.701   2.675
  441TIP3    H1 1268   1.055   2.653   2.757
  441TIP3    H2 1269   0.978   2.719   2.645
  442TIP3   OH2 1270   7.205   3.267   5.489
  442TIP3    H1 1271   7.148   3.307   5.554
  442TIP3    H2 1272   7.293   3.276   5.525
  443TIP3   OH2 1273   4.860   6.563   0.930
  443TIP3    H1 1274   4.880   6.654   0.909
  443TIP3    H2 1275   4.931   6.513   0.889
  444TIP3   OH2 1276   5.614   3.369   3.242
  444TIP3    H1 1277   5.534   3.332   3.205
  444TIP3    H2 1278   5.674   3.374   3.167
  445TIP3   OH2 1279   4.967   2.514   3.757
  445TIP3    H1 1280   4.875   2.508   3.729
  445TIP3    H2 1281   5.017   2.492   3.678
  446TIP3   OH2 1282   1.384   5.690   1.318
  446TIP3    H1 1283   1.388   5.613   1.262
  446TIP3    H2 1284   1.324   5.750   1.271
  447TIP3   OH2 1285   0.924   4.824   0.596
  447TIP3    H1 1286   0.901   4.830   0.689
  447TIP3    H2 1287   1.019   4.831   0.595
  448TIP3   OH2 1288   1.864   5.171   1.884
  448TIP3    H1 1289   1.835   5.188   1.795
  448TIP3    H2 1290   1.945   5.221   1.893
  449TIP3   OH2 1291   1.150   4.439   3.852
  449TIP3    H1 1292   1.151   4.500   3.926
  449TIP3    H2 1293   1.062   4.400   3.855
  450TIP3   OH2 1294   7.183   4.378   6.413
  450TIP3    H1 1295   7.108   4.377   6.472
  450TIP3    H2 1296   7.236   4.304   6.440
  451TIP3   OH2 1297   0.628   6.938   6.332
  451TIP3    H1 1298   0.675   6.855   6.329
  451TIP3    H2 1299   0.540   6.915   6.360
  452TIP3   OH2 1300   0.263   2.597   2.013
  452TIP3    H1 1301   0.225   2.551   1.939
  452TIP3    H2 1302   0.259   2.534   2.085
  453TIP3   OH2 1303   4.243   7.511   0.267
  453TIP3    H1 1304   4.288   7.462   0.198
  453TIP3    H2 1305   4.167   7.457   0.289
  454TIP3   OH2 1306   3.544   5.595   6.635
  454TIP3    H1 1307   3.529   5.621   6.544
  454TIP3    H2 1308   3.492   5.657   6.686
  455TIP3   OH2 1309   1.522   2.240   2.691
  455TIP3    H1 1310   1.578   2.193   2.753
  455TIP3    H2 1311   1.433   2.208   2.709
  456TIP3   OH2 1312   7.501   3.320   0.682
  456TIP3    H1 1313   7.546   3.238   0.661
  456TIP3    H2 1314   7.562   3.389   0.655
  457TIP3   OH2 1315   4.910   6.450   4.836
  457TIP3    H1 1316   4.874   6.366   4.865
  457TIP3    H2 1317   4.953   6.430   4.753
  458TIP3   OH2 1318   2.576   0.444   4.605
  458TIP3    H1 1319   2.571   0.471   4.513
  458TIP3    H2 1320   2.522   0.507   4.652
  459TIP3   OH2 1321   6.610   0.728   2.705
  459TIP3    H1 1322   6.607   0.770   2.619
  459TIP3    H2 1323   6.631   0.800   2.765
  460TIP3   OH2 1324   7.265   4.739   4.138
  460TIP3    H1 1325   7.309   4.774   4.216
  460TIP3    H2 1326   7.178   4.714   4.168
  461TIP3   OH2 1327   3.894   0.585   0.835
  461TIP3    H1 1328   3.846   0.600   0.754
  461TIP3    H2 1329   3.847   0.513   0.878
  462TIP3   OH2 1330   0.730   4.041   4.019
  462TIP3    H1 1331   0.717   3.946   4.016
  462TIP3    H2 1332   0.806   4.053   4.076
  463TIP3   OH2 1333   6.828   7.628   1.251
  463TIP3    H1 1334   6.823   7.557   1.187
  463TIP3    H2 1335   6.787   7.593   1.330
  464TIP3   OH2 1336   3.567   2.942   4.020
  464TIP3    H1 1337   3.521   2.986   4.091
  464TIP3    H2 1338   3.521   2.859   4.009
  465TIP3   OH2 1339   2.797   2.902   2.566
  465TIP3    H1 1340   2.729   2.846   2.529
  465TIP3    H2 1341   2.798   2.879   2.659
  466TIP3   OH2 1342   0.336   6.073   4.588
  466TIP3    H1 1343   0.393   6.129   4.536
  466TIP3    H2 1344   0.371   5.985   4.575
  467TIP3   OH2 1345   1.172   0.098   1.484
  467TIP3    H1 1346   1.224   0.038   1.536
  467TIP3    H2 1347   1.218   0.104   1.400
  468TIP3   OH2 1348   4.936   2.587   5.049
  468TIP3    H1 1349   4.879   2.662   5.032
  468TIP3    H2 1350   5.024   2.625   5.054
  469TIP3   OH2 1351   2.173   0.562   0.491
  469TIP3    H1 1352   2.178   0.542   0.585
  469TIP3    H2 1353   2.227   0.494   0.450
  470TIP3   OH2 1354   7.437   2.476   4.014
  470TIP3    H1 1355   7.495   2.509   3.945
  470TIP3    H2 1356   7.362   2.439   3.966
  471TIP3   OH2 1357   6.979   4.405   0.014
  471TIP3    H1 1358   7.032   4.338  -0.031
  471TIP3    H2 1359   7.043   4.464   0.053
  472TIP3   OH2 1360   0.444   4.936   4.430
  472TIP3    H1 1361   0.435   5.030   4.412
  472TIP3    H2 1362   0.491   4.902   4.355
  473TIP3   OH2 1363   3.402   4.699   5.028
  473TIP3    H1 1364   3.363   4.784   5.051
  473TIP3    H2 1365   3.330   4.636   5.038
  474TIP3   OH2 1366   2.610   4.211   3.819
  474TIP3    H1 1367   2.700   4.197   3.848
  474TIP3    H2 1368   2.610   4.298   3.779
  475TIP3   OH2 1369   1.828   2.705   2.174
  475TIP3    H1 1370   1.793   2.708   2.085
  475TIP3    H2 1371   1.916   2.669   2.164
  476TIP3   OH2 1372   1.598   2.157   0.187
  476TIP3    H1 1373   1.590   2.238   0.236
  476TIP3    H2 1374   1.583   2.088   0.252
  477TIP3   OH2 1375   3.251   2.050   3.859
  477TIP3    H1 1376   3.245   2.003   3.775
  477TIP3    H2 1377   3.327   2.107   3.849
  478TIP3   OH2 1378   5.466   1.638   5.758
  478TIP3    H1 1379   5.375   1.646   5.731
  478TIP3    H2 1380   5.475   1.545   5.782
  479TIP3   OH2 1381   7.074   2.428   1.526
  479TIP3    H1 1382   7.113   2.378   1.454
  479TIP3    H2 1383   7.102   2.518   1.511
  480TIP3   OH2 1384   7.226   2.748   5.370
  480TIP3    H1 1385   7.275   2.751   5.288
  480TIP3    H2 1386   7.176   2.667   5.365
  481TIP3   OH2 1387   3.900   1.174   3.737
  481TIP3    H1 1388   3.865   1.230   3.668
  481TIP3    H2 1389   3.901   1.086   3.699
  482TIP3   OH2 1390   2.773   2.001   2.972
  482TIP3    H1 1391   2.803   2.091   2.958
  482TIP3    H2 1392   2.708   2.009   3.042
  483TIP3   OH2 1393   3.920   3.682   1.142
  483TIP3    H1 1394   3.999   3.716   1.101
  483TIP3    H2 1395   3.951   3.614   1.202
  484TIP3   OH2 1396   6.677   7.738   4.842
  484TIP3    H1 1397   6.637   7.654   4.821
  484TIP3    H2 1398   6.721   7.765   4.762
  485TIP3   OH2 1399   6.668   0.341   3.277
  485TIP3    H1 1400   6.668   0.298   3.191
  485TIP3    H2 1401   6.608   0.414   3.268
  486TIP3   OH2 1402   6.266   5.873   3.768
  486TIP3    H1 1403   6.255   5.956   3.722
  486TIP3    H2 1404   6.336   5.891   3.832
  487TIP3   OH2 1405   2.600   7.409   6.746
  487TIP3    H1 1406   2.681   7.384   6.790
  487TIP3    H2 1407   2.533   7.405   6.815
  488TIP3   OH2 1408   0.671   6.334   1.474
  488TIP3    H1 1409   0.718   6.267   1.522
  488TIP3    H2 1410   0.594   6.289   1.438
  489TIP3   OH2 1411   6.653   3.347   2.457
  489TIP3    H1 1412   6.611   3.374   2.376
  489TIP3    H2 1413   6.598   3.385   2.526
  490TIP3   OH2 1414   5.160   0.539   2.757
  490TIP3    H1 1415   5.099   0.604   2.793
  490TIP3    H2 1416   5.230   0.592   2.717
  491TIP3   OH2 1417   1.468   0.409   3.710
  491TIP3    H1 1418   1.522   0.428   3.786
  491TIP3    H2 1419   1.392   0.364   3.745
  492TIP3   OH2 1420   6.340   6.021   4.118
  492TIP3    H1 1421   6.357   6.064   4.034
  492TIP3    H2 1422   6.247   6.034   4.133
  493TIP3   OH2 1423   5.867   3.924   1.911
  493TIP3    H1 1424   5.773   3.915   1.927
  493TIP3    H2 1425   5.875   4.003   1.858
  494TIP3   OH2 1426   5.611   6.859   2.368
  494TIP3    H1 1427   5.524   6.845   2.331
  494TIP3    H2 1428   5.663   6.894   2.296
  495TIP3   OH2 1429   3.367   4.514   2.966
  495TIP3    H1 1430   3.371   4.576   2.893
  495TIP3    H2 1431   3.286   4.536   3.011
  496TIP3   OH2 1432   6.840   2.322   4.471
  496TIP3    H1 1433   6.827   2.388   4.539
  496TIP3    H2 1434   6.759   2.272   4.469
  497TIP3   OH2 1435   5.073   5.826   4.136
  497TIP3    H1 1436   5.072   5.734   4.113
  497TIP3    H2 1437   5.117   5.869   4.063
  498TIP3   OH2 1438   1.365   2.202   4.037
  498TIP3    H1 1439   1.316   2.144   3.979
  498TIP3    H2 1440   1.312   2.281   4.043
  499TIP3   OH2 1441   5.998   4.505   5.862
  499TIP3    H1 1442   5.954   4.542   5.786
  499TIP3    H2 1443   5.958   4.551   5.937
  500TIP3   OH2 1444   5.411   6.894   1.135
  500TIP3    H1 1445   5.324   6.917   1.104
  500TIP3    H2 1446   5.412   6.920   1.227
  501TIP3   OH2 1447   7.515   2.161   6.194
  501TIP3    H1 1448   7.452   2.116   6.137
  501TIP3    H2 1449   7.539   2.239   6.145
  502TIP3   OH2 1450   3.697   0.352   2.905
  502TIP3    H1 1451   3.611   0.380   2.937
  502TIP3    H2 1452   3.756   0.368   2.979
  503TIP3   OH2 1453   5.323   1.983   0.629
  503TIP3    H1 1454   5.320   1.944   0.541
  503TIP3    H2 1455   5.416   1.996   0.646
  504TIP3   OH2 1456   8.146   4.679   2.455
  504TIP3    H1 1457   8.091   4.745   2.412
  504TIP3    H2 1458   8.137   4.601   2.399
  505TIP3   OH2 1459   7.995   3.065   6.569
  505TIP3    H1 1460   7.979   3.029   6.656
  505TIP3    H2 1461   7.976   3.159   6.578
  506TIP3   OH2 1462   4.628   7.422   1.164
  506TIP3    H1 1463   4.566   7.493   1.149
  506TIP3    H2 1464   4.674   7.411   1.080
  507TIP3   OH2 1465   3.481   0.336   2.405
  507TIP3    H1 1466   3.485   0.329   2.501
  507TIP3    H2 1467   3.417   0.269   2.379
  508TIP3   OH2 1468   5.908   0.913   4.507
  508TIP3    H1 1469   5.973   0.971   4.466
  508TIP3    H2 1470   5.934   0.911   4.599
  509TIP3   OH2 1471   7.453   7.389   6.692
  509TIP3    H1 1472   7.412   7.347   6.767
  509TIP3    H2 1473   7.525   7.330   6.669
  510TIP3   OH2 1474   7.034   3.137   2.140
  510TIP3    H1 1475   7.066   3.047   2.130
  510TIP3    H2 1476   7.111   3.189   2.161
  511TIP3   OH2 1477   1.857   4.133   5.503
  511TIP3    H1 1478   1.888   4.072   5.436
  511TIP3    H2 1479   1.773   4.095   5.532
  512TIP3   OH2 1480   6.172   0.892   3.752
  512TIP3    H1 1481   6.235   0.965   3.758
  512TIP3    H2 1482   6.211   0.833   3.688
  513TIP3   OH2 1483   4.938   3.664   6.098
  513TIP3    H1 1484   4.913   3.750   6.065
  513TIP3    H2 1485   4.899   3.602   6.035
  514TIP3   OH2 1486   3.144   3.834   1.029
  514TIP3    H1 1487   3.199   3.760   1.002
  514TIP3    H2 1488   3.192   3.874   1.101
  515TIP3   OH2 1489   3.376   2.967   1.044
  515TIP3    H1 1490   3.432   2.923   0.981
  515TIP3    H2 1491   3.289   2.967   1.003
  516TIP3   OH2 1492   0.543   4.242   4.186
  516TIP3    H1 1493   0.563   4.149   4.190
  516TIP3    H2 1494   0.492   4.259   4.265
  517TIP3   OH2 1495   1.431   7.160   6.392
  517TIP3    H1 1496   1.342   7.182   6.418
  517TIP3    H2 1497   1.485   7.231   6.426
  518TIP3   OH2 1498   4.778   2.322   2.548
  518TIP3    H1 1499   4.863   2.280   2.538
  518TIP3    H2 1500   4.794   2.394   2.609
  519TIP3   OH2 1501   0.765   0.125   4.108
  519TIP3    H1 1502   0.819   0.202   4.087
  519TIP3    H2 1503   0.739   0.090   4.023
  520TIP3   OH2 1504   1.059   4.056   4.137
  520TIP3    H1 1505   1.118   4.123   4.172
  520TIP3    H2 1506   1.095   4.036   4.051
  521TIP3   OH2 1507   7.754   3.638   3.098
  521TIP3    H1 1508   7.760   3.576   3.025
  521TIP3    H2 1509   7.834   3.623   3.148
  522TIP3   OH2 1510   7.664   0.445   6.232
  522TIP3    H1 1511   7.705   0.529   6.251
  522TIP3    H2 1512   7.732   0.380   6.248
  523TIP3   OH2 1513   1.305   6.487   6.078
  523TIP3    H1 1514   1.369   6.552   6.108
  523TIP3    H2 1515   1.259   6.530   6.006
  524TIP3   OH2 1516   4.567   1.800   3.328
  524TIP3    H1 1517   4.607   1.784   3.242
  524TIP3    H2 1518   4.531   1.715   3.353
  525TIP3   OH2 1519   5.787   2.222   3.220
  525TIP3    H1 1520   5.828   2.165   3.155
  525TIP3    H2 1521   5.731   2.280   3.167
  526TIP3   OH2 1522   0.455   3.123   5.384
  526TIP3    H1 1523   0.467   3.028   5.376
  526TIP3    H2 1524   0.369   3.132   5.426
  527TIP3   OH2 1525   5.481   3.269   5.870
  527TIP3    H1 1526   5.521   3.330   5.931
  527TIP3    H2 1527   5.521   3.289   5.786
  528TIP3   OH2 1528   7.995   1.080   2.266
  528TIP3    H1 1529   7.941   1.057   2.191
  528TIP3    H2 1530   8.070   1.020   2.261
  529TIP3   OH2 1531   0.853   7.094   1.518
  529TIP3    H1 1532   0.838   7.025   1.582
  529TIP3    H2 1533   0.843   7.175   1.567
  530TIP3   OH2 1534   2.383   0.448   2.297
  530TIP3    H1 1535   2.373   0.503   2.374
  530TIP3    H2 1536   2.301   0.461   2.248
  531TIP3   OH2 1537   0.969   0.959   4.737
  531TIP3    H1 1538   0.919   0.900   4.793
  531TIP3    H2 1539   0.950   0.930   4.648
  532TIP3   OH2 1540   1.861   5.201   2.962
  532TIP3    H1 1541   1.933   5.238   2.911
  532TIP3    H2 1542   1.794   5.270   2.962
  533TIP3   OH2 1543   1.601   6.259   5.284
  533TIP3    H1 1544   1.507   6.242   5.296
  533TIP3    H2 1545   1.614   6.347   5.319
  534TIP3   OH2 1546   5.785   5.366   4.351
  534TIP3    H1 1547   5.823   5.445   4.391
  534TIP3    H2 1548   5.855   5.331   4.296
  535TIP3   OH2 1549   5.269   5.191   2.778
  535TIP3    H1 1550   5.355   5.189   2.735
  535TIP3    H2 1551   5.278   5.259   2.845
  536TIP3   OH2 1552   7.056   0.653   1.382
  536TIP3    H1 1553   6.994   0.666   1.453
  536TIP3    H2 1554   7.132   0.706   1.407
  537TIP3   OH2 1555   0.757   0.851   0.846
  537TIP3    H1 1556   0.684   0.797   0.876
  537TIP3    H2 1557   0.825   0.837   0.911
  538TIP3   OH2 1558   3.047   4.170   5.061
  538TIP3    H1 1559   3.031   4.079   5.035
  538TIP3    H2 1560   3.084   4.163   5.149
  539TIP3   OH2 1561   3.700   2.809   0.104
  539TIP3    H1 1562   3.727   2.862   0.029
  539TIP3    H2 1563   3.717   2.865   0.180
  540TIP3   OH2 1564   5.458   4.558   6.172
  540TIP3    H1 1565   5.548   4.528   6.182
  540TIP3    H2 1566   5.466   4.650   6.149
  541TIP3   OH2 1567   3.063   3.118   0.214
  541TIP3    H1 1568   3.074   3.024   0.231
  541TIP3    H2 1569   3.151   3.147   0.190
  542TIP3   OH2 1570   4.739   6.808   5.841
  542TIP3    H1 1571   4.788   6.867   5.784
  542TIP3    H2 1572   4.805   6.766   5.896
  543TIP3   OH2 1573   7.728   2.016   3.822
  543TIP3    H1 1574   7.721   1.976   3.909
  543TIP3    H2 1575   7.642   2.056   3.808
  544TIP3   OH2 1576   4.740   2.860   0.917
  544TIP3    H1 1577   4.720   2.940   0.965
  544TIP3    H2 1578   4.832   2.842   0.936
  545TIP3   OH2 1579   0.028   2.971   0.504
  545TIP3    H1 1580  -0.042   2.952   0.442
  545TIP3    H2 1581  -0.017   2.980   0.588
  546TIP3   OH2 1582   5.372   4.936   0.479
  546TIP3    H1 1583   5.457   4.909   0.513
  546TIP3    H2 1584   5.365   5.029   0.503
  547TIP3   OH2 1585   5.344   2.691   3.449
  547TIP3    H1 1586   5.424   2.735   3.419
  547TIP3    H2 1587   5.306   2.653   3.371
  548TIP3   OH2 1588   4.729   7.209   5.444
  548TIP3    H1 1589   4.725   7.127   5.396
  548TIP3    H2 1590   4.823   7.231   5.447
  549TIP3   OH2 1591   2.441   7.616   4.868
  549TIP3    H1 1592   2.437   7.547   4.935
  549TIP3    H2 1593   2.510   7.674   4.898
  550TIP3   OH2 1594   3.225   4.318   0.062
  550TIP3    H1 1595   3.190   4.296   0.149
  550TIP3    H2 1596   3.181   4.399   0.038
  551TIP3   OH2 1597   5.800   2.290   3.695
  551TIP3    H1 1598   5.837   2.372   3.728
  551TIP3    H2 1599   5.810   2.296   3.600
  552TIP3   OH2 1600   3.686   7.729   1.457
  552TIP3    H1 1601   3.679   7.823   1.440
  552TIP3    H2 1602   3.720   7.692   1.376
  553TIP3   OH2 1603   3.188   5.487   6.676
  553TIP3    H1 1604   3.193   5.551   6.746
  553TIP3    H2 1605   3.096   5.461   6.673
  554TIP3   OH2 1606   4.390   4.976   2.122
  554TIP3    H1 1607   4.415   5.069   2.128
  554TIP3    H2 1608   4.403   4.942   2.210
  555TIP3   OH2 1609   1.900   1.512   4.732
  555TIP3    H1 1610   1.871   1.471   4.813
  555TIP3    H2 1611   1.872   1.604   4.740
  556TIP3   OH2 1612   5.862   2.408   1.825
  556TIP3    H1 1613   5.899   2.338   1.772
  556TIP3    H2 1614   5.835   2.366   1.906
  557TIP3   OH2 1615   7.800   6.860   6.216
  557TIP3    H1 1616   7.763   6.864   6.304
  557TIP3    H2 1617   7.862   6.788   6.219
  558TIP3   OH2 1618   3.007   4.879   3.558
  558TIP3    H1 1619   3.001   4.971   3.587
  558TIP3    H2 1620   3.049   4.834   3.631
  559TIP3   OH2 1621   5.009   4.713   3.723
  559TIP3    H1 1622   4.951   4.663   3.781
  559TIP3    H2 1623   4.954   4.783   3.689
  560TIP3   OH2 1624   7.577   7.287   3.525
  560TIP3    H1 1625   7.537   7.374   3.528
  560TIP3    H2 1626   7.505   7.227   3.543
  561TIP3   OH2 1627   2.792   6.839   2.364
  561TIP3    H1 1628   2.836   6.854   2.280
  561TIP3    H2 1629   2.703   6.870   2.349
  562TIP3   OH2 1630   6.543   1.976   0.009
  562TIP3    H1 1631   6.580   1.946  -0.074
  562TIP3    H2 1632   6.529   2.070  -0.005
  563TIP3   OH2 1633   3.037   7.041   5.079
  563TIP3    H1 1634   2.977   7.104   5.039
  563TIP3    H2 1635   3.100   7.022   5.009
  564TIP3   OH2 1636   3.361   2.455   5.294
  564TIP3    H1 1637   3.420   2.381   5.281
  564TIP3    H2 1638   3.357   2.499   5.209
  565TIP3   OH2 1639   4.865   3.466   5.924
  565TIP3    H1 1640   4.775   3.433   5.933
  565TIP3    H2 1641   4.904   3.410   5.856
  566TIP3   OH2 1642   2.765   1.355   6.625
  566TIP3    H1 1643   2.719   1.429   6.585
  566TIP3    H2 1644   2.695   1.298   6.656
  567TIP3   OH2 1645   5.850   0.437   5.409
  567TIP3    H1 1646   5.905   0.360   5.394
  567TIP3    H2 1647   5.829   0.434   5.502
  568TIP3   OH2 1648   7.219   1.543   3.809
  568TIP3    H1 1649   7.150   1.540   3.743
  568TIP3    H2 1650   7.274   1.617   3.784
  569TIP3   OH2 1651   7.203   6.537   2.772
  569TIP3    H1 1652   7.219   6.519   2.679
  569TIP3    H2 1653   7.161   6.457   2.806
  570TIP3   OH2 1654   0.333   4.862   5.152
  570TIP3    H1 1655   0.282   4.803   5.207
  570TIP3    H2 1656   0.398   4.899   5.210
  571TIP3   OH2 1657   3.062   5.081   6.601
  571TIP3    H1 1658   3.010   5.123   6.532
  571TIP3    H2 1659   3.027   5.115   6.683
  572TIP3   OH2 1660   5.368   3.767   6.229
  572TIP3    H1 1661   5.400   3.820   6.157
  572TIP3    H2 1662   5.338   3.686   6.188
  573TIP3   OH2 1663   3.781   1.707   3.546
  573TIP3    H1 1664   3.742   1.792   3.525
  573TIP3    H2 1665   3.873   1.715   3.521
  574TIP3   OH2 1666   8.034   0.953   0.171
  574TIP3    H1 1667   8.107   1.014   0.162
  574TIP3    H2 1668   8.014   0.926   0.081
  575TIP3   OH2 1669   7.716   2.162   1.945
  575TIP3    H1 1670   7.652   2.224   1.978
  575TIP3    H2 1671   7.665   2.096   1.898
  576TIP3   OH2 1672   2.003   3.026   6.626
  576TIP3    H1 1673   1.939   2.991   6.688
  576TIP3    H2 1674   2.088   3.002   6.662
  577TIP3   OH2 1675   4.117   3.261   4.002
  577TIP3    H1 1676   4.123   3.337   4.059
  577TIP3    H2 1677   4.191   3.270   3.942
  578TIP3   OH2 1678   4.409   7.580   2.625
  578TIP3    H1 1679   4.322   7.593   2.588
  578TIP3    H2 1680   4.438   7.495   2.590
  579TIP3   OH2 1681   3.709   7.011   1.544
  579TIP3    H1 1682   3.751   7.090   1.511
  579TIP3    H2 1683   3.750   6.996   1.629
  580TIP3   OH2 1684   3.009   3.471   4.629
  580TIP3    H1 1685   3.067   3.423   4.569
  580TIP3    H2 1686   3.057   3.471   4.712
  581TIP3   OH2 1687   7.235   1.028   6.032
  581TIP3    H1 1688   7.304   1.015   6.097
  581TIP3    H2 1689   7.183   1.101   6.066
  582TIP3   OH2 1690   0.830   7.576   2.928
  582TIP3    H1 1691   0.914   7.579   2.882
  582TIP3    H2 1692   0.787   7.658   2.905
  583TIP3   OH2 1693   5.600   3.293   4.669
  583TIP3    H1 1694   5.508   3.274   4.653
  583TIP3    H2 1695   5.642   3.283   4.583
  584TIP3   OH2 1696   1.148   7.246   3.787
  584TIP3    H1 1697   1.123   7.165   3.832
  584TIP3    H2 1698   1.088   7.251   3.712
  585TIP3   OH2 1699   7.195   1.684   4.566
  585TIP3    H1 1700   7.193   1.634   4.485
  585TIP3    H2 1701   7.280   1.728   4.565
  586TIP3   OH2 1702   4.664   6.178   6.315
  586TIP3    H1 1703   4.596   6.116   6.341
  586TIP3    H2 1704   4.632   6.263   6.346
  587TIP3   OH2 1705   7.450   4.126   6.731
  587TIP3    H1 1706   7.483   4.191   6.670
  587TIP3    H2 1707   7.523   4.065   6.745
  588TIP3   OH2 1708   7.466   3.494   1.694
  588TIP3    H1 1709   7.414   3.507   1.614
  588TIP3    H2 1710   7.404   3.457   1.757
  589TIP3   OH2 1711   2.123   6.931   5.133
  589TIP3    H1 1712   2.115   6.894   5.221
  589TIP3    H2 1713   2.123   6.854   5.075
  590TIP3   OH2 1714   3.779   7.267   6.226
  590TIP3    H1 1715   3.691   7.302   6.233
  590TIP3    H2 1716   3.836   7.343   6.234
  591TIP3   OH2 1717   1.196   6.141   3.200
  591TIP3    H1 1718   1.260   6.084   3.245
  591TIP3    H2 1719   1.158   6.084   3.133
  592TIP3   OH2 1720   8.234   1.192   4.767
  592TIP3    H1 1721   8.278   1.122   4.719
  592TIP3    H2 1722   8.164   1.148   4.815
  593TIP3   OH2 1723   2.024   4.496   0.059
  593TIP3    H1 1724   2.014   4.463   0.148
  593TIP3    H2 1725   1.977   4.433   0.004
  594TIP3   OH2 1726   7.585   4.571   5.678
  594TIP3    H1 1727   7.491   4.574   5.694
  594TIP3    H2 1728   7.592   4.542   5.587
  595TIP3   OH2 1729   7.526   4.463   0.468
  595TIP3    H1 1730   7.572   4.482   0.386
  595TIP3    H2 1731   7.441   4.428   0.441
  596TIP3   OH2 1732   4.592   0.830   5.543
  596TIP3    H1 1733   4.589   0.847   5.637
  596TIP3    H2 1734   4.503   0.847   5.512
  597TIP3   OH2 1735   0.765   1.311   3.957
  597TIP3    H1 1736   0.717   1.366   4.019
  597TIP3    H2 1737   0.849   1.294   4.001
  598TIP3   OH2 1738   5.333   0.848   1.824
  598TIP3    H1 1739   5.423   0.816   1.811
  598TIP3    H2 1740   5.334   0.937   1.788
  599TIP3   OH2 1741   5.446   6.736   0.574
  599TIP3    H1 1742   5.520   6.677   0.580
  599TIP3    H2 1743   5.461   6.788   0.495
  600TIP3   OH2 1744   2.444   1.141   3.853
  600TIP3    H1 1745   2.371   1.192   3.817
  600TIP3    H2 1746   2.403   1.074   3.907
  601TIP3   OH2 1747   7.915   5.504   5.677
  601TIP3    H1 1748   7.998   5.551   5.676
  601TIP3    H2 1749   7.869   5.534   5.599
  602TIP3   OH2 1750   4.041   3.174   1.252
  602TIP3    H1 1751   4.050   3.211   1.340
  602TIP3    H2 1752   4.065   3.246   1.193
  603TIP3   OH2 1753   4.025   7.249   6.497
  603TIP3    H1 1754   4.008   7.277   6.587
  603TIP3    H2 1755   3.944   7.204   6.471
  604TIP3   OH2 1756   1.990   1.194   3.064
  604TIP3    H1 1757   1.910   1.150   3.094
  604TIP3    H2 1758   2.027   1.134   2.999
  605TIP3   OH2 1759   7.938   1.610   0.586
  605TIP3    H1 1760   7.961   1.690   0.632
  605TIP3    H2 1761   7.969   1.624   0.496
  606TIP3   OH2 1762   4.930   5.443   3.329
  606TIP3    H1 1763   4.937   5.536   3.306
  606TIP3    H2 1764   4.971   5.435   3.415
  607TIP3   OH2 1765   5.374   1.420   2.842
  607TIP3    H1 1766   5.325   1.340   2.861
  607TIP3    H2 1767   5.465   1.391   2.833
  608TIP3   OH2 1768   5.833   4.138   3.679
  608TIP3    H1 1769   5.844   4.048   3.710
  608TIP3    H2 1770   5.870   4.138   3.591
  609TIP3   OH2 1771   3.485   1.831   1.747
  609TIP3    H1 1772   3.457   1.904   1.691
  609TIP3    H2 1773   3.540   1.777   1.690
  610TIP3   OH2 1774   1.669   4.700   0.116
  610TIP3    H1 1775   1.689   4.790   0.091
  610TIP3    H2 1776   1.664   4.702   0.212
  611TIP3   OH2 1777   3.860   5.881   3.961
  611TIP3    H1 1778   3.915   5.804   3.975
  611TIP3    H2 1779   3.867   5.900   3.868
  612TIP3   OH2 1780   7.920   0.221   2.138
  612TIP3    H1 1781   7.903   0.315   2.141
  612TIP3    H2 1782   7.851   0.186   2.081
  613TIP3   OH2 1783   0.289   5.708   4.001
  613TIP3    H1 1784   0.352   5.770   3.966
  613TIP3    H2 1785   0.241   5.676   3.924
  614TIP3   OH2 1786   0.162   2.624   5.675
  614TIP3    H1 1787   0.125   2.573   5.604
  614TIP3    H2 1788   0.174   2.561   5.746
  615TIP3   OH2 1789   1.054   2.115   1.765
  615TIP3    H1 1790   1.064   2.203   1.728
  615TIP3    H2 1791   1.126   2.107   1.827
  616TIP3   OH2 1792   0.999   2.288   3.576
  616TIP3    H1 1793   1.054   2.211   3.594
  616TIP3    H2 1794   1.059   2.363   3.587
  617TIP3   OH2 1795   5.305   1.472   6.525
  617TIP3    H1 1796   5.311   1.567   6.528
  617TIP3    H2 1797   5.244   1.454   6.453
  618TIP3   OH2 1798   3.458   0.068   1.778
  618TIP3    H1 1799   3.396   0.126   1.732
  618TIP3    H2 1800   3.485   0.118   1.855
  619TIP3   OH2 1801   1.328   4.629   5.694
  619TIP3    H1 1802   1.286   4.583   5.621
  619TIP3    H2 1803   1.419   4.602   5.690
  620TIP3   OH2 1804   2.408   1.791   2.968
  620TIP3    H1 1805   2.436   1.749   3.050
  620TIP3    H2 1806   2.423   1.884   2.984
  621TIP3   OH2 1807   2.141   0.382   3.951
  621TIP3    H1 1808   2.158   0.312   3.889
  621TIP3    H2 1809   2.131   0.339   4.035
  622TIP3   OH2 1810   0.209   3.880   6.038
  622TIP3    H1 1811   0.136   3.855   6.094
  622TIP3    H2 1812   0.203   3.975   6.031
  623TIP3   OH2 1813   0.325   1.201   5.678
  623TIP3    H1 1814   0.393   1.268   5.687
  623TIP3    H2 1815   0.330   1.174   5.586
  624TIP3   OH2 1816   3.064   4.787   5.755
  624TIP3    H1 1817   3.040   4.703   5.792
  624TIP3    H2 1818   3.143   4.770   5.704
  625TIP3   OH2 1819   1.945   4.498   5.710
  625TIP3    H1 1820   1.946   4.576   5.765
  625TIP3    H2 1821   1.946   4.425   5.772
  626TIP3   OH2 1822   7.175   7.465   4.523
  626TIP3    H1 1823   7.255   7.452   4.573
  626TIP3    H2 1824   7.200   7.527   4.454
  627TIP3   OH2 1825   0.876   4.401   5.660
  627TIP3    H1 1826   0.827   4.430   5.583
  627TIP3    H2 1827   0.913   4.481   5.696
  628TIP3   OH2 1828   1.142   7.254   0.545
  628TIP3    H1 1829   1.221   7.282   0.499
  628TIP3    H2 1830   1.109   7.334   0.585
  629TIP3   OH2 1831   3.091   1.396   0.918
  629TIP3    H1 1832   3.109   1.423   0.828
  629TIP3    H2 1833   3.068   1.477   0.964
  630TIP3   OH2 1834   1.286   2.863   1.585
  630TIP3    H1 1835   1.355   2.859   1.519
  630TIP3    H2 1836   1.224   2.794   1.559
  631TIP3   OH2 1837   3.455   5.069   1.780
  631TIP3    H1 1838   3.471   5.143   1.839
  631TIP3    H2 1839   3.531   5.012   1.793
  632TIP3   OH2 1840   1.377   1.095   5.342
  632TIP3    H1 1841   1.305   1.106   5.404
  632TIP3    H2 1842   1.345   1.030   5.279
  633TIP3   OH2 1843   5.041   2.479   0.433
  633TIP3    H1 1844   5.122   2.530   0.435
  633TIP3    H2 1845   4.995   2.504   0.513
  634TIP3   OH2 1846   3.466   4.065   6.528
  634TIP3    H1 1847   3.416   4.006   6.473
  634TIP3    H2 1848   3.451   4.034   6.617
  635TIP3   OH2 1849   7.922   0.710   3.680
  635TIP3    H1 1850   7.914   0.714   3.584
  635TIP3    H2 1851   7.920   0.617   3.700
  636TIP3   OH2 1852   1.183   0.654   1.653
  636TIP3    H1 1853   1.165   0.566   1.622
  636TIP3    H2 1854   1.185   0.708   1.574
  637TIP3   OH2 1855   3.361   7.338   5.189
  637TIP3    H1 1856   3.337   7.271   5.253
  637TIP3    H2 1857   3.430   7.388   5.232
  638TIP3   OH2 1858   1.803   7.508   3.924
  638TIP3    H1 1859   1.790   7.414   3.908
  638TIP3    H2 1860   1.729   7.533   3.979
  639TIP3   OH2 1861   4.447   0.026   3.013
  639TIP3    H1 1862   4.480  -0.020   2.936
  639TIP3    H2 1863   4.388   0.093   2.977
  640TIP3   OH2 1864   7.114   3.626   4.188
  640TIP3    H1 1865   7.026   3.594   4.206
  640TIP3    H2 1866   7.130   3.604   4.097
  641TIP3   OH2 1867   0.396   5.927   2.420
  641TIP3    H1 1868   0.489   5.934   2.439
  641TIP3    H2 1869   0.392   5.913   2.325
  642TIP3   OH2 1870   8.111   3.340   1.674
  642TIP3    H1 1871   8.035   3.365   1.726
  642TIP3    H2 1872   8.117   3.405   1.605
  643TIP3   OH2 1873   1.570   5.850   3.081
  643TIP3    H1 1874   1.600   5.811   2.999
  643TIP3    H2 1875   1.522   5.928   3.054
  644TIP3   OH2 1876   2.421   0.785   2.825
  644TIP3    H1 1877   2.368   0.854   2.865
  644TIP3    H2 1878   2.504   0.788   2.871
  645TIP3   OH2 1879   6.552   2.858   1.553
  645TIP3    H1 1880   6.513   2.911   1.623
  645TIP3    H2 1881   6.479   2.840   1.494
  646TIP3   OH2 1882   4.747   1.176   4.851
  646TIP3    H1 1883   4.758   1.268   4.874
  646TIP3    H2 1884   4.738   1.177   4.755
  647TIP3   OH2 1885   3.578   4.864   4.538
  647TIP3    H1 1886   3.600   4.859   4.445
  647TIP3    H2 1887   3.538   4.779   4.558
  648TIP3   OH2 1888   6.836   0.950   3.279
  648TIP3    H1 1889   6.864   1.030   3.234
  648TIP3    H2 1890   6.804   0.893   3.209
  649TIP3   OH2 1891   0.977   4.924   3.448
  649TIP3    H1 1892   1.007   4.868   3.376
  649TIP3    H2 1893   0.884   4.939   3.429
  650TIP3   OH2 1894   3.578   7.437   5.310
  650TIP3    H1 1895   3.596   7.528   5.287
  650TIP3    H2 1896   3.663   7.394   5.308
  651TIP3   OH2 1897   0.632   3.042   1.456
  651TIP3    H1 1898   0.643   3.049   1.551
  651TIP3    H2 1899   0.541   3.014   1.444
  652TIP3   OH2 1900   4.651   1.449   4.849
  652TIP3    H1 1901   4.705   1.527   4.835
  652TIP3    H2 1902   4.595   1.444   4.771
  653TIP3   OH2 1903   6.298   1.718   0.100
  653TIP3    H1 1904   6.363   1.754   0.161
  653TIP3    H2 1905   6.340   1.721   0.015
  654TIP3   OH2 1906   5.688   1.371   0.139
  654TIP3    H1 1907   5.714   1.290   0.183
  654TIP3    H2 1908   5.600   1.388   0.170
  655TIP3   OH2 1909   0.238   4.895   0.060
  655TIP3    H1 1910   0.191   4.916   0.141
  655TIP3    H2 1911   0.318   4.852   0.090
  656TIP3   OH2 1912   0.740   4.718   5.100
  656TIP3    H1 1913   0.716   4.731   5.192
  656TIP3    H2 1914   0.817   4.773   5.088
  657TIP3   OH2 1915   7.485   5.153   2.385
  657TIP3    H1 1916   7.512   5.207   2.311
  657TIP3    H2 1917   7.419   5.094   2.348
  658TIP3   OH2 1918   5.936   2.398   4.583
  658TIP3    H1 1919   5.924   2.489   4.555
  658TIP3    H2 1920   6.020   2.397   4.628
  659TIP3   OH2 1921   7.931   7.002   2.853
  659TIP3    H1 1922   8.008   7.002   2.909
  659TIP3    H2 1923   7.955   6.945   2.780
  660TIP3   OH2 1924   1.125   7.476   5.086
  660TIP3    H1 1925   1.139   7.569   5.071
  660TIP3    H2 1926   1.116   7.439   4.998
  661TIP3   OH2 1927   5.751   4.840   6.700
  661TIP3    H1 1928   5.678   4.789   6.734
  661TIP3    H2 1929   5.747   4.829   6.605
  662TIP3   OH2 1930   2.833   5.562   1.232
  662TIP3    H1 1931   2.926   5.579   1.218
  662TIP3    H2 1932   2.793   5.577   1.146
  663TIP3   OH2 1933   3.541   0.726   4.397
  663TIP3    H1 1934   3.582   0.644   4.368
  663TIP3    H2 1935   3.582   0.744   4.482
  664TIP3   OH2 1936   3.654   0.052   0.523
  664TIP3    H1 1937   3.649   0.115   0.451
  664TIP3    H2 1938   3.660  -0.033   0.479
  665TIP3   OH2 1939   0.964   6.189   5.127
  665TIP3    H1 1940   0.946   6.138   5.205
  665TIP3    H2 1941   1.006   6.128   5.066
  666TIP3   OH2 1942   0.233   5.157   2.501
  666TIP3    H1 1943   0.256   5.079   2.450
  666TIP3    H2 1944   0.191   5.215   2.437
  667TIP3   OH2 1945   0.237   4.683   4.167
  667TIP3    H1 1946   0.323   4.714   4.137
  667TIP3    H2 1947   0.177   4.709   4.098
  668TIP3   OH2 1948   6.259   1.814   3.968
  668TIP3    H1 1949   6.210   1.734   3.950
  668TIP3    H2 1950   6.286   1.807   4.059
  669TIP3   OH2 1951   5.198   7.559   1.455
  669TIP3    H1 1952   5.292   7.561   1.472
  669TIP3    H2 1953   5.171   7.470   1.477
  670TIP3   OH2 1954   0.354   0.481   4.561
  670TIP3    H1 1955   0.339   0.576   4.554
  670TIP3    H2 1956   0.267   0.442   4.559
  671TIP3   OH2 1957   0.035   1.693   1.105
  671TIP3    H1 1958   0.007   1.737   1.185
  671TIP3    H2 1959   0.128   1.713   1.097
  672TIP3   OH2 1960   3.942   2.987   2.817
  672TIP3    H1 1961   3.977   3.072   2.844
  672TIP3    H2 1962   4.004   2.957   2.750
  673TIP3   OH2 1963   5.400   3.198   4.270
  673TIP3    H1 1964   5.377   3.118   4.317
  673TIP3    H2 1965   5.456   3.246   4.331
  674TIP3   OH2 1966   5.939   0.706   1.162
  674TIP3    H1 1967   5.992   0.725   1.085
  674TIP3    H2 1968   5.858   0.668   1.126
  675TIP3   OH2 1969   3.301   6.311   1.698
  675TIP3    H1 1970   3.352   6.310   1.618
  675TIP3    H2 1971   3.340   6.243   1.753
  676TIP3   OH2 1972   2.078   2.697   3.027
  676TIP3    H1 1973   2.121   2.725   2.947
  676TIP3    H2 1974   1.994   2.743   3.027
  677TIP3   OH2 1975   6.190   5.880   0.214
  677TIP3    H1 1976   6.160   5.845   0.298
  677TIP3    H2 1977   6.131   5.953   0.196
  678TIP3   OH2 1978   0.210   2.003   1.426
  678TIP3    H1 1979   0.138   2.017   1.488
  678TIP3    H2 1980   0.242   1.915   1.446
  679TIP3   OH2 1981   1.474   6.666   4.111
  679TIP3    H1 1982   1.488   6.615   4.191
  679TIP3    H2 1983   1.450   6.753   4.142
  680TIP3   OH2 1984   5.103   3.302   0.352
  680TIP3    H1 1985   5.195   3.284   0.331
  680TIP3    H2 1986   5.057   3.298   0.268
  681TIP3   OH2 1987   6.680   7.701   5.110
  681TIP3    H1 1988   6.591   7.682   5.139
  681TIP3    H2 1989   6.671   7.732   5.020
  682TIP3   OH2 1990   5.184   4.653   2.890
  682TIP3    H1 1991   5.254   4.588   2.896
  682TIP3    H2 1992   5.178   4.674   2.797
  683TIP3   OH2 1993   5.262   5.438   2.944
  683TIP3    H1 1994   5.194   5.418   3.008
  683TIP3    H2 1995   5.333   5.477   2.996
  684TIP3   OH2 1996   4.004   7.408   3.678
  684TIP3    H1 1997   3.938   7.341   3.694
  684TIP3    H2 1998   4.044   7.383   3.594
  685TIP3   OH2 1999   6.949   5.188   1.352
  685TIP3    H1 2000   6.914   5.272   1.321
  685TIP3    H2 2001   6.873   5.132   1.361
  686TIP3   OH2 2002   2.461   3.226   1.417
  686TIP3    H1 2003   2.484   3.272   1.336
  686TIP3    H2 2004   2.367   3.210   1.410
  687TIP3   OH2 2005   0.628   4.307   4.825
  687TIP3    H1 2006   0.699   4.350   4.873
  687TIP3    H2 2007   0.569   4.378   4.800
  688TIP3   OH2 2008   5.272   6.297   4.369
  688TIP3    H1 2009   5.333   6.227   4.388
  688TIP3    H2 2010   5.191   6.253   4.342
  689TIP3   OH2 2011   7.203   3.248   4.497
  689TIP3    H1 2012   7.276   3.310   4.498
  689TIP3    H2 2013   7.244   3.162   4.505
  690TIP3   OH2 2014   6.412   6.853   0.444
  690TIP3    H1 2015   6.430   6.820   0.532
  690TIP3    H2 2016   6.333   6.806   0.416
  691TIP3   OH2 2017   3.730   7.396   6.636
  691TIP3    H1 2018   3.763   7.436   6.716
  691TIP3    H2 2019   3.765   7.307   6.637
  692TIP3   OH2 2020   6.495   6.326   6.042
  692TIP3    H1 2021   6.551   6.304   6.116
  692TIP3    H2 2022   6.508   6.254   5.980
  693TIP3   OH2 2023   2.441   1.943   1.758
  693TIP3    H1 2024   2.426   1.908   1.670
  693TIP3    H2 2025   2.485   2.027   1.744
  694TIP3   OH2 2026   3.158   2.365   3.831
  694TIP3    H1 2027   3.197   2.351   3.917
  694TIP3    H2 2028   3.085   2.303   3.826
  695TIP3   OH2 2029   1.258   7.497   1.578
  695TIP3    H1 2030   1.291   7.419   1.622
  695TIP3    H2 2031   1.170   7.510   1.614
  696TIP3   OH2 2032   6.862   1.346   3.526
  696TIP3    H1 2033   6.832   1.257   3.542
  696TIP3    H2 2034   6.952   1.336   3.493
  697TIP3   OH2 2035   2.049   6.377   2.964
  697TIP3    H1 2036   1.957   6.354   2.979
  697TIP3    H2 2037   2.092   6.358   3.047
  698TIP3   OH2 2038   2.862   0.202   3.518
  698TIP3    H1 2039   2.889   0.293   3.526
  698TIP3    H2 2040   2.863   0.169   3.608
  699TIP3   OH2 2041   2.850   2.144   4.631
  699TIP3    H1 2042   2.818   2.115   4.717
  699TIP3    H2 2043   2.814   2.080   4.570
  700TIP3   OH2 2044   2.589   0.112   5.577
  700TIP3    H1 2045   2.576   0.077   5.488
  700TIP3    H2 2046   2.510   0.163   5.593
  701TIP3   OH2 2047   0.911   3.808   0.858
  701TIP3    H1 2048   0.867   3.859   0.925
  701TIP3    H2 2049   0.995   3.783   0.898
  702TIP3   OH2 2050   1.096   5.518   5.714
  702TIP3    H1 2051   1.152   5.527   5.637
  702TIP3    H2 2052   1.134   5.445   5.763
  703TIP3   OH2 2053   4.879   5.005   1.774
  703TIP3    H1 2054   4.795   5.040   1.803
  703TIP3    H2 2055   4.944   5.045   1.832
  704TIP3   OH2 2056   1.228   3.821   0.855
  704TIP3    H1 2057   1.309   3.778   0.828
  704TIP3    H2 2058   1.243   3.913   0.835
  705TIP3   OH2 2059   5.068   3.610   5.361
  705TIP3    H1 2060   5.128   3.550   5.318
  705TIP3    H2 2061   5.013   3.554   5.417
  706TIP3   OH2 2062   7.014   1.588   0.560
  706TIP3    H1 2063   7.074   1.575   0.487
  706TIP3    H2 2064   7.053   1.657   0.613
  707TIP3   OH2 2065   7.469   0.101   0.539
  707TIP3    H1 2066   7.386   0.126   0.497
  707TIP3    H2 2067   7.459   0.127   0.630
  708TIP3   OH2 2068   7.670   4.259   2.715
  708TIP3    H1 2069   7.604   4.302   2.769
  708TIP3    H2 2070   7.632   4.174   2.693
  709TIP3   OH2 2071   2.929   1.913   2.222
  709TIP3    H1 2072   2.845   1.906   2.176
  709TIP3    H2 2073   2.957   2.003   2.207
  710TIP3   OH2 2074   2.660   1.998   0.500
  710TIP3    H1 2075   2.577   1.987   0.546
  710TIP3    H2 2076   2.711   1.921   0.525
  711TIP3   OH2 2077   3.833   0.039   0.720
  711TIP3    H1 2078   3.888   0.117   0.719
  711TIP3    H2 2079   3.764   0.058   0.656
  712TIP3   OH2 2080   5.801   2.956   4.906
  712TIP3    H1 2081   5.805   3.051   4.897
  712TIP3    H2 2082   5.754   2.942   4.989
  713TIP3   OH2 2083   5.129   0.191   3.304
  713TIP3    H1 2084   5.176   0.244   3.239
  713TIP3    H2 2085   5.036   0.212   3.289
  714TIP3   OH2 2086   3.963   2.880   3.077
  714TIP3    H1 2087   3.944   2.925   2.995
  714TIP3    H2 2088   4.013   2.802   3.051
  715TIP3   OH2 2089   0.944   3.232   1.029
  715TIP3    H1 2090   0.883   3.159   1.029
  715TIP3    H2 2091   0.888   3.310   1.031
  716TIP3   OH2 2092   4.138   5.781   4.376
  716TIP3    H1 2093   4.134   5.876   4.375
  716TIP3    H2 2094   4.067   5.754   4.434
  717TIP3   OH2 2095   5.219   5.673   6.176
  717TIP3    H1 2096   5.216   5.768   6.189
  717TIP3    H2 2097   5.133   5.642   6.202
  718TIP3   OH2 2098   0.247   7.267   1.874
  718TIP3    H1 2099   0.313   7.337   1.878
  718TIP3    H2 2100   0.254   7.233   1.785
  719TIP3   OH2 2101   3.445   0.549   1.521
  719TIP3    H1 2102   3.353   0.534   1.499
  719TIP3    H2 2103   3.484   0.582   1.440
  720TIP3   OH2 2104   2.017   5.698   4.739
  720TIP3    H1 2105   2.080   5.639   4.781
  720TIP3    H2 2106   1.943   5.641   4.716
  721TIP3   OH2 2107   5.426   7.664   3.383
  721TIP3    H1 2108   5.436   7.569   3.375
  721TIP3    H2 2109   5.342   7.682   3.340
  722TIP3   OH2 2110   8.133   5.028   4.405
  722TIP3    H1 2111   8.136   4.965   4.477
  722TIP3    H2 2112   8.224   5.059   4.397
  723TIP3   OH2 2113   0.335   2.661   5.373
  723TIP3    H1 2114   0.277   2.602   5.325
  723TIP3    H2 2115   0.410   2.674   5.315
  724TIP3   OH2 2116   8.108   0.184   2.780
  724TIP3    H1 2117   8.112   0.277   2.756
  724TIP3    H2 2118   8.184   0.170   2.836
  725TIP3   OH2 2119   5.773   2.496   0.993
  725TIP3    H1 2120   5.756   2.453   1.077
  725TIP3    H2 2121   5.726   2.579   0.999
  726TIP3   OH2 2122   5.838   0.095   3.118
  726TIP3    H1 2123   5.879   0.113   3.033
  726TIP3    H2 2124   5.871   0.165   3.175
  727TIP3   OH2 2125   0.467   4.835   6.527
  727TIP3    H1 2126   0.491   4.835   6.434
  727TIP3    H2 2127   0.375   4.811   6.528
  728TIP3   OH2 2128   2.088   6.716   4.899
  728TIP3    H1 2129   2.050   6.767   4.827
  728TIP3    H2 2130   2.182   6.714   4.880
  729TIP3   OH2 2131   0.746   2.598   1.250
  729TIP3    H1 2132   0.656   2.625   1.271
  729TIP3    H2 2133   0.800   2.672   1.279
  730TIP3   OH2 2134   1.085   5.832   2.187
  730TIP3    H1 2135   1.152   5.847   2.120
  730TIP3    H2 2136   1.024   5.771   2.147
  731TIP3   OH2 2137   2.902   3.743   2.391
  731TIP3    H1 2138   2.933   3.833   2.376
  731TIP3    H2 2139   2.908   3.701   2.305
  732TIP3   OH2 2140   3.253   1.696   2.712
  732TIP3    H1 2141   3.208   1.702   2.628
  732TIP3    H2 2142   3.301   1.779   2.720
  733TIP3   OH2 2143   3.253   0.217   2.040
  733TIP3    H1 2144   3.175   0.236   1.990
  733TIP3    H2 2145   3.269   0.297   2.091
  734TIP3   OH2 2146   5.538   4.253   5.321
  734TIP3    H1 2147   5.551   4.345   5.297
  734TIP3    H2 2148   5.453   4.251   5.366
  735TIP3   OH2 2149   3.155   7.625   1.190
  735TIP3    H1 2150   3.136   7.717   1.168
  735TIP3    H2 2151   3.183   7.628   1.281
  736TIP3   OH2 2152   4.835   3.087   0.225
  736TIP3    H1 2153   4.919   3.081   0.180
  736TIP3    H2 2154   4.802   2.997   0.227
  737TIP3   OH2 2155   2.165   6.755   3.721
  737TIP3    H1 2156   2.140   6.846   3.738
  737TIP3    H2 2157   2.218   6.760   3.642
  738TIP3   OH2 2158   7.654   0.894   2.213
  738TIP3    H1 2159   7.734   0.847   2.237
  738TIP3    H2 2160   7.637   0.867   2.123
  739TIP3   OH2 2161   0.872   5.895   6.400
  739TIP3    H1 2162   0.879   5.990   6.412
  739TIP3    H2 2163   0.909   5.879   6.313
  740TIP3   OH2 2164   6.177   1.627   3.221
  740TIP3    H1 2165   6.170   1.543   3.176
  740TIP3    H2 2166   6.086   1.648   3.245
  741TIP3   OH2 2167   7.691   5.451   0.986
  741TIP3    H1 2168   7.749   5.492   1.051
  741TIP3    H2 2169   7.701   5.505   0.908
  742TIP3   OH2 2170   4.259   2.856   0.192
  742TIP3    H1 2171   4.352   2.876   0.192
  742TIP3    H2 2172   4.233   2.864   0.283
  743TIP3   OH2 2173   2.681   6.675   3.907
  743TIP3    H1 2174   2.596   6.635   3.888
  743TIP3    H2 2175   2.671   6.714   3.994
  744TIP3   OH2 2176   1.545   2.025   3.290
  744TIP3    H1 2177   1.600   1.995   3.362
  744TIP3    H2 2178   1.489   1.950   3.270
  745TIP3   OH2 2179   4.283   2.528   4.587
  745TIP3    H1 2180   4.231   2.475   4.527
  745TIP3    H2 2181   4.305   2.469   4.659
  746TIP3   OH2 2182   0.512   2.793   0.918
  746TIP3    H1 2183   0.429   2.753   0.892
  746TIP3    H2 2184   0.487   2.864   0.977
  747TIP3   OH2 2185   6.137   6.827   5.685
  747TIP3    H1 2186   6.228   6.825   5.653
  747TIP3    H2 2187   6.144   6.855   5.776
  748TIP3   OH2 2188   0.510   2.418   5.421
  748TIP3    H1 2189   0.458   2.490   5.456
  748TIP3    H2 2190   0.582   2.460   5.374
  749TIP3   OH2 2191   8.287   3.559   2.407
  749TIP3    H1 2192   8.280   3.467   2.381
  749TIP3    H2 2193   8.244   3.563   2.493
  750TIP3   OH2 2194   4.833   1.235   6.242
  750TIP3    H1 2195   4.801   1.215   6.154
  750TIP3    H2 2196   4.758   1.277   6.285
  751TIP3   OH2 2197   5.738   7.373   2.975
  751TIP3    H1 2198   5.707   7.369   2.885
  751TIP3    H2 2199   5.794   7.450   2.977
  752TIP3   OH2 2200   6.941   1.228   6.573
  752TIP3    H1 2201   6.863   1.210   6.624
  752TIP3    H2 2202   6.910   1.231   6.482
  753TIP3   OH2 2203   5.863   4.786   5.175
  753TIP3    H1 2204   5.771   4.805   5.196
  753TIP3    H2 2205   5.874   4.822   5.087
  754TIP3   OH2 2206   2.348   6.791   3.508
  754TIP3    H1 2207   2.282   6.778   3.440
  754TIP3    H2 2208   2.430   6.762   3.468
  755TIP3   OH2 2209   6.777   6.570   4.518
  755TIP3    H1 2210   6.685   6.572   4.492
  755TIP3    H2 2211   6.825   6.565   4.435
  756TIP3   OH2 2212   1.566   3.885   4.212
  756TIP3    H1 2213   1.635   3.867   4.149
  756TIP3    H2 2214   1.493   3.830   4.184
  757TIP3   OH2 2215   0.586   2.095   0.652
  757TIP3    H1 2216   0.664   2.056   0.691
  757TIP3    H2 2217   0.567   2.171   0.706
  758TIP3   OH2 2218   2.965   1.111   5.388
  758TIP3    H1 2219   2.888   1.077   5.344
  758TIP3    H2 2220   2.972   1.058   5.468
  759TIP3   OH2 2221   5.686   6.202   0.250
  759TIP3    H1 2222   5.732   6.162   0.324
  759TIP3    H2 2223   5.603   6.155   0.245
  760TIP3   OH2 2224   5.674   2.366   1.206
  760TIP3    H1 2225   5.754   2.385   1.256
  760TIP3    H2 2226   5.625   2.308   1.264
  761TIP3   OH2 2227   8.074   0.214   3.868
  761TIP3    H1 2228   8.053   0.188   3.958
  761TIP3    H2 2229   8.059   0.136   3.816
  762TIP3   OH2 2230   4.571   6.393   5.956
  762TIP3    H1 2231   4.650   6.340   5.965
  762TIP3    H2 2232   4.578   6.433   5.870
  763TIP3   OH2 2233   2.006   3.668   5.358
  763TIP3    H1 2234   2.004   3.599   5.291
  763TIP3    H2 2235   1.950   3.635   5.428
  764TIP3   OH2 2236   6.538   3.020   5.341
  764TIP3    H1 2237   6.548   2.974   5.424
  764TIP3    H2 2238   6.627   3.023   5.305
  765TIP3   OH2 2239   3.511   7.298   3.566
  765TIP3    H1 2240   3.429   7.329   3.528
  765TIP3    H2 2241   3.484   7.244   3.640
  766TIP3   OH2 2242   1.099   4.251   2.551
  766TIP3    H1 2243   1.075   4.257   2.459
  766TIP3    H2 2244   1.020   4.280   2.598
  767TIP3   OH2 2245   6.971   0.952   4.029
  767TIP3    H1 2246   6.967   1.028   3.972
  767TIP3    H2 2247   7.064   0.928   4.029
  768TIP3   OH2 2248   3.695   1.111   2.384
  768TIP3    H1 2249   3.679   1.118   2.478
  768TIP3    H2 2250   3.767   1.048   2.376
  769TIP3   OH2 2251   4.963   3.323   3.298
  769TIP3    H1 2252   5.030   3.385   3.326
  769TIP3    H2 2253   4.950   3.266   3.374
  770TIP3   OH2 2254   3.620   1.891   5.664
  770TIP3    H1 2255   3.712   1.866   5.653
  770TIP3    H2 2256   3.593   1.848   5.745
  771TIP3   OH2 2257   5.009   0.424   5.163
  771TIP3    H1 2258   5.014   0.455   5.073
  771TIP3    H2 2259   5.099   0.431   5.197
  772TIP3   OH2 2260   0.383   6.080   0.420
  772TIP3    H1 2261   0.355   6.159   0.374
  772TIP3    H2 2262   0.457   6.108   0.473
  773TIP3   OH2 2263   6.437   6.216   4.652
  773TIP3    H1 2264   6.516   6.200   4.705
  773TIP3    H2 2265   6.397   6.293   4.691
  774TIP3   OH2 2266   4.361   0.766   4.238
  774TIP3    H1 2267   4.443   0.783   4.283
  774TIP3    H2 2268   4.306   0.842   4.258
  775TIP3   OH2 2269   5.904   5.536   3.633
  775TIP3    H1 2270   5.857   5.603   3.683
  775TIP3    H2 2271   5.850   5.521   3.556
  776TIP3   OH2 2272   2.004   2.767   2.449
  776TIP3    H1 2273   1.928   2.717   2.420
  776TIP3    H2 2274   1.967   2.842   2.494
  777TIP3   OH2 2275   6.938   0.563   5.453
  777TIP3    H1 2276   6.944   0.605   5.367
  777TIP3    H2 2277   7.016   0.509   5.459
  778TIP3   OH2 2278   0.834   1.297   0.106
  778TIP3    H1 2279   0.895   1.243   0.156
  778TIP3    H2 2280   0.758   1.306   0.163
  779TIP3   OH2 2281   4.557   0.623   5.089
  779TIP3    H1 2282   4.595   0.591   5.170
  779TIP3    H2 2283   4.536   0.715   5.106
  780TIP3   OH2 2284   8.269   7.672   1.948
  780TIP3    H1 2285   8.364   7.670   1.938
  780TIP3    H2 2286   8.239   7.739   1.886
  781TIP3   OH2 2287   8.280   2.953   0.170
  781TIP3    H1 2288   8.351   2.990   0.117
  781TIP3    H2 2289   8.321   2.880   0.218
  782TIP3   OH2 2290   6.202   5.597   0.182
  782TIP3    H1 2291   6.192   5.692   0.174
  782TIP3    H2 2292   6.287   5.579   0.143
  783TIP3   OH2 2293   4.918   7.252   1.416
  783TIP3    H1 2294   4.863   7.230   1.341
  783TIP3    H2 2295   4.951   7.340   1.397
  784TIP3   OH2 2296   5.533   5.199   2.672
  784TIP3    H1 2297   5.610   5.193   2.617
  784TIP3    H2 2298   5.525   5.292   2.693
  785TIP3   OH2 2299   8.168   2.493   6.448
  785TIP3    H1 2300   8.237   2.451   6.499
  785TIP3    H2 2301   8.209   2.568   6.407
  786TIP3   OH2 2302   6.879   4.447   1.876
  786TIP3    H1 2303   6.850   4.381   1.812
  786TIP3    H2 2304   6.934   4.506   1.826
  787TIP3   OH2 2305   4.560   6.408   6.674
  787TIP3    H1 2306   4.483   6.452   6.709
  787TIP3    H2 2307   4.611   6.383   6.751
  788TIP3   OH2 2308   7.482   1.796   2.474
  788TIP3    H1 2309   7.524   1.766   2.555
  788TIP3    H2 2310   7.554   1.821   2.417
  789TIP3   OH2 2311   8.203   4.975   2.526
  789TIP3    H1 2312   8.281   4.945   2.480
  789TIP3    H2 2313   8.135   4.913   2.501
  790TIP3   OH2 2314   6.663   4.649   5.687
  790TIP3    H1 2315   6.751   4.612   5.699
  790TIP3    H2 2316   6.613   4.578   5.647
  791TIP3   OH2 2317   1.554   2.710   0.266
  791TIP3    H1 2318   1.550   2.655   0.344
  791TIP3    H2 2319   1.602   2.788   0.295
  792TIP3   OH2 2320   0.576   5.727   1.331
  792TIP3    H1 2321   0.532   5.690   1.407
  792TIP3    H2 2322   0.540   5.678   1.257
  793TIP3   OH2 2323   8.204   1.613   2.534
  793TIP3    H1 2324   8.193   1.630   2.440
  793TIP3    H2 2325   8.129   1.657   2.575
  794TIP3   OH2 2326   2.029   0.161   3.091
  794TIP3    H1 2327   2.091   0.194   3.157
  794TIP3    H2 2328   1.943   0.177   3.129
  795TIP3   OH2 2329   2.985   0.311   3.996
  795TIP3    H1 2330   2.908   0.305   4.052
  795TIP3    H2 2331   3.057   0.278   4.050
  796TIP3   OH2 2332   7.092   3.443   3.191
  796TIP3    H1 2333   7.162   3.430   3.126
  796TIP3    H2 2334   7.133   3.421   3.275
  797TIP3   OH2 2335   3.226   6.037   0.468
  797TIP3    H1 2336   3.313   6.004   0.446
  797TIP3    H2 2337   3.220   6.027   0.563
  798TIP3   OH2 2338   5.286   6.327   3.992
  798TIP3    H1 2339   5.296   6.243   4.038
  798TIP3    H2 2340   5.358   6.329   3.929
  799TIP3   OH2 2341   5.727   5.981   5.158
  799TIP3    H1 2342   5.742   6.021   5.073
  799TIP3    H2 2343   5.660   6.036   5.199
  800TIP3   OH2 2344   1.956   3.411   4.262
  800TIP3    H1 2345   2.012   3.412   4.185
  800TIP3    H2 2346   1.892   3.480   4.246
  801TIP3   OH2 2347   6.945   4.206   1.708
  801TIP3    H1 2348   6.973   4.156   1.785
  801TIP3    H2 2349   6.872   4.155   1.673
  802TIP3   OH2 2350   1.394   4.911   3.440
  802TIP3    H1 2351   1.352   4.855   3.375
  802TIP3    H2 2352   1.326   4.928   3.505
  803TIP3   OH2 2353   5.939   3.594   6.338
  803TIP3    H1 2354   5.989   3.512   6.329
  803TIP3    H2 2355   5.863   3.569   6.391
  804TIP3   OH2 2356   3.592   2.119   2.947
  804TIP3    H1 2357   3.624   2.140   2.859
  804TIP3    H2 2358   3.547   2.035   2.936
  805TIP3   OH2 2359   5.382   0.296   2.128
  805TIP3    H1 2360   5.470   0.267   2.153
  805TIP3    H2 2361   5.371   0.263   2.038
  806TIP3   OH2 2362   0.421   6.130   3.100
  806TIP3    H1 2363   0.441   6.045   3.060
  806TIP3    H2 2364   0.400   6.110   3.191
  807TIP3   OH2 2365   4.038   7.192   2.514
  807TIP3    H1 2366   3.986   7.112   2.504
  807TIP3    H2 2367   3.979   7.254   2.556
  808TIP3   OH2 2368   2.008   5.008   0.906
  808TIP3    H1 2369   1.942   4.952   0.865
  808TIP3    H2 2370   2.008   4.983   0.998
  809TIP3   OH2 2371   1.927   3.754   3.666
  809TIP3    H1 2372   1.915   3.841   3.627
  809TIP3    H2 2373   1.868   3.698   3.617
  810TIP3   OH2 2374   2.058   1.499   5.066
  810TIP3    H1 2375   1.978   1.481   5.115
  810TIP3    H2 2376   2.073   1.593   5.078
  811TIP3   OH2 2377   3.060   5.219   0.781
  811TIP3    H1 2378   3.137   5.170   0.810
  811TIP3    H2 2379   3.074   5.231   0.687
  812TIP3   OH2 2380   7.820   1.217   3.910
  812TIP3    H1 2381   7.890   1.171   3.864
  812TIP3    H2 2382   7.748   1.220   3.848
  813TIP3   OH2 2383   1.115   3.596   4.792
  813TIP3    H1 2384   1.198   3.601   4.840
  813TIP3    H2 2385   1.090   3.688   4.780
  814TIP3   OH2 2386   2.057   3.629   2.900
  814TIP3    H1 2387   2.044   3.595   2.989
  814TIP3    H2 2388   1.984   3.593   2.849
  815TIP3   OH2 2389   0.012   3.754   6.707
  815TIP3    H1 2390   0.058   3.670   6.722
  815TIP3    H2 2391  -0.069   3.746   6.758
  816TIP3   OH2 2392   1.743   4.956   3.714
  816TIP3    H1 2393   1.721   4.886   3.653
  816TIP3    H2 2394   1.765   4.911   3.795
  817TIP3   OH2 2395   6.262   4.134   0.271
  817TIP3    H1 2396   6.351   4.105   0.290
  817TIP3    H2 2397   6.258   4.223   0.307
  818TIP3   OH2 2398   5.889   5.445   0.969
  818TIP3    H1 2399   5.805   5.440   0.922
  818TIP3    H2 2400   5.955   5.432   0.901
  819TIP3   OH2 2401   1.552   0.381   0.499
  819TIP3    H1 2402   1.584   0.299   0.534
  819TIP3    H2 2403   1.537   0.436   0.576
  820TIP3   OH2 2404   7.163   5.843   6.770
  820TIP3    H1 2405   7.173   5.752   6.799
  820TIP3    H2 2406   7.165   5.838   6.674
  821TIP3   OH2 2407   3.320   0.877   2.679
  821TIP3    H1 2408   3.315   0.970   2.697
  821TIP3    H2 2409   3.239   0.841   2.716
  822TIP3   OH2 2410   7.800   5.189   3.879
  822TIP3    H1 2411   7.729   5.245   3.909
  822TIP3    H2 2412   7.868   5.197   3.946
  823TIP3   OH2 2413   5.972   4.359   6.496
  823TIP3    H1 2414   5.954   4.409   6.575
  823TIP3    H2 2415   5.953   4.420   6.424
  824TIP3   OH2 2416   5.444   4.602   1.926
  824TIP3    H1 2417   5.528   4.648   1.935
  824TIP3    H2 2418   5.379   4.662   1.962
  825TIP3   OH2 2419   6.900   2.818   5.438
  825TIP3    H1 2420   6.955   2.821   5.516
  825TIP3    H2 2421   6.916   2.903   5.395
  826TIP3   OH2 2422   8.281   6.111   3.931
  826TIP3    H1 2423   8.325   6.031   3.960
  826TIP3    H2 2424   8.305   6.119   3.839
  827TIP3   OH2 2425   7.128   6.088   3.151
  827TIP3    H1 2426   7.110   6.165   3.096
  827TIP3    H2 2427   7.070   6.100   3.227
  828TIP3   OH2 2428   5.994   4.987   1.101
  828TIP3    H1 2429   6.012   4.905   1.147
  828TIP3    H2 2430   5.915   5.021   1.142
  829TIP3   OH2 2431   3.206   5.773   3.976
  829TIP3    H1 2432   3.271   5.738   3.915
  829TIP3    H2 2433   3.219   5.868   3.974
  830TIP3   OH2 2434   6.148   4.335   0.481
  830TIP3    H1 2435   6.156   4.413   0.536
  830TIP3    H2 2436   6.162   4.262   0.542
  831TIP3   OH2 2437   6.565   0.449   5.424
  831TIP3    H1 2438   6.570   0.517   5.357
  831TIP3    H2 2439   6.653   0.410   5.425
  832TIP3   OH2 2440   2.257   4.636   3.680
  832TIP3    H1 2441   2.166   4.615   3.657
  832TIP3    H2 2442   2.304   4.553   3.673
  833TIP3   OH2 2443   2.545   7.286   1.138
  833TIP3    H1 2444   2.462   7.275   1.184
  833TIP3    H2 2445   2.535   7.368   1.089
  834TIP3   OH2 2446   0.613   6.786   5.260
  834TIP3    H1 2447   0.634   6.803   5.168
  834TIP3    H2 2448   0.530   6.738   5.257
  835TIP3   OH2 2449   5.014   6.255   2.025
  835TIP3    H1 2450   5.002   6.245   1.931
  835TIP3    H2 2451   5.103   6.290   2.035
  836TIP3   OH2 2452   5.870   5.643   2.708
  836TIP3    H1 2453   5.839   5.688   2.787
  836TIP3    H2 2454   5.936   5.700   2.671
  837TIP3   OH2 2455   5.520   2.031   5.056
  837TIP3    H1 2456   5.429   2.006   5.042
  837TIP3    H2 2457   5.521   2.074   5.142
  838TIP3   OH2 2458   6.298   4.907   4.149
  838TIP3    H1 2459   6.226   4.847   4.166
  838TIP3    H2 2460   6.375   4.861   4.182
  839TIP3   OH2 2461   3.572   5.920   3.069
  839TIP3    H1 2462   3.545   6.011   3.059
  839TIP3    H2 2463   3.668   5.925   3.077
  840TIP3   OH2 2464   7.417   5.688   0.755
  840TIP3    H1 2465   7.425   5.745   0.831
  840TIP3    H2 2466   7.342   5.631   0.776
  841TIP3   OH2 2467   6.984   4.113   0.387
  841TIP3    H1 2468   7.002   4.206   0.396
  841TIP3    H2 2469   7.043   4.071   0.450
  842TIP3   OH2 2470   4.446   2.520   3.871
  842TIP3    H1 2471   4.423   2.478   3.954
  842TIP3    H2 2472   4.542   2.516   3.869
  843TIP3   OH2 2473   7.453   6.566   2.910
  843TIP3    H1 2474   7.489   6.541   2.825
  843TIP3    H2 2475   7.362   6.590   2.891
  844TIP3   OH2 2476   5.467   1.609   3.883
  844TIP3    H1 2477   5.512   1.525   3.879
  844TIP3    H2 2478   5.397   1.595   3.948
  845TIP3   OH2 2479   1.289   1.458   1.276
  845TIP3    H1 2480   1.256   1.543   1.305
  845TIP3    H2 2481   1.210   1.406   1.258
  846TIP3   OH2 2482   4.008   0.089   3.138
  846TIP3    H1 2483   4.086   0.053   3.181
  846TIP3    H2 2484   4.036   0.174   3.104
  847TIP3   OH2 2485   2.928   0.528   4.555
  847TIP3    H1 2486   2.833   0.535   4.551
  847TIP3    H2 2487   2.945   0.436   4.573
  848TIP3   OH2 2488   6.111   4.144   4.020
  848TIP3    H1 2489   6.137   4.147   4.112
  848TIP3    H2 2490   6.170   4.206   3.976
  849TIP3   OH2 2491   2.731   4.287   3.440
  849TIP3    H1 2492   2.821   4.302   3.468
  849TIP3    H2 2493   2.677   4.321   3.512
  850TIP3   OH2 2494   5.685   0.266   1.627
  850TIP3    H1 2495   5.647   0.350   1.650
  850TIP3    H2 2496   5.701   0.222   1.711
  851TIP3   OH2 2497   4.097   4.680   0.884
  851TIP3    H1 2498   4.003   4.683   0.898
  851TIP3    H2 2499   4.110   4.607   0.823
  852TIP3   OH2 2500   4.800   7.691   4.800
  852TIP3    H1 2501   4.813   7.597   4.814
  852TIP3    H2 2502   4.878   7.718   4.752
  853TIP3   OH2 2503   2.867   2.827   3.720
  853TIP3    H1 2504   2.954   2.787   3.718
  853TIP3    H2 2505   2.852   2.848   3.812
  854TIP3   OH2 2506   6.197   1.134   4.070
  854TIP3    H1 2507   6.138   1.209   4.068
  854TIP3    H2 2508   6.256   1.147   3.996
  855TIP3   OH2 2509   4.959   2.870   4.082
  855TIP3    H1 2510   5.050   2.900   4.088
  855TIP3    H2 2511   4.940   2.870   3.988
  856TIP3   OH2 2512   5.184   1.775   2.326
  856TIP3    H1 2513   5.160   1.826   2.249
  856TIP3    H2 2514   5.126   1.806   2.395
  857TIP3   OH2 2515   7.628   4.762   4.798
  857TIP3    H1 2516   7.696   4.827   4.786
  857TIP3    H2 2517   7.676   4.680   4.813
  858TIP3   OH2 2518   0.038   1.007   5.255
  858TIP3    H1 2519   0.006   0.944   5.190
  858TIP3    H2 2520   0.121   1.039   5.219
  859TIP3   OH2 2521   5.572   4.792   3.739
  859TIP3    H1 2522   5.569   4.764   3.647
  859TIP3    H2 2523   5.504   4.741   3.783
  860TIP3   OH2 2524   6.366   2.649   3.121
  860TIP3    H1 2525   6.375   2.608   3.207
  860TIP3    H2 2526   6.348   2.741   3.139
  861TIP3   OH2 2527   5.294   3.795   1.990
  861TIP3    H1 2528   5.298   3.887   1.962
  861TIP3    H2 2529   5.239   3.753   1.924
  862TIP3   OH2 2530   0.717   4.997   3.354
  862TIP3    H1 2531   0.705   5.034   3.267
  862TIP3    H2 2532   0.660   4.920   3.356
  863TIP3   OH2 2533   3.036   4.567   3.616
  863TIP3    H1 2534   3.045   4.642   3.676
  863TIP3    H2 2535   3.051   4.605   3.529
  864TIP3   OH2 2536   0.716   7.347   1.460
  864TIP3    H1 2537   0.716   7.376   1.551
  864TIP3    H2 2538   0.645   7.283   1.455
  865TIP3   OH2 2539   6.697   2.664   1.678
  865TIP3    H1 2540   6.642   2.590   1.654
  865TIP3    H2 2541   6.657   2.739   1.634
  866TIP3   OH2 2542   5.984   5.476   0.241
  866TIP3    H1 2543   5.957   5.452   0.152
  866TIP3    H2 2544   6.070   5.516   0.231
  867TIP3   OH2 2545   6.287   6.033   5.077
  867TIP3    H1 2546   6.369   5.992   5.050
  867TIP3    H2 2547   6.244   5.968   5.133
  868TIP3   OH2 2548   1.891   5.238   3.745
  868TIP3    H1 2549   1.813   5.184   3.728
  868TIP3    H2 2550   1.963   5.175   3.746
  869TIP3   OH2 2551   4.898   1.735   6.331
  869TIP3    H1 2552   4.810   1.700   6.316
  869TIP3    H2 2553   4.884   1.805   6.395
  870TIP3   OH2 2554   7.472   6.094   6.574
  870TIP3    H1 2555   7.431   6.180   6.562
  870TIP3    H2 2556   7.434   6.060   6.654
  871TIP3   OH2 2557   6.200   5.586   2.584
  871TIP3    H1 2558   6.129   5.556   2.527
  871TIP3    H2 2559   6.237   5.505   2.620
  872TIP3   OH2 2560   3.614   6.496   2.079
  872TIP3    H1 2561   3.626   6.404   2.103
  872TIP3    H2 2562   3.619   6.497   1.984
  873TIP3   OH2 2563   1.670   2.815   1.220
  873TIP3    H1 2564   1.741   2.877   1.209
  873TIP3    H2 2565   1.704   2.732   1.188
  874TIP3   OH2 2566   8.159   5.627   5.671
  874TIP3    H1 2567   8.201   5.707   5.704
  874TIP3    H2 2568   8.166   5.633   5.576
  875TIP3   OH2 2569   6.644   0.345   3.735
  875TIP3    H1 2570   6.702   0.287   3.685
  875TIP3    H2 2571   6.585   0.285   3.781
  876TIP3   OH2 2572   5.075   5.002   0.550
  876TIP3    H1 2573   5.069   5.097   0.544
  876TIP3    H2 2574   4.997   4.970   0.504
  877TIP3   OH2 2575   0.778   1.885   0.677
  877TIP3    H1 2576   0.747   1.817   0.737
  877TIP3    H2 2577   0.720   1.878   0.601
  878TIP3   OH2 2578   6.880   7.401   0.057
  878TIP3    H1 2579   6.863   7.455  -0.020
  878TIP3    H2 2580   6.838   7.449   0.129
  879TIP3   OH2 2581   1.904   0.956   5.839
  879TIP3    H1 2582   1.849   0.956   5.917
  879TIP3    H2 2583   1.933   1.047   5.830
  880TIP3   OH2 2584   1.448   4.515   1.659
  880TIP3    H1 2585   1.432   4.556   1.574
  880TIP3    H2 2586   1.491   4.432   1.639
  881TIP3   OH2 2587   0.074   1.980   6.226
  881TIP3    H1 2588   0.129   2.001   6.150
  881TIP3    H2 2589   0.025   2.061   6.243
  882TIP3   OH2 2590   6.054   6.764   3.637
  882TIP3    H1 2591   6.025   6.806   3.718
  882TIP3    H2 2592   6.002   6.684   3.630
  883TIP3   OH2 2593   2.274   7.774   3.057
  883TIP3    H1 2594   2.230   7.790   3.140
  883TIP3    H2 2595   2.246   7.686   3.031
  884TIP3   OH2 2596   2.306   4.441   0.691
  884TIP3    H1 2597   2.283   4.420   0.782
  884TIP3    H2 2598   2.401   4.436   0.688
  885TIP3   OH2 2599   7.425   5.517   0.300
  885TIP3    H1 2600   7.377   5.526   0.382
  885TIP3    H2 2601   7.500   5.575   0.310
  886TIP3   OH2 2602   5.893   1.654   1.416
  886TIP3    H1 2603   5.976   1.701   1.407
  886TIP3    H2 2604   5.852   1.694   1.493
  887TIP3   OH2 2605   4.364   6.292   2.742
  887TIP3    H1 2606   4.371   6.296   2.647
  887TIP3    H2 2607   4.452   6.308   2.774
  888TIP3   OH2 2608   0.544   3.584   3.773
  888TIP3    H1 2609   0.487   3.653   3.738
  888TIP3    H2 2610   0.485   3.512   3.795
  889TIP3   OH2 2611   0.779   2.434   3.906
  889TIP3    H1 2612   0.772   2.355   3.960
  889TIP3    H2 2613   0.728   2.414   3.828
  890TIP3   OH2 2614   4.254   7.584   2.223
  890TIP3    H1 2615   4.339   7.562   2.262
  890TIP3    H2 2616   4.275   7.603   2.132
  891TIP3   OH2 2617   7.251   5.161   2.864
  891TIP3    H1 2618   7.221   5.157   2.773
  891TIP3    H2 2619   7.190   5.221   2.907
  892TIP3   OH2 2620   5.947   1.546   0.657
  892TIP3    H1 2621   5.865   1.559   0.703
  892TIP3    H2 2622   5.982   1.464   0.692
  893TIP3   OH2 2623   6.133   4.490   2.240
  893TIP3    H1 2624   6.038   4.498   2.242
  893TIP3    H2 2625   6.164   4.554   2.304
  894TIP3   OH2 2626   6.802   4.321   1.428
  894TIP3    H1 2627   6.751   4.333   1.509
  894TIP3    H2 2628   6.737   4.331   1.358
  895TIP3   OH2 2629   4.915   7.533   3.399
  895TIP3    H1 2630   4.993   7.572   3.359
  895TIP3    H2 2631   4.913   7.443   3.365
  896TIP3   OH2 2632   7.244   2.003   4.475
  896TIP3    H1 2633   7.290   2.010   4.558
  896TIP3    H2 2634   7.166   1.951   4.495
  897TIP3   OH2 2635   7.959   6.232   6.425
  897TIP3    H1 2636   7.950   6.252   6.518
  897TIP3    H2 2637   7.929   6.311   6.381
  898TIP3   OH2 2638   5.517   5.947   0.564
  898TIP3    H1 2639   5.556   6.025   0.602
  898TIP3    H2 2640   5.581   5.878   0.580
  899TIP3   OH2 2641   0.824   6.210   4.392
  899TIP3    H1 2642   0.889   6.153   4.433
  899TIP3    H2 2643   0.862   6.298   4.396
  900TIP3   OH2 2644   6.256   0.531   0.695
  900TIP3    H1 2645   6.305   0.448   0.701
  900TIP3    H2 2646   6.316   0.596   0.730
  901TIP3   OH2 2647   1.246   1.075   5.851
  901TIP3    H1 2648   1.219   1.024   5.928
  901TIP3    H2 2649   1.260   1.164   5.886
  902TIP3   OH2 2650   5.131   3.193   1.509
  902TIP3    H1 2651   5.152   3.140   1.587
  902TIP3    H2 2652   5.036   3.194   1.506
  903TIP3   OH2 2653   0.672   1.725   4.567
  903TIP3    H1 2654   0.683   1.681   4.483
  903TIP3    H2 2655   0.733   1.679   4.626
  904TIP3   OH2 2656   3.231   2.220   2.049
  904TIP3    H1 2657   3.287   2.255   1.980
  904TIP3    H2 2658   3.182   2.149   2.007
  905TIP3   OH2 2659   6.849   2.881   4.818
  905TIP3    H1 2660   6.896   2.798   4.829
  905TIP3    H2 2661   6.792   2.887   4.894
  906TIP3   OH2 2662   2.206   5.561   5.327
  906TIP3    H1 2663   2.284   5.564   5.382
  906TIP3    H2 2664   2.226   5.495   5.260
  907TIP3   OH2 2665   3.193   5.291   5.585
  907TIP3    H1 2666   3.277   5.329   5.559
  907TIP3    H2 2667   3.139   5.366   5.608
  908TIP3   OH2 2668   0.095   4.526   4.557
  908TIP3    H1 2669   0.017   4.523   4.612
  908TIP3    H2 2670   0.151   4.457   4.592
  909TIP3   OH2 2671   1.581   7.340   4.595
  909TIP3    H1 2672   1.647   7.370   4.533
  909TIP3    H2 2673   1.516   7.410   4.596
  910TIP3   OH2 2674   0.294   2.409   1.684
  910TIP3    H1 2675   0.250   2.484   1.644
  910TIP3    H2 2676   0.297   2.343   1.614
  911TIP3   OH2 2677   2.890   2.406   4.684
  911TIP3    H1 2678   2.895   2.422   4.778
  911TIP3    H2 2679   2.874   2.312   4.676
  912TIP3   OH2 2680   6.516   4.319   0.711
  912TIP3    H1 2681   6.508   4.315   0.616
  912TIP3    H2 2682   6.494   4.410   0.733
  913TIP3   OH2 2683   5.300   2.476   3.306
  913TIP3    H1 2684   5.361   2.402   3.300
  913TIP3    H2 2685   5.251   2.473   3.224
  914TIP3   OH2 2686   3.247   3.378   5.785
  914TIP3    H1 2687   3.243   3.456   5.729
  914TIP3    H2 2688   3.157   3.368   5.817
  915TIP3   OH2 2689   6.544   3.608   3.462
  915TIP3    H1 2690   6.475   3.560   3.506
  915TIP3    H2 2691   6.568   3.677   3.524
  916TIP3   OH2 2692   8.123   6.322   6.216
  916TIP3    H1 2693   8.099   6.241   6.260
  916TIP3    H2 2694   8.179   6.368   6.278
  917TIP3   OH2 2695   4.850   7.089   5.847
  917TIP3    H1 2696   4.928   7.132   5.881
  917TIP3    H2 2697   4.874   7.066   5.757
  918TIP3   OH2 2698   1.313   6.595   4.593
  918TIP3    H1 2699   1.286   6.528   4.530
  918TIP3    H2 2700   1.363   6.547   4.659
  919TIP3   OH2 2701   1.591   4.448   0.227
  919TIP3    H1 2702   1.614   4.485   0.141
  919TIP3    H2 2703   1.571   4.356   0.209
  920TIP3   OH2 2704   1.764   0.208   1.871
  920TIP3    H1 2705   1.698   0.251   1.816
  920TIP3    H2 2706   1.732   0.118   1.880
  921TIP3   OH2 2707   6.506   5.868   1.758
  921TIP3    H1 2708   6.448   5.940   1.733
  921TIP3    H2 2709   6.522   5.881   1.851
  922TIP3   OH2 2710   2.176   6.364   3.226
  922TIP3    H1 2711   2.184   6.269   3.223
  922TIP3    H2 2712   2.126   6.382   3.306
  923TIP3   OH2 2713   5.728   1.923   0.435
  923TIP3    H1 2714   5.818   1.932   0.465
  923TIP3    H2 2715   5.732   1.859   0.363
  924TIP3   OH2 2716   3.135   6.267   5.222
  924TIP3    H1 2717   3.094   6.318   5.152
  924TIP3    H2 2718   3.121   6.320   5.301
  925TIP3   OH2 2719   1.604   4.947   2.695
  925TIP3    H1 2720   1.534   4.884   2.682
  925TIP3    H2 2721   1.684   4.894   2.696
  926TIP3   OH2 2722   8.224   0.206   5.061
  926TIP3    H1 2723   8.180   0.205   5.146
  926TIP3    H2 2724   8.169   0.150   5.005
  927TIP3   OH2 2725   6.397   0.270   5.008
  927TIP3    H1 2726   6.444   0.230   5.081
  927TIP3    H2 2727   6.308   0.281   5.040
  928TIP3   OH2 2728   5.811   6.308   2.756
  928TIP3    H1 2729   5.797   6.256   2.677
  928TIP3    H2 2730   5.864   6.253   2.813
  929TIP3   OH2 2731   2.332   3.956   6.658
  929TIP3    H1 2732   2.415   3.940   6.615
  929TIP3    H2 2733   2.271   3.976   6.587
  930TIP3   OH2 2734   1.817   4.647   2.041
  930TIP3    H1 2735   1.908   4.644   2.070
  930TIP3    H2 2736   1.814   4.718   1.977
  931TIP3   OH2 2737   6.923   2.370   5.571
  931TIP3    H1 2738   6.930   2.279   5.601
  931TIP3    H2 2739   6.939   2.423   5.649
  932TIP3   OH2 2740   0.169   7.808   0.184
  932TIP3    H1 2741   0.197   7.794   0.094
  932TIP3    H2 2742   0.188   7.726   0.229
  933TIP3   OH2 2743   4.727   5.667   0.469
  933TIP3    H1 2744   4.763   5.746   0.430
  933TIP3    H2 2745   4.701   5.612   0.395
  934TIP3   OH2 2746   0.374   7.482   6.291
  934TIP3    H1 2747   0.441   7.551   6.289
  934TIP3    H2 2748   0.347   7.473   6.200
  935TIP3   OH2 2749   7.413   0.249   1.731
  935TIP3    H1 2750   7.483   0.311   1.746
  935TIP3    H2 2751   7.360   0.253   1.811
  936TIP3   OH2 2752   4.821   6.665   2.971
  936TIP3    H1 2753   4.728   6.649   2.953
  936TIP3    H2 2754   4.855   6.579   2.997
  937TIP3   OH2 2755   6.994   0.924   6.642
  937TIP3    H1 2756   7.057   0.868   6.688
  937TIP3    H2 2757   7.047   0.971   6.578
  938TIP3   OH2 2758   5.116   6.745   6.446
  938TIP3    H1 2759   5.065   6.822   6.470
  938TIP3    H2 2760   5.135   6.702   6.529
  939TIP3   OH2 2761   6.965   3.801   4.423
  939TIP3    H1 2762   6.921   3.728   4.380
  939TIP3    H2 2763   6.998   3.854   4.350
  940TIP3   OH2 2764   2.695   3.563   0.932
  940TIP3    H1 2765   2.697   3.650   0.891
  940TIP3    H2 2766   2.785   3.550   0.962
  941TIP3   OH2 2767   0.497   4.898   1.080
  941TIP3    H1 2768   0.436   4.835   1.118
  941TIP3    H2 2769   0.583   4.869   1.108
  942TIP3   OH2 2770   5.144   2.252   2.294
  942TIP3    H1 2771   5.234   2.283   2.291
  942TIP3    H2 2772   5.103   2.288   2.215
  943TIP3   OH2 2773   8.027   2.036   5.360
  943TIP3    H1 2774   7.972   2.102   5.403
  943TIP3    H2 2775   8.085   2.004   5.429
  944TIP3   OH2 2776   8.238   5.313   3.624
  944TIP3    H1 2777   8.321   5.328   3.579
  944TIP3    H2 2778   8.195   5.398   3.624
  945TIP3   OH2 2779   4.381   7.648   1.999
  945TIP3    H1 2780   4.459   7.626   1.949
  945TIP3    H2 2781   4.309   7.642   1.936
  946TIP3   OH2 2782   2.160   0.513   6.217
  946TIP3    H1 2783   2.152   0.579   6.148
  946TIP3    H2 2784   2.102   0.543   6.287
  947TIP3   OH2 2785   3.945   4.545   5.876
  947TIP3    H1 2786   4.009   4.616   5.864
  947TIP3    H2 2787   3.977   4.475   5.819
  948TIP3   OH2 2788   7.206   0.757   6.453
  948TIP3    H1 2789   7.179   0.714   6.372
  948TIP3    H2 2790   7.293   0.792   6.434
  949TIP3   OH2 2791   1.797   7.168   0.717
  949TIP3    H1 2792   1.768   7.222   0.643
  949TIP3    H2 2793   1.871   7.118   0.683
  950TIP3   OH2 2794   7.618   5.626   2.334
  950TIP3    H1 2795   7.709   5.603   2.352
  950TIP3    H2 2796   7.579   5.638   2.420
  951TIP3   OH2 2797   6.880   3.903   4.099
  951TIP3    H1 2798   6.799   3.884   4.146
  951TIP3    H2 2799   6.944   3.923   4.167
  952TIP3   OH2 2800   4.187   7.633   2.485
  952TIP3    H1 2801   4.201   7.612   2.393
  952TIP3    H2 2802   4.121   7.571   2.515
  953TIP3   OH2 2803   4.567   1.079   0.530
  953TIP3    H1 2804   4.641   1.023   0.554
  953TIP3    H2 2805   4.591   1.116   0.446
  954TIP3   OH2 2806   7.665   5.799   3.428
  954TIP3    H1 2807   7.714   5.735   3.377
  954TIP3    H2 2808   7.600   5.835   3.368
  955TIP3   OH2 2809   1.012   6.144   6.146
  955TIP3    H1 2810   1.063   6.119   6.224
  955TIP3    H2 2811   0.945   6.203   6.179
  956TIP3   OH2 2812   4.711   0.134   3.045
  956TIP3    H1 2813   4.730   0.172   3.130
  956TIP3    H2 2814   4.618   0.110   3.050
  957TIP3   OH2 2815   2.734   4.579   1.257
  957TIP3    H1 2816   2.770   4.657   1.215
  957TIP3    H2 2817   2.642   4.578   1.233
  958TIP3   OH2 2818   4.006   1.122   5.982
  958TIP3    H1 2819   3.990   1.028   5.977
  958TIP3    H2 2820   3.919   1.161   5.980
  959TIP3   OH2 2821   4.352   6.527   4.412
  959TIP3    H1 2822   4.322   6.436   4.401
  959TIP3    H2 2823   4.394   6.549   4.329
  960TIP3   OH2 2824   0.876   5.156   2.720
  960TIP3    H1 2825   0.921   5.083   2.763
  960TIP3    H2 2826   0.885   5.229   2.781
  961TIP3   OH2 2827   3.741   0.407   2.626
  961TIP3    H1 2828   3.704   0.365   2.704
  961TIP3    H2 2829   3.771   0.333   2.572
  962TIP3   OH2 2830   3.954   3.999   6.086
  962TIP3    H1 2831   3.897   4.053   6.032
  962TIP3    H2 2832   4.043   4.028   6.064
  963TIP3   OH2 2833   1.270   1.458   0.014
  963TIP3    H1 2834   1.217   1.381   0.035
  963TIP3    H2 2835   1.333   1.427  -0.050
  964TIP3   OH2 2836   3.268   7.543   0.321
  964TIP3    H1 2837   3.270   7.638   0.334
  964TIP3    H2 2838   3.261   7.507   0.409
  965TIP3   OH2 2839   2.227   7.533   3.443
  965TIP3    H1 2840   2.221   7.609   3.385
  965TIP3    H2 2841   2.311   7.544   3.488
  966TIP3   OH2 2842   0.809   6.368   2.243
  966TIP3    H1 2843   0.716   6.353   2.229
  966TIP3    H2 2844   0.840   6.408   2.162
  967TIP3   OH2 2845   5.848   3.854   1.572
  967TIP3    H1 2846   5.774   3.822   1.521
  967TIP3    H2 2847   5.819   3.939   1.606
  968TIP3   OH2 2848   6.742   4.419   1.175
  968TIP3    H1 2849   6.771   4.459   1.094
  968TIP3    H2 2850   6.780   4.331   1.173
  969TIP3   OH2 2851   7.439   1.170   3.101
  969TIP3    H1 2852   7.413   1.137   3.015
  969TIP3    H2 2853   7.534   1.163   3.102
  970TIP3   OH2 2854   4.287   4.011   2.906
  970TIP3    H1 2855   4.380   3.991   2.896
  970TIP3    H2 2856   4.274   4.019   3.000
  971TIP3   OH2 2857   5.203   7.271   2.798
  971TIP3    H1 2858   5.264   7.276   2.871
  971TIP3    H2 2859   5.215   7.354   2.751
  972TIP3   OH2 2860   6.502   0.620   4.407
  972TIP3    H1 2861   6.437   0.557   4.377
  972TIP3    H2 2862   6.518   0.597   4.499
  973TIP3   OH2 2863   4.095   7.103   5.009
  973TIP3    H1 2864   4.167   7.057   5.053
  973TIP3    H2 2865   4.106   7.082   4.916
  974TIP3   OH2 2866   4.120   3.238   0.306
  974TIP3    H1 2867   4.053   3.193   0.255
  974TIP3    H2 2868   4.143   3.314   0.253
  975TIP3   OH2 2869   2.372   2.025   3.265
  975TIP3    H1 2870   2.393   2.075   3.186
  975TIP3    H2 2871   2.444   2.043   3.324
  976TIP3   OH2 2872   7.430   5.040   5.189
  976TIP3    H1 2873   7.385   5.110   5.237
  976TIP3    H2 2874   7.461   4.980   5.256
  977TIP3   OH2 2875   6.419   4.672   1.839
  977TIP3    H1 2876   6.445   4.755   1.879
  977TIP3    H2 2877   6.397   4.616   1.914
  978TIP3   OH2 2878   2.990   0.532   0.593
  978TIP3    H1 2879   2.935   0.610   0.584
  978TIP3    H2 2880   2.931   0.464   0.626
  979TIP3   OH2 2881   1.802   3.265   4.868
  979TIP3    H1 2882   1.789   3.350   4.825
  979TIP3    H2 2883   1.741   3.206   4.822
  980TIP3   OH2 2884   2.523   3.884   1.109
  980TIP3    H1 2885   2.506   3.870   1.016
  980TIP3    H2 2886   2.613   3.918   1.111
  981TIP3   OH2 2887   5.550   5.074   3.789
  981TIP3    H1 2888   5.508   5.102   3.707
  981TIP3    H2 2889   5.587   4.988   3.769
  982TIP3   OH2 2890   4.118   6.180   2.017
  982TIP3    H1 2891   4.101   6.141   2.103
  982TIP3    H2 2892   4.138   6.105   1.961
  983TIP3   OH2 2893   6.637   7.190   2.267
  983TIP3    H1 2894   6.716   7.237   2.243
  983TIP3    H2 2895   6.650   7.166   2.359
  984TIP3   OH2 2896   0.943   6.613   0.695
  984TIP3    H1 2897   0.944   6.657   0.780
  984TIP3    H2 2898   1.014   6.549   0.701
  985TIP3   OH2 2899   2.221   2.458   5.217
  985TIP3    H1 2900   2.292   2.484   5.158
  985TIP3    H2 2901   2.245   2.497   5.301
  986TIP3   OH2 2902   2.756   5.382   2.485
  986TIP3    H1 2903   2.720   5.471   2.481
  986TIP3    H2 2904   2.812   5.382   2.562
  987TIP3   OH2 2905   5.858   1.859   4.380
  987TIP3    H1 2906   5.839   1.888   4.469
  987TIP3    H2 2907   5.843   1.764   4.381
  988TIP3   OH2 2908   2.912   1.972   5.222
  988TIP3    H1 2909   2.920   2.039   5.290
  988TIP3    H2 2910   3.000   1.965   5.185
  989TIP3   OH2 2911   2.424   5.576   0.277
  989TIP3    H1 2912   2.397   5.504   0.220
  989TIP3    H2 2913   2.513   5.553   0.304
  990TIP3   OH2 2914   1.104   3.338   3.709
  990TIP3    H1 2915   1.168   3.272   3.739
  990TIP3    H2 2916   1.078   3.309   3.622
  991TIP3   OH2 2917   1.570   6.748   0.142
  991TIP3    H1 2918   1.557   6.653   0.152
  991TIP3    H2 2919   1.484   6.785   0.162
  992TIP3   OH2 2920   6.395   5.203   0.148
  992TIP3    H1 2921   6.398   5.218   0.242
  992TIP3    H2 2922   6.434   5.116   0.136
  993TIP3   OH2 2923   5.263   7.073   6.023
  993TIP3    H1 2924   5.263   7.073   5.927
  993TIP3    H2 2925   5.260   6.981   6.048
  994TIP3   OH2 2926   3.277   5.334   2.194
  994TIP3    H1 2927   3.312   5.268   2.253
  994TIP3    H2 2928   3.241   5.401   2.252
  995TIP3   OH2 2929   1.736   4.334   2.074
  995TIP3    H1 2930   1.775   4.291   1.998
  995TIP3    H2 2931   1.805   4.393   2.106
  996TIP3   OH2 2932   7.313   2.379   4.425
  996TIP3    H1 2933   7.235   2.423   4.459
  996TIP3    H2 2934   7.384   2.441   4.441
  997TIP3   OH2 2935   5.264   4.341   5.373
  997TIP3    H1 2936   5.213   4.260   5.382
  997TIP3    H2 2937   5.226   4.401   5.437
  998TIP3   OH2 2938   0.436   2.726   0.320
  998TIP3    H1 2939   0.499   2.772   0.265
  998TIP3    H2 2940   0.419   2.644   0.274
  999TIP3   OH2 2941   6.483   7.202   3.013
  999TIP3    H1 2942   6.427   7.126   3.029
  999TIP3    H2 2943   6.548   7.171   2.951
 1000TIP3   OH2 2944   7.186   7.368   0.821
 1000TIP3    H1 2945   7.217   7.396   0.907
 1000TIP3    H2 2946   7.237   7.420   0.759
 1001TIP3   OH2 2947   4.066   3.965   2.376
 1001TIP3    H1 2948   4.019   4.039   2.414
 1001TIP3    H2 2949   4.127   3.936   2.444
 1002TIP3   OH2 2950   1.069   4.687   5.151
 1002TIP3    H1 2951   1.013   4.624   5.198
 1002TIP3    H2 2952   1.125   4.632   5.096
 1003TIP3   OH2 2953   2.590   2.590   4.012
 1003TIP3    H1 2954   2.510   2.538   4.001
 1003TIP3    H2 2955   2.614   2.616   3.923
 1004TIP3   OH2 2956   8.275   4.187   1.581
 1004TIP3    H1 2957   8.179   4.187   1.584
 1004TIP3    H2 2958   8.301   4.138   1.659
 1005TIP3   OH2 2959   2.284   3.302   5.598
 1005TIP3    H1 2960   2.208   3.296   5.539
 1005TIP3    H2 2961   2.260   3.250   5.674
 1006TIP3   OH2 2962   6.849   1.531   0.817
 1006TIP3    H1 2963   6.903   1.554   0.741
 1006TIP3    H2 2964   6.788   1.604   0.825
 1007TIP3   OH2 2965   0.521   5.181   0.662
 1007TIP3    H1 2966   0.463   5.244   0.620
 1007TIP3    H2 2967   0.464   5.131   0.721
 1008TIP3   OH2 2968   6.490   0.162   4.111
 1008TIP3    H1 2969   6.457   0.107   4.040
 1008TIP3    H2 2970   6.535   0.102   4.170
 1009TIP3   OH2 2971   3.520   6.679   6.595
 1009TIP3    H1 2972   3.527   6.601   6.541
 1009TIP3    H2 2973   3.567   6.657   6.675
 1010TIP3   OH2 2974   0.226   3.724   3.933
 1010TIP3    H1 2975   0.131   3.733   3.919
 1010TIP3    H2 2976   0.253   3.809   3.967
 1011TIP3   OH2 2977   5.958   0.920   3.442
 1011TIP3    H1 2978   5.907   0.986   3.490
 1011TIP3    H2 2979   5.900   0.893   3.371
 1012TIP3   OH2 2980   5.509   1.508   5.222
 1012TIP3    H1 2981   5.487   1.601   5.221
 1012TIP3    H2 2982   5.592   1.503   5.270
 1013TIP3   OH2 2983   6.853   6.990   5.808
 1013TIP3    H1 2984   6.856   7.011   5.902
 1013TIP3    H2 2985   6.852   6.895   5.805
 1014TIP3   OH2 2986   0.964   3.400   4.662
 1014TIP3    H1 2987   1.030   3.443   4.716
 1014TIP3    H2 2988   0.881   3.421   4.704
 1015TIP3   OH2 2989   1.592   6.304   6.492
 1015TIP3    H1 2990   1.682   6.274   6.507
 1015TIP3    H2 2991   1.585   6.385   6.543
 1016TIP3   OH2 2992   0.942   7.113   6.621
 1016TIP3    H1 2993   0.910   7.179   6.683
 1016TIP3    H2 2994   0.896   7.134   6.540
 1017TIP3   OH2 2995   5.756   5.073   3.574
 1017TIP3    H1 2996   5.674   5.115   3.549
 1017TIP3    H2 2997   5.803   5.140   3.624
 1018TIP3   OH2 2998   5.070   2.065   4.269
 1018TIP3    H1 2999   5.081   2.079   4.175
 1018TIP3    H2 3000   4.975   2.053   4.280
 1019TIP3   OH2 3001   6.116   2.488   4.851
 1019TIP3    H1 3002   6.113   2.458   4.941
 1019TIP3    H2 3003   6.170   2.423   4.805
 1020TIP3   OH2 3004   6.050   6.084   4.178
 1020TIP3    H1 3005   6.059   6.134   4.259
 1020TIP3    H2 3006   5.969   6.034   4.189
 1021TIP3   OH2 3007   3.611   1.276   1.606
 1021TIP3    H1 3008   3.637   1.332   1.533
 1021TIP3    H2 3009   3.525   1.243   1.581
 1022TIP3   OH2 3010   3.698   3.002   2.012
 1022TIP3    H1 3011   3.604   3.019   2.004
 1022TIP3    H2 3012   3.735   3.032   1.929
 1023TIP3   OH2 3013   3.702   7.806   4.806
 1023TIP3    H1 3014   3.702   7.710   4.811
 1023TIP3    H2 3015   3.636   7.833   4.869
 1024TIP3   OH2 3016   0.559   1.341   0.008
 1024TIP3    H1 3017   0.574   1.355   0.101
 1024TIP3    H2 3018   0.520   1.422  -0.023
 1025TIP3   OH2 3019   2.706   0.416   5.928
 1025TIP3    H1 3020   2.722   0.340   5.872
 1025TIP3    H2 3021   2.613   0.432   5.920
 1026TIP3   OH2 3022   0.175   0.583   5.221
 1026TIP3    H1 3023   0.112   0.551   5.156
 1026TIP3    H2 3024   0.252   0.526   5.210
 1027TIP3   OH2 3025   1.714   1.272   1.044
 1027TIP3    H1 3026   1.744   1.363   1.049
 1027TIP3    H2 3027   1.794   1.220   1.042
 1028TIP3   OH2 3028   2.001   0.696   6.386
 1028TIP3    H1 3029   1.974   0.618   6.436
 1028TIP3    H2 3030   1.930   0.708   6.322
 1029TIP3   OH2 3031   5.161   4.351   2.602
 1029TIP3    H1 3032   5.142   4.442   2.626
 1029TIP3    H2 3033   5.254   4.351   2.580
 1030TIP3   OH2 3034   1.334   5.096   2.293
 1030TIP3    H1 3035   1.394   5.115   2.366
 1030TIP3    H2 3036   1.309   5.004   2.305
 1031TIP3   OH2 3037   5.848   6.687   2.205
 1031TIP3    H1 3038   5.940   6.713   2.216
 1031TIP3    H2 3039   5.806   6.765   2.169
 1032TIP3   OH2 3040   2.504   7.035   1.326
 1032TIP3    H1 3041   2.532   6.949   1.357
 1032TIP3    H2 3042   2.584   7.077   1.294
 1033TIP3   OH2 3043   3.951   3.549   0.838
 1033TIP3    H1 3044   3.984   3.552   0.749
 1033TIP3    H2 3045   3.861   3.582   0.832
 1034TIP3   OH2 3046   0.446   3.919   1.345
 1034TIP3    H1 3047   0.531   3.890   1.378
 1034TIP3    H2 3048   0.449   4.014   1.352
 1035TIP3   OH2 3049   3.702   1.865   4.410
 1035TIP3    H1 3050   3.748   1.945   4.385
 1035TIP3    H2 3051   3.679   1.879   4.502
 1036TIP3   OH2 3052   6.649   2.760   2.855
 1036TIP3    H1 3053   6.728   2.787   2.808
 1036TIP3    H2 3054   6.591   2.836   2.849
 1037TIP3   OH2 3055   8.106   7.303   2.113
 1037TIP3    H1 3056   8.161   7.354   2.054
 1037TIP3    H2 3057   8.166   7.243   2.158
 1038TIP3   OH2 3058   0.641   7.027   4.225
 1038TIP3    H1 3059   0.581   6.964   4.185
 1038TIP3    H2 3060   0.722   6.979   4.237
 1039TIP3   OH2 3061   5.592   0.784   5.895
 1039TIP3    H1 3062   5.526   0.831   5.843
 1039TIP3    H2 3063   5.616   0.846   5.964
 1040TIP3   OH2 3064   4.936   2.954   5.636
 1040TIP3    H1 3065   4.910   2.988   5.722
 1040TIP3    H2 3066   4.964   2.864   5.653
 1041TIP3   OH2 3067   2.564   3.891   0.846
 1041TIP3    H1 3068   2.627   3.949   0.802
 1041TIP3    H2 3069   2.502   3.867   0.777
 1042TIP3   OH2 3070   6.060   7.810   1.513
 1042TIP3    H1 3071   6.062   7.905   1.523
 1042TIP3    H2 3072   5.967   7.787   1.514
 1043TIP3   OH2 3073   2.455   3.367   2.716
 1043TIP3    H1 3074   2.425   3.435   2.656
 1043TIP3    H2 3075   2.536   3.334   2.677
 1044TIP3   OH2 3076   0.747   3.087   6.089
 1044TIP3    H1 3077   0.678   3.050   6.035
 1044TIP3    H2 3078   0.722   3.178   6.102
 1045TIP3   OH2 3079   7.567   3.171   2.397
 1045TIP3    H1 3080   7.557   3.266   2.390
 1045TIP3    H2 3081   7.641   3.159   2.456
 1046TIP3   OH2 3082   3.441   0.647   6.490
 1046TIP3    H1 3083   3.498   0.659   6.415
 1046TIP3    H2 3084   3.439   0.553   6.505
 1047TIP3   OH2 3085   7.037   3.964   3.045
 1047TIP3    H1 3086   6.984   3.965   2.965
 1047TIP3    H2 3087   7.002   4.035   3.098
 1048TIP3   OH2 3088   6.190   3.180   3.466
 1048TIP3    H1 3089   6.221   3.095   3.496
 1048TIP3    H2 3090   6.095   3.169   3.456
 1049TIP3   OH2 3091   5.813   2.383   1.523
 1049TIP3    H1 3092   5.884   2.365   1.585
 1049TIP3    H2 3093   5.841   2.342   1.441
 1050TIP3   OH2 3094   2.977   3.359   5.858
 1050TIP3    H1 3095   2.909   3.394   5.800
 1050TIP3    H2 3096   2.937   3.360   5.945
 1051TIP3   OH2 3097   7.439   1.630   1.536
 1051TIP3    H1 3098   7.390   1.650   1.616
 1051TIP3    H2 3099   7.486   1.549   1.556
 1052TIP3   OH2 3100   0.153   5.001   5.417
 1052TIP3    H1 3101   0.135   4.974   5.507
 1052TIP3    H2 3102   0.248   5.003   5.411
 1053TIP3   OH2 3103   8.144   5.746   2.798
 1053TIP3    H1 3104   8.092   5.677   2.756
 1053TIP3    H2 3105   8.223   5.700   2.828
 1054TIP3   OH2 3106   5.473   3.435   6.123
 1054TIP3    H1 3107   5.522   3.516   6.139
 1054TIP3    H2 3108   5.381   3.460   6.134
 1055TIP3   OH2 3109   1.951   0.464   5.976
 1055TIP3    H1 3110   1.862   0.477   5.943
 1055TIP3    H2 3111   1.938   0.421   6.061
 1056TIP3   OH2 3112   2.540   2.292   5.840
 1056TIP3    H1 3113   2.542   2.207   5.884
 1056TIP3    H2 3114   2.626   2.300   5.799
 1057TIP3   OH2 3115   5.054   5.089   3.142
 1057TIP3    H1 3116   5.023   5.024   3.205
 1057TIP3    H2 3117   5.126   5.047   3.097
 1058TIP3   OH2 3118   2.687   0.095   0.239
 1058TIP3    H1 3119   2.765   0.039   0.236
 1058TIP3    H2 3120   2.676   0.127   0.150
 1059TIP3   OH2 3121   7.609   1.345   5.332
 1059TIP3    H1 3122   7.519   1.379   5.332
 1059TIP3    H2 3123   7.616   1.296   5.414
 1060TIP3   OH2 3124   5.509   1.378   5.758
 1060TIP3    H1 3125   5.564   1.324   5.701
 1060TIP3    H2 3126   5.490   1.322   5.833
 1061TIP3   OH2 3127   2.300   2.801   0.736
 1061TIP3    H1 3128   2.367   2.865   0.715
 1061TIP3    H2 3129   2.348   2.724   0.766
 1062TIP3   OH2 3130   4.309   0.230   2.927
 1062TIP3    H1 3131   4.302   0.251   2.833
 1062TIP3    H2 3132   4.218   0.233   2.958
 1063TIP3   OH2 3133   7.016   1.259   2.098
 1063TIP3    H1 3134   6.982   1.216   2.020
 1063TIP3    H2 3135   6.947   1.321   2.123
 1064TIP3   OH2 3136   4.329   2.964   4.395
 1064TIP3    H1 3137   4.244   2.987   4.359
 1064TIP3    H2 3138   4.375   2.922   4.322
 1065TIP3   OH2 3139   6.952   0.988   5.929
 1065TIP3    H1 3140   7.034   1.005   5.975
 1065TIP3    H2 3141   6.891   0.963   5.998
 1066TIP3   OH2 3142   0.841   6.665   4.607
 1066TIP3    H1 3143   0.747   6.678   4.595
 1066TIP3    H2 3144   0.851   6.636   4.697
 1067TIP3   OH2 3145   4.115   2.354   2.822
 1067TIP3    H1 3146   4.062   2.412   2.877
 1067TIP3    H2 3147   4.195   2.403   2.805
 1068TIP3   OH2 3148   1.565   1.264   5.722
 1068TIP3    H1 3149   1.634   1.323   5.692
 1068TIP3    H2 3150   1.549   1.206   5.648
 1069TIP3   OH2 3151   5.586   5.584   6.109
 1069TIP3    H1 3152   5.593   5.644   6.035
 1069TIP3    H2 3153   5.677   5.558   6.128
 1070TIP3   OH2 3154   1.145   1.903   6.204
 1070TIP3    H1 3155   1.132   1.846   6.280
 1070TIP3    H2 3156   1.059   1.910   6.164
 1071TIP3   OH2 3157   2.990   4.466   3.091
 1071TIP3    H1 3158   3.022   4.521   3.020
 1071TIP3    H2 3159   2.895   4.468   3.083
 1072TIP3   OH2 3160   2.423   1.607   3.497
 1072TIP3    H1 3161   2.400   1.582   3.586
 1072TIP3    H2 3162   2.493   1.672   3.508
 1073TIP3   OH2 3163   4.178   5.525   0.841
 1073TIP3    H1 3164   4.083   5.531   0.828
 1073TIP3    H2 3165   4.190   5.529   0.936
 1074TIP3   OH2 3166   7.764   1.342   5.098
 1074TIP3    H1 3167   7.728   1.319   5.183
 1074TIP3    H2 3168   7.858   1.355   5.114
 1075TIP3   OH2 3169   1.934   0.453   2.652
 1075TIP3    H1 3170   2.023   0.422   2.666
 1075TIP3    H2 3171   1.940   0.513   2.578
 1076TIP3   OH2 3172   6.687   1.293   0.436
 1076TIP3    H1 3173   6.681   1.358   0.506
 1076TIP3    H2 3174   6.780   1.292   0.412
 1077TIP3   OH2 3175   1.228   7.459   2.554
 1077TIP3    H1 3176   1.239   7.368   2.528
 1077TIP3    H2 3177   1.294   7.473   2.622
 1078TIP3   OH2 3178   3.904   3.938   4.153
 1078TIP3    H1 3179   3.932   4.007   4.092
 1078TIP3    H2 3180   3.911   3.857   4.102
 1079TIP3   OH2 3181   7.694   5.007   2.498
 1079TIP3    H1 3182   7.668   4.925   2.456
 1079TIP3    H2 3183   7.635   5.073   2.461
 1080TIP3   OH2 3184   4.354   6.856   2.089
 1080TIP3    H1 3185   4.420   6.788   2.076
 1080TIP3    H2 3186   4.370   6.919   2.019
 1081TIP3   OH2 3187   3.377   0.283   5.475
 1081TIP3    H1 3188   3.363   0.213   5.538
 1081TIP3    H2 3189   3.396   0.360   5.528
 1082TIP3   OH2 3190   0.745   6.626   4.901
 1082TIP3    H1 3191   0.650   6.636   4.898
 1082TIP3    H2 3192   0.759   6.532   4.915
 1083TIP3   OH2 3193   5.508   4.327   0.583
 1083TIP3    H1 3194   5.531   4.419   0.595
 1083TIP3    H2 3195   5.577   4.293   0.525
 1084TIP3   OH2 3196   7.403   1.815   6.442
 1084TIP3    H1 3197   7.338   1.882   6.463
 1084TIP3    H2 3198   7.487   1.856   6.462
 1085TIP3   OH2 3199   1.743   3.340   0.001
 1085TIP3    H1 3200   1.700   3.393  -0.066
 1085TIP3    H2 3201   1.728   3.386   0.083
 1086TIP3   OH2 3202   3.811   1.782   5.060
 1086TIP3    H1 3203   3.838   1.870   5.035
 1086TIP3    H2 3204   3.823   1.730   4.980
 1087TIP3   OH2 3205   6.870   0.383   2.219
 1087TIP3    H1 3206   6.784   0.384   2.178
 1087TIP3    H2 3207   6.891   0.289   2.227
 1088TIP3   OH2 3208   6.664   5.840   2.704
 1088TIP3    H1 3209   6.743   5.787   2.696
 1088TIP3    H2 3210   6.643   5.838   2.798
 1089TIP3   OH2 3211   6.802   7.487   3.983
 1089TIP3    H1 3212   6.761   7.479   3.897
 1089TIP3    H2 3213   6.770   7.412   4.032
 1090TIP3   OH2 3214   1.127   5.398   2.690
 1090TIP3    H1 3215   1.162   5.310   2.672
 1090TIP3    H2 3216   1.083   5.423   2.609
 1091TIP3   OH2 3217   4.331   6.394   2.068
 1091TIP3    H1 3218   4.277   6.319   2.042
 1091TIP3    H2 3219   4.278   6.441   2.133
 1092TIP3   OH2 3220   0.934   2.235   0.413
 1092TIP3    H1 3221   0.960   2.181   0.488
 1092TIP3    H2 3222   0.843   2.210   0.396
 1093TIP3   OH2 3223   6.357   6.652   5.217
 1093TIP3    H1 3224   6.300   6.673   5.144
 1093TIP3    H2 3225   6.443   6.685   5.190
 1094TIP3   OH2 3226   1.058   1.582   6.615
 1094TIP3    H1 3227   1.100   1.496   6.614
 1094TIP3    H2 3228   1.127   1.642   6.641
 1095TIP3   OH2 3229   2.205   2.173   4.379
 1095TIP3    H1 3230   2.185   2.128   4.297
 1095TIP3    H2 3231   2.254   2.250   4.354
 1096TIP3   OH2 3232   5.755   1.127   0.825
 1096TIP3    H1 3233   5.694   1.053   0.823
 1096TIP3    H2 3234   5.836   1.093   0.787
 1097TIP3   OH2 3235   6.886   5.413   4.618
 1097TIP3    H1 3236   6.884   5.454   4.704
 1097TIP3    H2 3237   6.798   5.426   4.583
 1098TIP3   OH2 3238   3.840   4.159   3.270
 1098TIP3    H1 3239   3.844   4.071   3.308
 1098TIP3    H2 3240   3.920   4.202   3.303
 1099TIP3   OH2 3241   1.711   2.377   1.232
 1099TIP3    H1 3242   1.742   2.434   1.161
 1099TIP3    H2 3243   1.619   2.358   1.209
 1100TIP3   OH2 3244   4.123   0.556   0.684
 1100TIP3    H1 3245   4.066   0.553   0.761
 1100TIP3    H2 3246   4.096   0.636   0.638
 1101TIP3   OH2 3247   7.335   4.129   2.178
 1101TIP3    H1 3248   7.272   4.175   2.233
 1101TIP3    H2 3249   7.336   4.178   2.096
 1102TIP3   OH2 3250   6.592   3.498   0.228
 1102TIP3    H1 3251   6.546   3.489   0.144
 1102TIP3    H2 3252   6.556   3.577   0.267
 1103TIP3   OH2 3253   1.916   5.848   5.558
 1103TIP3    H1 3254   1.980   5.910   5.523
 1103TIP3    H2 3255   1.948   5.762   5.529
 1104TIP3   OH2 3256   0.559   5.346   1.700
 1104TIP3    H1 3257   0.507   5.369   1.623
 1104TIP3    H2 3258   0.494   5.331   1.769
 1105TIP3   OH2 3259   4.314   6.171   6.183
 1105TIP3    H1 3260   4.295   6.251   6.232
 1105TIP3    H2 3261   4.403   6.147   6.210
 1106TIP3   OH2 3262   5.086   2.082   1.052
 1106TIP3    H1 3263   5.091   2.080   0.956
 1106TIP3    H2 3264   5.067   1.991   1.076
 1107TIP3   OH2 3265   6.550   4.089   1.142
 1107TIP3    H1 3266   6.549   4.182   1.163
 1107TIP3    H2 3267   6.517   4.084   1.052
 1108TIP3   OH2 3268   7.374   6.219   6.289
 1108TIP3    H1 3269   7.346   6.282   6.356
 1108TIP3    H2 3270   7.468   6.211   6.301
 1109TIP3   OH2 3271   3.212   6.599   4.504
 1109TIP3    H1 3272   3.293   6.558   4.473
 1109TIP3    H2 3273   3.207   6.575   4.597
 1110TIP3   OH2 3274   4.093   3.410   0.516
 1110TIP3    H1 3275   4.179   3.450   0.502
 1110TIP3    H2 3276   4.086   3.342   0.449
 1111TIP3   OH2 3277   4.394   1.657   0.057
 1111TIP3    H1 3278   4.426   1.570   0.081
 1111TIP3    H2 3279   4.394   1.656  -0.039
 1112TIP3   OH2 3280   3.017   2.899   5.569
 1112TIP3    H1 3281   2.955   2.963   5.604
 1112TIP3    H2 3282   3.103   2.939   5.583
 1113TIP3   OH2 3283   6.456   6.403   2.450
 1113TIP3    H1 3284   6.461   6.446   2.365
 1113TIP3    H2 3285   6.501   6.463   2.510
 1114TIP3   OH2 3286   1.591   2.336   5.448
 1114TIP3    H1 3287   1.554   2.249   5.443
 1114TIP3    H2 3288   1.686   2.322   5.458
 1115TIP3   OH2 3289   6.263   0.736   4.329
 1115TIP3    H1 3290   6.194   0.679   4.364
 1115TIP3    H2 3291   6.221   0.781   4.255
 1116TIP3   OH2 3292   6.978   6.968   2.190
 1116TIP3    H1 3293   7.000   7.058   2.165
 1116TIP3    H2 3294   6.935   6.931   2.113
 1117TIP3   OH2 3295   7.064   1.605   2.503
 1117TIP3    H1 3296   7.120   1.602   2.581
 1117TIP3    H2 3297   6.978   1.579   2.534
 1118TIP3   OH2 3298   1.920   7.698   1.337
 1118TIP3    H1 3299   1.973   7.628   1.298
 1118TIP3    H2 3300   1.830   7.666   1.331
 1119TIP3   OH2 3301   4.602   5.610   0.883
 1119TIP3    H1 3302   4.593   5.668   0.958
 1119TIP3    H2 3303   4.579   5.524   0.916
 1120TIP3   OH2 3304   4.601   4.573   3.602
 1120TIP3    H1 3305   4.658   4.553   3.676
 1120TIP3    H2 3306   4.621   4.664   3.580
 1121TIP3   OH2 3307   0.852   6.328   3.714
 1121TIP3    H1 3308   0.919   6.308   3.780
 1121TIP3    H2 3309   0.769   6.312   3.759
 1122TIP3   OH2 3310   5.900   2.279   3.450
 1122TIP3    H1 3311   5.968   2.224   3.411
 1122TIP3    H2 3312   5.826   2.274   3.390
 1123TIP3   OH2 3313   6.064   7.100   5.229
 1123TIP3    H1 3314   5.989   7.070   5.178
 1123TIP3    H2 3315   6.060   7.050   5.310
 1124TIP3   OH2 3316   2.956   0.105   5.553
 1124TIP3    H1 3317   2.878   0.083   5.502
 1124TIP3    H2 3318   2.987   0.187   5.515
 1125TIP3   OH2 3319   7.262   3.705   3.142
 1125TIP3    H1 3320   7.216   3.693   3.226
 1125TIP3    H2 3321   7.343   3.656   3.153
 1126TIP3   OH2 3322   0.406   0.137   4.234
 1126TIP3    H1 3323   0.373   0.226   4.221
 1126TIP3    H2 3324   0.426   0.132   4.327
 1127TIP3   OH2 3325   2.339   7.667   4.615
 1127TIP3    H1 3326   2.367   7.664   4.707
 1127TIP3    H2 3327   2.247   7.638   4.617
 1128TIP3   OH2 3328   5.916   6.565   6.494
 1128TIP3    H1 3329   5.979   6.540   6.560
 1128TIP3    H2 3330   5.969   6.592   6.418
 1129TIP3   OH2 3331   0.146   2.270   6.066
 1129TIP3    H1 3332   0.103   2.234   5.989
 1129TIP3    H2 3333   0.209   2.204   6.092
 1130TIP3   OH2 3334   7.783   6.427   2.814
 1130TIP3    H1 3335   7.858   6.421   2.873
 1130TIP3    H2 3336   7.771   6.337   2.783
 1131TIP3   OH2 3337   0.495   3.503   6.079
 1131TIP3    H1 3338   0.465   3.428   6.027
 1131TIP3    H2 3339   0.439   3.575   6.050
 1132TIP3   OH2 3340   3.566   0.214   6.197
 1132TIP3    H1 3341   3.540   0.195   6.287
 1132TIP3    H2 3342   3.491   0.188   6.144
 1133TIP3   OH2 3343   4.841   5.641   3.701
 1133TIP3    H1 3344   4.922   5.603   3.666
 1133TIP3    H2 3345   4.789   5.566   3.730
 1134TIP3   OH2 3346   3.498   4.384   1.942
 1134TIP3    H1 3347   3.435   4.338   1.887
 1134TIP3    H2 3348   3.474   4.361   2.032
 1135TIP3   OH2 3349   5.481   3.521   4.214
 1135TIP3    H1 3350   5.421   3.540   4.142
 1135TIP3    H2 3351   5.565   3.504   4.172
 1136TIP3   OH2 3352   1.023   0.235   6.428
 1136TIP3    H1 3353   1.089   0.229   6.497
 1136TIP3    H2 3354   1.011   0.145   6.398
 1137TIP3   OH2 3355   4.202   0.106   4.967
 1137TIP3    H1 3356   4.295   0.085   4.976
 1137TIP3    H2 3357   4.162   0.069   5.045
 1138TIP3   OH2 3358   4.943   4.534   0.402
 1138TIP3    H1 3359   4.962   4.628   0.406
 1138TIP3    H2 3360   5.023   4.494   0.369
 1139TIP3   OH2 3361   7.388   4.742   3.743
 1139TIP3    H1 3362   7.369   4.656   3.781
 1139TIP3    H2 3363   7.481   4.739   3.723
 1140TIP3   OH2 3364   6.329   1.623   6.165
 1140TIP3    H1 3365   6.316   1.529   6.181
 1140TIP3    H2 3366   6.263   1.666   6.219
 1141TIP3   OH2 3367   5.256   5.900   0.599
 1141TIP3    H1 3368   5.239   5.916   0.507
 1141TIP3    H2 3369   5.340   5.942   0.616
 1142TIP3   OH2 3370   8.166   3.019   4.561
 1142TIP3    H1 3371   8.103   3.089   4.577
 1142TIP3    H2 3372   8.143   2.984   4.474
 1143TIP3   OH2 3373   2.047   0.250   0.393
 1143TIP3    H1 3374   2.043   0.186   0.321
 1143TIP3    H2 3375   2.134   0.238   0.431
 1144TIP3   OH2 3376   8.084   3.913   4.558
 1144TIP3    H1 3377   8.041   3.962   4.489
 1144TIP3    H2 3378   8.140   3.977   4.602
 1145TIP3   OH2 3379   6.839   7.639   6.265
 1145TIP3    H1 3380   6.785   7.715   6.244
 1145TIP3    H2 3381   6.790   7.593   6.333
 1146TIP3   OH2 3382   6.637   0.186   0.741
 1146TIP3    H1 3383   6.625   0.098   0.777
 1146TIP3    H2 3384   6.701   0.227   0.800
 1147TIP3   OH2 3385   2.444   3.601   3.972
 1147TIP3    H1 3386   2.507   3.549   4.023
 1147TIP3    H2 3387   2.395   3.537   3.920
 1148TIP3   OH2 3388   4.403   3.948   3.165
 1148TIP3    H1 3389   4.477   3.893   3.139
 1148TIP3    H2 3390   4.435   4.038   3.155
 1149TIP3   OH2 3391   2.375   5.359   2.877
 1149TIP3    H1 3392   2.432   5.321   2.943
 1149TIP3    H2 3393   2.301   5.299   2.870
 1150TIP3   OH2 3394   2.927   2.661   0.309
 1150TIP3    H1 3395   2.943   2.642   0.216
 1150TIP3    H2 3396   2.916   2.756   0.313
 1151TIP3   OH2 3397   2.906   2.400   1.119
 1151TIP3    H1 3398   2.996   2.412   1.089
 1151TIP3    H2 3399   2.884   2.310   1.094
 1152TIP3   OH2 3400   4.517   5.667   4.105
 1152TIP3    H1 3401   4.589   5.682   4.167
 1152TIP3    H2 3402   4.542   5.717   4.028
 1153TIP3   OH2 3403   1.342   3.581   4.139
 1153TIP3    H1 3404   1.344   3.506   4.199
 1153TIP3    H2 3405   1.364   3.544   4.054
 1154TIP3   OH2 3406   3.775   3.610   6.133
 1154TIP3    H1 3407   3.815   3.674   6.074
 1154TIP3    H2 3408   3.764   3.532   6.079
 1155TIP3   OH2 3409   2.762   0.670   3.752
 1155TIP3    H1 3410   2.670   0.696   3.764
 1155TIP3    H2 3411   2.774   0.669   3.657
 1156TIP3   OH2 3412   1.560   2.843   3.156
 1156TIP3    H1 3413   1.490   2.797   3.203
 1156TIP3    H2 3414   1.528   2.849   3.066
 1157TIP3   OH2 3415   4.654   1.006   2.894
 1157TIP3    H1 3416   4.580   0.960   2.855
 1157TIP3    H2 3417   4.718   1.015   2.823
 1158TIP3   OH2 3418   1.809   1.068   6.438
 1158TIP3    H1 3419   1.781   0.980   6.463
 1158TIP3    H2 3420   1.811   1.117   6.520
 1159TIP3   OH2 3421   3.414   4.825   6.007
 1159TIP3    H1 3422   3.332   4.869   6.028
 1159TIP3    H2 3423   3.424   4.837   5.912
 1160TIP3   OH2 3424   6.065   1.747   6.243
 1160TIP3    H1 3425   6.105   1.818   6.293
 1160TIP3    H2 3426   6.020   1.693   6.308
 1161TIP3   OH2 3427   6.320   7.640   4.446
 1161TIP3    H1 3428   6.319   7.640   4.351
 1161TIP3    H2 3429   6.262   7.568   4.471
 1162TIP3   OH2 3430   4.565   0.193   6.348
 1162TIP3    H1 3431   4.519   0.110   6.363
 1162TIP3    H2 3432   4.628   0.199   6.420
 1163TIP3   OH2 3433   1.401   0.036   5.164
 1163TIP3    H1 3434   1.336  -0.022   5.124
 1163TIP3    H2 3435   1.473   0.039   5.101
 1164TIP3   OH2 3436   3.586   4.372   3.367
 1164TIP3    H1 3437   3.670   4.375   3.321
 1164TIP3    H2 3438   3.548   4.459   3.356
 1165TIP3   OH2 3439   6.818   1.214   1.216
 1165TIP3    H1 3440   6.880   1.206   1.288
 1165TIP3    H2 3441   6.824   1.129   1.171
 1166TIP3   OH2 3442   8.272   0.833   0.498
 1166TIP3    H1 3443   8.299   0.867   0.583
 1166TIP3    H2 3444   8.330   0.876   0.435
 1167TIP3   OH2 3445   5.556   1.655   1.391
 1167TIP3    H1 3446   5.612   1.630   1.318
 1167TIP3    H2 3447   5.616   1.665   1.465
 1168TIP3   OH2 3448   7.852   3.774   5.482
 1168TIP3    H1 3449   7.794   3.844   5.454
 1168TIP3    H2 3450   7.884   3.736   5.400
 1169TIP3   OH2 3451   4.899   0.683   2.802
 1169TIP3    H1 3452   4.875   0.637   2.882
 1169TIP3    H2 3453   4.840   0.759   2.800
 1170TIP3   OH2 3454   6.050   6.985   1.793
 1170TIP3    H1 3455   6.077   6.895   1.813
 1170TIP3    H2 3456   6.069   6.995   1.699
 1171TIP3   OH2 3457   4.602   5.927   3.260
 1171TIP3    H1 3458   4.645   5.842   3.246
 1171TIP3    H2 3459   4.630   5.953   3.348
 1172TIP3   OH2 3460   1.300   7.499   1.892
 1172TIP3    H1 3461   1.345   7.461   1.816
 1172TIP3    H2 3462   1.312   7.435   1.962
 1173TIP3   OH2 3463   2.608   6.292   3.322
 1173TIP3    H1 3464   2.701   6.289   3.301
 1173TIP3    H2 3465   2.592   6.211   3.370
 1174TIP3   OH2 3466   5.135   7.322   6.480
 1174TIP3    H1 3467   5.058   7.345   6.427
 1174TIP3    H2 3468   5.110   7.343   6.570
 1175TIP3   OH2 3469   6.864   1.720   3.187
 1175TIP3    H1 3470   6.837   1.663   3.115
 1175TIP3    H2 3471   6.951   1.752   3.161
 1176TIP3   OH2 3472   0.818   5.619   2.800
 1176TIP3    H1 3473   0.836   5.622   2.706
 1176TIP3    H2 3474   0.749   5.684   2.814
 1177TIP3   OH2 3475   1.852   1.803   1.324
 1177TIP3    H1 3476   1.874   1.804   1.231
 1177TIP3    H2 3477   1.836   1.711   1.344
 1178TIP3   OH2 3478   4.050   1.076   4.794
 1178TIP3    H1 3479   3.995   1.152   4.773
 1178TIP3    H2 3480   4.139   1.107   4.777
 1179TIP3   OH2 3481   7.719   1.957   2.216
 1179TIP3    H1 3482   7.781   1.968   2.289
 1179TIP3    H2 3483   7.710   2.045   2.179
 1180TIP3   OH2 3484   3.296   2.276   6.435
 1180TIP3    H1 3485   3.378   2.255   6.480
 1180TIP3    H2 3486   3.234   2.209   6.464
 1181TIP3   OH2 3487   7.627   4.367   5.881
 1181TIP3    H1 3488   7.649   4.414   5.961
 1181TIP3    H2 3489   7.601   4.435   5.819
 1182TIP3   OH2 3490   1.925   2.970   3.871
 1182TIP3    H1 3491   1.885   2.903   3.927
 1182TIP3    H2 3492   1.967   3.030   3.932
 1183TIP3   OH2 3493   5.155   2.995   1.724
 1183TIP3    H1 3494   5.222   2.927   1.722
 1183TIP3    H2 3495   5.152   3.023   1.816
 1184TIP3   OH2 3496   4.473   5.722   6.615
 1184TIP3    H1 3497   4.487   5.728   6.710
 1184TIP3    H2 3498   4.562   5.725   6.578
 1185TIP3   OH2 3499   0.484   3.161   2.724
 1185TIP3    H1 3500   0.560   3.194   2.676
 1185TIP3    H2 3501   0.440   3.240   2.757
 1186TIP3   OH2 3502   7.009   5.245   3.307
 1186TIP3    H1 3503   6.985   5.244   3.214
 1186TIP3    H2 3504   6.930   5.215   3.352
 1187TIP3   OH2 3505   1.258   3.117   0.324
 1187TIP3    H1 3506   1.286   3.159   0.406
 1187TIP3    H2 3507   1.329   3.134   0.263
 1188TIP3   OH2 3508   4.440   7.286   2.550
 1188TIP3    H1 3509   4.369   7.222   2.550
 1188TIP3    H2 3510   4.513   7.241   2.508
 1189TIP3   OH2 3511   4.802   0.406   5.895
 1189TIP3    H1 3512   4.745   0.340   5.934
 1189TIP3    H2 3513   4.819   0.374   5.806
 1190TIP3   OH2 3514   3.733   1.665   4.229
 1190TIP3    H1 3515   3.770   1.736   4.177
 1190TIP3    H2 3516   3.712   1.705   4.313
 1191TIP3   OH2 3517   2.873   1.168   4.118
 1191TIP3    H1 3518   2.811   1.096   4.106
 1191TIP3    H2 3519   2.827   1.229   4.176
 1192TIP3   OH2 3520   7.632   3.780   6.580
 1192TIP3    H1 3521   7.695   3.711   6.559
 1192TIP3    H2 3522   7.614   3.768   6.673
 1193TIP3   OH2 3523   6.573   1.624   4.773
 1193TIP3    H1 3524   6.559   1.541   4.727
 1193TIP3    H2 3525   6.541   1.607   4.862
 1194TIP3   OH2 3526   7.806   7.669   2.182
 1194TIP3    H1 3527   7.839   7.709   2.101
 1194TIP3    H2 3528   7.859   7.590   2.194
 1195TIP3   OH2 3529   6.515   0.168   1.793
 1195TIP3    H1 3530   6.523   0.167   1.698
 1195TIP3    H2 3531   6.520   0.260   1.818
 1196TIP3   OH2 3532   0.443   5.450   2.438
 1196TIP3    H1 3533   0.504   5.406   2.497
 1196TIP3    H2 3534   0.363   5.458   2.489
 1197TIP3   OH2 3535   1.329   1.347   3.100
 1197TIP3    H1 3536   1.273   1.303   3.164
 1197TIP3    H2 3537   1.397   1.283   3.080
 1198TIP3   OH2 3538   4.708   2.497   1.676
 1198TIP3    H1 3539   4.756   2.576   1.700
 1198TIP3    H2 3540   4.737   2.476   1.587
 1199TIP3   OH2 3541   2.048   2.887   6.386
 1199TIP3    H1 3542   2.096   2.822   6.437
 1199TIP3    H2 3543   1.965   2.898   6.433
 1200TIP3   OH2 3544   2.460   4.052   3.658
 1200TIP3    H1 3545   2.514   3.973   3.661
 1200TIP3    H2 3546   2.514   4.119   3.701
 1201TIP3   OH2 3547   6.530   1.335   4.653
 1201TIP3    H1 3548   6.625   1.339   4.646
 1201TIP3    H2 3549   6.504   1.265   4.594
 1202TIP3   OH2 3550   2.139   3.217   4.449
 1202TIP3    H1 3551   2.093   3.297   4.421
 1202TIP3    H2 3552   2.073   3.148   4.442
 1203TIP3   OH2 3553   2.915   0.677   3.350
 1203TIP3    H1 3554   2.980   0.747   3.351
 1203TIP3    H2 3555   2.873   0.684   3.264
 1204TIP3   OH2 3556   0.553   1.570   1.245
 1204TIP3    H1 3557   0.457   1.567   1.242
 1204TIP3    H2 3558   0.573   1.663   1.259
 1205TIP3   OH2 3559   5.076   3.798   3.372
 1205TIP3    H1 3560   4.988   3.828   3.394
 1205TIP3    H2 3561   5.133   3.849   3.429
 1206TIP3   OH2 3562   6.483   2.223   4.631
 1206TIP3    H1 3563   6.481   2.139   4.585
 1206TIP3    H2 3564   6.558   2.216   4.689
 1207TIP3   OH2 3565   0.304   6.394   5.196
 1207TIP3    H1 3566   0.312   6.462   5.262
 1207TIP3    H2 3567   0.394   6.382   5.163
 1208TIP3   OH2 3568   1.185   5.207   1.824
 1208TIP3    H1 3569   1.105   5.159   1.803
 1208TIP3    H2 3570   1.214   5.171   1.908
 1209TIP3   OH2 3571   5.557   6.870   5.176
 1209TIP3    H1 3572   5.618   6.876   5.249
 1209TIP3    H2 3573   5.545   6.961   5.147
 1210TIP3   OH2 3574   3.280   7.176   3.361
 1210TIP3    H1 3575   3.189   7.149   3.344
 1210TIP3    H2 3576   3.273   7.270   3.380
 1211TIP3   OH2 3577   6.360   3.773   2.807
 1211TIP3    H1 3578   6.436   3.795   2.860
 1211TIP3    H2 3579   6.384   3.691   2.763
 1212TIP3   OH2 3580   3.481   5.951   4.509
 1212TIP3    H1 3581   3.450   5.903   4.432
 1212TIP3    H2 3582   3.495   5.883   4.575
 1213TIP3   OH2 3583   4.827   0.561   3.029
 1213TIP3    H1 3584   4.876   0.519   3.100
 1213TIP3    H2 3585   4.775   0.491   2.990
 1214TIP3   OH2 3586   0.582   2.774   1.660
 1214TIP3    H1 3587   0.540   2.803   1.741
 1214TIP3    H2 3588   0.517   2.792   1.592
 1215TIP3   OH2 3589   2.329   6.750   2.451
 1215TIP3    H1 3590   2.330   6.658   2.476
 1215TIP3    H2 3591   2.287   6.794   2.524
 1216TIP3   OH2 3592   5.713   2.155   4.266
 1216TIP3    H1 3593   5.745   2.182   4.180
 1216TIP3    H2 3594   5.748   2.067   4.278
 1217TIP3   OH2 3595   3.411   6.620   1.581
 1217TIP3    H1 3596   3.450   6.684   1.523
 1217TIP3    H2 3597   3.485   6.573   1.619
 1218TIP3   OH2 3598   7.445   3.455   4.572
 1218TIP3    H1 3599   7.523   3.470   4.518
 1218TIP3    H2 3600   7.374   3.496   4.523
 1219TIP3   OH2 3601   6.236   3.681   3.685
 1219TIP3    H1 3602   6.295   3.757   3.681
 1219TIP3    H2 3603   6.239   3.644   3.597
 1220TIP3   OH2 3604   1.065   5.144   5.214
 1220TIP3    H1 3605   1.128   5.213   5.192
 1220TIP3    H2 3606   1.108   5.063   5.189
 1221TIP3   OH2 3607   5.748   5.918   3.274
 1221TIP3    H1 3608   5.752   5.955   3.362
 1221TIP3    H2 3609   5.835   5.882   3.259
 1222TIP3   OH2 3610   4.691   3.360   1.011
 1222TIP3    H1 3611   4.783   3.378   1.030
 1222TIP3    H2 3612   4.644   3.430   1.055
 1223TIP3   OH2 3613   6.217   6.782   6.265
 1223TIP3    H1 3614   6.292   6.758   6.319
 1223TIP3    H2 3615   6.143   6.782   6.326
 1224TIP3   OH2 3616   0.452   7.742   3.172
 1224TIP3    H1 3617   0.533   7.754   3.222
 1224TIP3    H2 3618   0.453   7.812   3.107
 1225TIP3   OH2 3619   8.232   5.952   6.238
 1225TIP3    H1 3620   8.233   6.012   6.313
 1225TIP3    H2 3621   8.323   5.922   6.231
 1226TIP3   OH2 3622   2.461   5.793   5.316
 1226TIP3    H1 3623   2.388   5.851   5.338
 1226TIP3    H2 3624   2.538   5.850   5.314
 1227TIP3   OH2 3625   8.048   0.851   4.894
 1227TIP3    H1 3626   8.063   0.896   4.978
 1227TIP3    H2 3627   7.953   0.855   4.882
 1228TIP3   OH2 3628   7.166   5.312   6.590
 1228TIP3    H1 3629   7.192   5.227   6.625
 1228TIP3    H2 3630   7.070   5.310   6.590
 1229TIP3   OH2 3631   2.047   4.676   2.804
 1229TIP3    H1 3632   2.029   4.595   2.756
 1229TIP3    H2 3633   2.084   4.647   2.887
 1230TIP3   OH2 3634   6.519   7.673   0.256
 1230TIP3    H1 3635   6.518   7.763   0.223
 1230TIP3    H2 3636   6.431   7.641   0.238
 1231TIP3   OH2 3637   3.614   4.355   6.259
 1231TIP3    H1 3638   3.653   4.268   6.258
 1231TIP3    H2 3639   3.670   4.407   6.201
 1232TIP3   OH2 3640   0.566   2.545   4.249
 1232TIP3    H1 3641   0.536   2.496   4.172
 1232TIP3    H2 3642   0.570   2.636   4.219
 1233TIP3   OH2 3643   6.040   0.803   6.471
 1233TIP3    H1 3644   6.116   0.793   6.528
 1233TIP3    H2 3645   6.016   0.714   6.447
 1234TIP3   OH2 3646   0.626   5.395   2.854
 1234TIP3    H1 3647   0.691   5.460   2.827
 1234TIP3    H2 3648   0.630   5.396   2.950
 1235TIP3   OH2 3649   5.481   1.749   0.204
 1235TIP3    H1 3650   5.565   1.785   0.176
 1235TIP3    H2 3651   5.502   1.662   0.236
 1236TIP3   OH2 3652   3.853   7.107   2.756
 1236TIP3    H1 3653   3.824   7.066   2.674
 1236TIP3    H2 3654   3.860   7.200   2.734
 1237TIP3   OH2 3655   1.744   0.535   0.380
 1237TIP3    H1 3656   1.675   0.477   0.413
 1237TIP3    H2 3657   1.791   0.563   0.459
 1238TIP3   OH2 3658   8.040   1.294   0.961
 1238TIP3    H1 3659   7.981   1.329   1.028
 1238TIP3    H2 3660   8.036   1.359   0.890
 1239TIP3   OH2 3661   8.245   2.692   3.573
 1239TIP3    H1 3662   8.220   2.614   3.524
 1239TIP3    H2 3663   8.297   2.743   3.510
 1240TIP3   OH2 3664   5.475   2.069   3.563
 1240TIP3    H1 3665   5.490   1.983   3.601
 1240TIP3    H2 3666   5.406   2.055   3.498
 1241TIP3   OH2 3667   1.169   2.111   1.035
 1241TIP3    H1 3668   1.252   2.070   1.009
 1241TIP3    H2 3669   1.176   2.120   1.130
 1242TIP3   OH2 3670   5.543   3.808   1.454
 1242TIP3    H1 3671   5.522   3.714   1.454
 1242TIP3    H2 3672   5.497   3.844   1.529
 1243TIP3   OH2 3673   3.766   6.695   5.612
 1243TIP3    H1 3674   3.682   6.719   5.573
 1243TIP3    H2 3675   3.769   6.744   5.694
 1244TIP3   OH2 3676   2.629   2.026   6.470
 1244TIP3    H1 3677   2.556   1.981   6.513
 1244TIP3    H2 3678   2.610   2.119   6.483
 1245TIP3   OH2 3679   0.714   3.727   4.330
 1245TIP3    H1 3680   0.794   3.750   4.282
 1245TIP3    H2 3681   0.739   3.733   4.422
 1246TIP3   OH2 3682   2.448   1.330   5.110
 1246TIP3    H1 3683   2.522   1.331   5.171
 1246TIP3    H2 3684   2.470   1.397   5.045
 1247TIP3   OH2 3685   0.668   7.552   3.402
 1247TIP3    H1 3686   0.620   7.484   3.355
 1247TIP3    H2 3687   0.745   7.506   3.437
 1248TIP3   OH2 3688   4.338   0.738   2.493
 1248TIP3    H1 3689   4.302   0.665   2.443
 1248TIP3    H2 3690   4.421   0.705   2.527
 1249TIP3   OH2 3691   4.572   0.922   4.396
 1249TIP3    H1 3692   4.541   0.988   4.335
 1249TIP3    H2 3693   4.522   0.939   4.477
 1250TIP3   OH2 3694   1.380   5.989   5.899
 1250TIP3    H1 3695   1.461   5.939   5.901
 1250TIP3    H2 3696   1.406   6.080   5.916
 1251TIP3   OH2 3697   4.385   1.827   1.103
 1251TIP3    H1 3698   4.321   1.815   1.174
 1251TIP3    H2 3699   4.438   1.901   1.131
 1252TIP3   OH2 3700   3.158   3.557   6.376
 1252TIP3    H1 3701   3.168   3.590   6.466
 1252TIP3    H2 3702   3.169   3.463   6.384
 1253TIP3   OH2 3703   2.717   3.584   6.045
 1253TIP3    H1 3704   2.790   3.602   6.104
 1253TIP3    H2 3705   2.684   3.670   6.020
 1254TIP3   OH2 3706   2.657   0.288   4.826
 1254TIP3    H1 3707   2.667   0.205   4.780
 1254TIP3    H2 3708   2.657   0.354   4.758
 1255TIP3   OH2 3709   6.214   1.040   5.748
 1255TIP3    H1 3710   6.191   1.118   5.799
 1255TIP3    H2 3711   6.217   1.072   5.657
 1256TIP3   OH2 3712   1.751   4.221   0.836
 1256TIP3    H1 3713   1.724   4.313   0.835
 1256TIP3    H2 3714   1.844   4.223   0.857
 1257TIP3   OH2 3715   2.615   6.578   4.691
 1257TIP3    H1 3716   2.596   6.547   4.779
 1257TIP3    H2 3717   2.555   6.651   4.677
 1258TIP3   OH2 3718   0.571   4.228   3.291
 1258TIP3    H1 3719   0.544   4.305   3.241
 1258TIP3    H2 3720   0.499   4.166   3.280
 1259TIP3   OH2 3721   6.178   1.384   3.118
 1259TIP3    H1 3722   6.256   1.340   3.084
 1259TIP3    H2 3723   6.149   1.328   3.190
 1260TIP3   OH2 3724   7.829   2.788   2.127
 1260TIP3    H1 3725   7.809   2.740   2.207
 1260TIP3    H2 3726   7.758   2.851   2.118
 1261TIP3   OH2 3727   6.523   4.593   0.732
 1261TIP3    H1 3728   6.474   4.666   0.769
 1261TIP3    H2 3729   6.605   4.633   0.700
 1262TIP3   OH2 3730   5.992   6.261   3.498
 1262TIP3    H1 3731   5.964   6.268   3.407
 1262TIP3    H2 3732   5.941   6.328   3.544
 1263TIP3   OH2 3733   4.100   5.747   0.306
 1263TIP3    H1 3734   4.067   5.837   0.299
 1263TIP3    H2 3735   4.070   5.717   0.391
 1264TIP3   OH2 3736   1.432   1.434   4.133
 1264TIP3    H1 3737   1.338   1.420   4.129
 1264TIP3    H2 3738   1.446   1.520   4.092
 1265TIP3   OH2 3739   2.680   7.526   4.056
 1265TIP3    H1 3740   2.645   7.591   3.995
 1265TIP3    H2 3741   2.631   7.540   4.137
 1266TIP3   OH2 3742   3.733   3.686   0.770
 1266TIP3    H1 3743   3.643   3.719   0.779
 1266TIP3    H2 3744   3.755   3.702   0.678
 1267TIP3   OH2 3745   6.061   7.482   5.018
 1267TIP3    H1 3746   6.070   7.550   5.085
 1267TIP3    H2 3747   6.085   7.526   4.936
 1268TIP3   OH2 3748   0.155   6.768   2.497
 1268TIP3    H1 3749   0.096   6.841   2.516
 1268TIP3    H2 3750   0.206   6.757   2.577
 1269TIP3   OH2 3751   0.821   0.055   6.044
 1269TIP3    H1 3752   0.845   0.145   6.025
 1269TIP3    H2 3753   0.768   0.027   5.969
 1270TIP3   OH2 3754   0.668   1.421   6.761
 1270TIP3    H1 3755   0.735   1.485   6.785
 1270TIP3    H2 3756   0.667   1.359   6.835
 1271TIP3   OH2 3757   3.616   2.804   1.201
 1271TIP3    H1 3758   3.607   2.724   1.253
 1271TIP3    H2 3759   3.627   2.873   1.267
 1272TIP3   OH2 3760   5.630   2.119   1.422
 1272TIP3    H1 3761   5.581   2.184   1.472
 1272TIP3    H2 3762   5.688   2.077   1.486
 1273TIP3   OH2 3763   2.150   3.432   2.007
 1273TIP3    H1 3764   2.073   3.434   1.950
 1273TIP3    H2 3765   2.129   3.365   2.073
 1274TIP3   OH2 3766   6.797   6.548   6.242
 1274TIP3    H1 3767   6.733   6.618   6.228
 1274TIP3    H2 3768   6.773   6.510   6.327
 1275TIP3   OH2 3769   7.397   6.165   4.121
 1275TIP3    H1 3770   7.453   6.112   4.177
 1275TIP3    H2 3771   7.424   6.256   4.138
 1276TIP3   OH2 3772   3.255   0.850   4.628
 1276TIP3    H1 3773   3.280   0.942   4.619
 1276TIP3    H2 3774   3.229   0.824   4.540
 1277TIP3   OH2 3775   5.548   7.208   5.770
 1277TIP3    H1 3776   5.506   7.286   5.808
 1277TIP3    H2 3777   5.603   7.175   5.841
 1278TIP3   OH2 3778   4.055   4.890   4.873
 1278TIP3    H1 3779   4.108   4.897   4.793
 1278TIP3    H2 3780   4.098   4.948   4.935
 1279TIP3   OH2 3781   5.002   2.328   1.051
 1279TIP3    H1 3782   4.970   2.344   1.140
 1279TIP3    H2 3783   5.010   2.232   1.045
 1280TIP3   OH2 3784   3.707   3.288   6.268
 1280TIP3    H1 3785   3.768   3.219   6.297
 1280TIP3    H2 3786   3.714   3.286   6.172
 1281TIP3   OH2 3787   5.221   3.144   5.019
 1281TIP3    H1 3788   5.292   3.207   5.012
 1281TIP3    H2 3789   5.168   3.176   5.092
 1282TIP3   OH2 3790   5.415   0.601   2.939
 1282TIP3    H1 3791   5.417   0.509   2.912
 1282TIP3    H2 3792   5.446   0.650   2.863
 1283TIP3   OH2 3793   2.744   4.133   3.234
 1283TIP3    H1 3794   2.762   4.184   3.313
 1283TIP3    H2 3795   2.655   4.100   3.246
 1284TIP3   OH2 3796   4.318   0.806   3.123
 1284TIP3    H1 3797   4.332   0.726   3.073
 1284TIP3    H2 3798   4.341   0.877   3.063
 1285TIP3   OH2 3799   5.992   7.091   6.196
 1285TIP3    H1 3800   5.997   7.147   6.119
 1285TIP3    H2 3801   5.903   7.055   6.193
 1286TIP3   OH2 3802   6.845   5.561   5.251
 1286TIP3    H1 3803   6.845   5.630   5.185
 1286TIP3    H2 3804   6.900   5.492   5.215
 1287TIP3   OH2 3805   5.457   3.614   0.813
 1287TIP3    H1 3806   5.487   3.650   0.896
 1287TIP3    H2 3807   5.536   3.575   0.775
 1288TIP3   OH2 3808   0.436   5.451   0.844
 1288TIP3    H1 3809   0.490   5.383   0.803
 1288TIP3    H2 3810   0.347   5.433   0.813
 1289TIP3   OH2 3811   3.211   0.712   5.198
 1289TIP3    H1 3812   3.183   0.797   5.231
 1289TIP3    H2 3813   3.249   0.730   5.112
 1290TIP3   OH2 3814   0.862   7.587   4.115
 1290TIP3    H1 3815   0.870   7.681   4.102
 1290TIP3    H2 3816   0.943   7.561   4.159
 1291TIP3   OH2 3817   4.266   1.730   0.600
 1291TIP3    H1 3818   4.308   1.712   0.516
 1291TIP3    H2 3819   4.190   1.671   0.601
 1292TIP3   OH2 3820   7.892   2.595   1.895
 1292TIP3    H1 3821   7.930   2.522   1.943
 1292TIP3    H2 3822   7.845   2.646   1.962
 1293TIP3   OH2 3823   2.040   5.982   0.696
 1293TIP3    H1 3824   2.120   6.030   0.717
 1293TIP3    H2 3825   2.069   5.913   0.636
 1294TIP3   OH2 3826   4.292   3.486   3.896
 1294TIP3    H1 3827   4.262   3.572   3.923
 1294TIP3    H2 3828   4.332   3.448   3.975
 1295TIP3   OH2 3829   5.519   5.012   4.903
 1295TIP3    H1 3830   5.423   5.022   4.901
 1295TIP3    H2 3831   5.546   5.027   4.813
 1296TIP3   OH2 3832   0.355   6.614   2.915
 1296TIP3    H1 3833   0.267   6.626   2.953
 1296TIP3    H2 3834   0.404   6.569   2.983
 1297TIP3   OH2 3835   7.450   6.102   2.656
 1297TIP3    H1 3836   7.542   6.078   2.658
 1297TIP3    H2 3837   7.414   6.057   2.579
 1298TIP3   OH2 3838   6.166   3.114   4.666
 1298TIP3    H1 3839   6.250   3.098   4.710
 1298TIP3    H2 3840   6.182   3.084   4.576
 1299TIP3   OH2 3841   0.222   2.827   1.690
 1299TIP3    H1 3842   0.134   2.824   1.730
 1299TIP3    H2 3843   0.281   2.837   1.765
 1300TIP3   OH2 3844   6.245   1.763   2.993
 1300TIP3    H1 3845   6.204   1.722   3.069
 1300TIP3    H2 3846   6.334   1.726   2.992
 1301TIP3   OH2 3847   2.880   6.364   5.393
 1301TIP3    H1 3848   2.818   6.379   5.321
 1301TIP3    H2 3849   2.841   6.410   5.467
 1302TIP3   OH2 3850   1.714   1.452   4.307
 1302TIP3    H1 3851   1.731   1.498   4.225
 1302TIP3    H2 3852   1.621   1.431   4.303
 1303TIP3   OH2 3853   7.140   5.755   1.043
 1303TIP3    H1 3854   7.097   5.824   1.093
 1303TIP3    H2 3855   7.231   5.755   1.073
 1304TIP3   OH2 3856   8.189   6.810   6.522
 1304TIP3    H1 3857   8.260   6.834   6.463
 1304TIP3    H2 3858   8.217   6.727   6.561
 1305TIP3   OH2 3859   1.617   4.981   1.567
 1305TIP3    H1 3860   1.686   5.043   1.590
 1305TIP3    H2 3861   1.565   4.973   1.647
 1306TIP3   OH2 3862   2.284   1.258   0.181
 1306TIP3    H1 3863   2.323   1.204   0.112
 1306TIP3    H2 3864   2.358   1.295   0.228
 1307TIP3   OH2 3865   4.952   4.433   1.297
 1307TIP3    H1 3866   5.016   4.504   1.303
 1307TIP3    H2 3867   4.869   4.477   1.283
 1308TIP3   OH2 3868   6.576   3.100   2.264
 1308TIP3    H1 3869   6.491   3.139   2.283
 1308TIP3    H2 3870   6.638   3.173   2.265
 1309TIP3   OH2 3871   5.794   2.786   2.944
 1309TIP3    H1 3872   5.761   2.700   2.919
 1309TIP3    H2 3873   5.889   2.773   2.954
 1310TIP3   OH2 3874   5.422   5.264   2.187
 1310TIP3    H1 3875   5.440   5.170   2.179
 1310TIP3    H2 3876   5.459   5.288   2.272
 1311TIP3   OH2 3877   7.488   3.885   1.187
 1311TIP3    H1 3878   7.509   3.861   1.096
 1311TIP3    H2 3879   7.567   3.927   1.220
 1312TIP3   OH2 3880   0.122   2.771   0.327
 1312TIP3    H1 3881   0.212   2.743   0.341
 1312TIP3    H2 3882   0.099   2.820   0.406
 1313TIP3   OH2 3883   7.296   2.015   4.755
 1313TIP3    H1 3884   7.387   2.032   4.780
 1313TIP3    H2 3885   7.258   1.969   4.830
 1314TIP3   OH2 3886   0.790   7.033   6.133
 1314TIP3    H1 3887   0.715   7.025   6.192
 1314TIP3    H2 3888   0.764   6.986   6.054
 1315TIP3   OH2 3889   7.341   2.025   6.058
 1315TIP3    H1 3890   7.293   2.004   6.139
 1315TIP3    H2 3891   7.320   1.953   5.999
 1316TIP3   OH2 3892   6.963   0.151   2.012
 1316TIP3    H1 3893   6.970   0.130   2.106
 1316TIP3    H2 3894   6.887   0.101   1.983
 1317TIP3   OH2 3895   3.170   0.520   5.396
 1317TIP3    H1 3896   3.220   0.591   5.354
 1317TIP3    H2 3897   3.236   0.470   5.444
 1318TIP3   OH2 3898   8.201   1.021   1.424
 1318TIP3    H1 3899   8.240   1.104   1.449
 1318TIP3    H2 3900   8.160   1.038   1.339
 1319TIP3   OH2 3901   6.114   6.898   5.959
 1319TIP3    H1 3902   6.202   6.929   5.980
 1319TIP3    H2 3903   6.115   6.805   5.985
 1320TIP3   OH2 3904   3.254   5.676   1.809
 1320TIP3    H1 3905   3.343   5.653   1.838
 1320TIP3    H2 3906   3.199   5.606   1.844
 1321TIP3   OH2 3907   0.403   0.467   4.294
 1321TIP3    H1 3908   0.494   0.440   4.298
 1321TIP3    H2 3909   0.379   0.485   4.386
 1322TIP3   OH2 3910   0.484   2.952   2.128
 1322TIP3    H1 3911   0.472   3.045   2.143
 1322TIP3    H2 3912   0.513   2.917   2.212
 1323TIP3   OH2 3913   7.072   6.458   4.446
 1323TIP3    H1 3914   7.032   6.507   4.374
 1323TIP3    H2 3915   7.102   6.526   4.507
 1324TIP3   OH2 3916   5.031   7.583   2.427
 1324TIP3    H1 3917   5.120   7.557   2.452
 1324TIP3    H2 3918   5.002   7.516   2.366
 1325TIP3   OH2 3919   0.873   5.782   5.619
 1325TIP3    H1 3920   0.909   5.836   5.549
 1325TIP3    H2 3921   0.881   5.693   5.586
 1326TIP3   OH2 3922   2.065   3.090   4.828
 1326TIP3    H1 3923   1.974   3.116   4.843
 1326TIP3    H2 3924   2.096   3.060   4.913
 1327TIP3   OH2 3925   0.451   1.474   5.731
 1327TIP3    H1 3926   0.495   1.432   5.805
 1327TIP3    H2 3927   0.518   1.530   5.692
 1328TIP3   OH2 3928   2.870   5.922   0.159
 1328TIP3    H1 3929   2.896   5.921   0.251
 1328TIP3    H2 3930   2.903   5.838   0.124
 1329TIP3   OH2 3931   3.722   4.569   6.127
 1329TIP3    H1 3932   3.705   4.662   6.134
 1329TIP3    H2 3933   3.818   4.563   6.118
 1330TIP3   OH2 3934   1.106   6.706   5.337
 1330TIP3    H1 3935   1.070   6.794   5.347
 1330TIP3    H2 3936   1.067   6.674   5.256
 1331TIP3   OH2 3937   6.100   6.894   3.314
 1331TIP3    H1 3938   6.130   6.866   3.401
 1331TIP3    H2 3939   6.025   6.950   3.333
 1332TIP3   OH2 3940   5.270   4.028   0.766
 1332TIP3    H1 3941   5.212   3.983   0.827
 1332TIP3    H2 3942   5.355   3.987   0.781
 1333TIP3   OH2 3943   7.231   6.433   3.344
 1333TIP3    H1 3944   7.229   6.404   3.253
 1333TIP3    H2 3945   7.167   6.377   3.389
 1334TIP3   OH2 3946   3.633   6.536   4.672
 1334TIP3    H1 3947   3.611   6.608   4.614
 1334TIP3    H2 3948   3.564   6.537   4.739
 1335TIP3   OH2 3949   1.354   2.015   5.048
 1335TIP3    H1 3950   1.439   2.055   5.065
 1335TIP3    H2 3951   1.371   1.921   5.052
 1336TIP3   OH2 3952   0.485   4.318   6.139
 1336TIP3    H1 3953   0.473   4.273   6.055
 1336TIP3    H2 3954   0.580   4.321   6.152
 1337TIP3   OH2 3955   8.287   7.557   0.082
 1337TIP3    H1 3956   8.214   7.509   0.045
 1337TIP3    H2 3957   8.272   7.648   0.057
 1338TIP3   OH2 3958   5.243   1.706   0.085
 1338TIP3    H1 3959   5.231   1.774   0.019
 1338TIP3    H2 3960   5.322   1.733   0.133
 1339TIP3   OH2 3961   4.273   4.072   4.842
 1339TIP3    H1 3962   4.323   4.127   4.902
 1339TIP3    H2 3963   4.270   4.123   4.761
 1340TIP3   OH2 3964   6.825   6.688   5.727
 1340TIP3    H1 3965   6.811   6.636   5.806
 1340TIP3    H2 3966   6.855   6.625   5.662
 1341TIP3   OH2 3967   1.904   6.277   6.372
 1341TIP3    H1 3968   1.823   6.307   6.331
 1341TIP3    H2 3969   1.973   6.321   6.323
 1342TIP3   OH2 3970   8.169   0.685   4.031
 1342TIP3    H1 3971   8.253   0.656   3.997
 1342TIP3    H2 3972   8.136   0.746   3.965
 1343TIP3   OH2 3973   8.042   1.975   4.061
 1343TIP3    H1 3974   8.053   1.992   4.154
 1343TIP3    H2 3975   7.955   2.009   4.040
 1344TIP3   OH2 3976   8.159   0.652   2.513
 1344TIP3    H1 3977   8.223   0.635   2.444
 1344TIP3    H2 3978   8.075   0.651   2.468
 1345TIP3   OH2 3979   5.912   7.589   6.131
 1345TIP3    H1 3980   5.845   7.591   6.199
 1345TIP3    H2 3981   5.875   7.641   6.060
 1346TIP3   OH2 3982   1.818   5.253   0.572
 1346TIP3    H1 3983   1.820   5.252   0.667
 1346TIP3    H2 3984   1.883   5.319   0.547
 1347TIP3   OH2 3985   0.407   6.861   2.113
 1347TIP3    H1 3986   0.409   6.886   2.206
 1347TIP3    H2 3987   0.315   6.847   2.094
 1348TIP3   OH2 3988   0.361   6.274   6.299
 1348TIP3    H1 3989   0.409   6.311   6.373
 1348TIP3    H2 3990   0.341   6.349   6.243
 1349TIP3   OH2 3991   6.793   1.009   1.517
 1349TIP3    H1 3992   6.737   0.943   1.475
 1349TIP3    H2 3993   6.735   1.051   1.582
 1350TIP3   OH2 3994   0.622   1.539   3.838
 1350TIP3    H1 3995   0.668   1.577   3.763
 1350TIP3    H2 3996   0.662   1.454   3.851
 1351TIP3   OH2 3997   5.977   1.827   0.535
 1351TIP3    H1 3998   5.969   1.743   0.580
 1351TIP3    H2 3999   6.057   1.818   0.483
 1352TIP3   OH2 4000   5.904   3.703   4.535
 1352TIP3    H1 4001   5.850   3.635   4.577
 1352TIP3    H2 4002   5.949   3.746   4.608
 1353TIP3   OH2 4003   3.907   3.816   2.199
 1353TIP3    H1 4004   3.866   3.756   2.261
 1353TIP3    H2 4005   3.977   3.858   2.249
 1354TIP3   OH2 4006   7.634   0.630   3.325
 1354TIP3    H1 4007   7.673   0.714   3.345
 1354TIP3    H2 4008   7.550   0.651   3.283
 1355TIP3   OH2 4009   1.144   5.592   2.390
 1355TIP3    H1 4010   1.100   5.602   2.306
 1355TIP3    H2 4011   1.171   5.500   2.393
 1356TIP3   OH2 4012   4.054   1.721   2.264
 1356TIP3    H1 4013   4.015   1.646   2.218
 1356TIP3    H2 4014   4.105   1.682   2.335
 1357TIP3   OH2 4015   5.099   3.856   0.190
 1357TIP3    H1 4016   5.171   3.812   0.235
 1357TIP3    H2 4017   5.034   3.873   0.259
 1358TIP3   OH2 4018   0.492   2.968   0.080
 1358TIP3    H1 4019   0.491   3.037   0.146
 1358TIP3    H2 4020   0.562   2.908   0.109
 1359TIP3   OH2 4021   4.706   3.217   2.425
 1359TIP3    H1 4022   4.630   3.267   2.393
 1359TIP3    H2 4023   4.738   3.170   2.347
 1360TIP3   OH2 4024   5.610   5.691   5.437
 1360TIP3    H1 4025   5.695   5.720   5.470
 1360TIP3    H2 4026   5.547   5.754   5.472
 1361TIP3   OH2 4027   4.462   0.263   0.109
 1361TIP3    H1 4028   4.489   0.340   0.160
 1361TIP3    H2 4029   4.539   0.240   0.058
 1362TIP3   OH2 4030   0.306   0.188   1.922
 1362TIP3    H1 4031   0.329   0.155   2.009
 1362TIP3    H2 4032   0.385   0.172   1.869
 1363TIP3   OH2 4033   8.188   6.653   4.813
 1363TIP3    H1 4034   8.103   6.644   4.856
 1363TIP3    H2 4035   8.166   6.660   4.720
 1364TIP3   OH2 4036   3.751   0.366   5.847
 1364TIP3    H1 4037   3.674   0.316   5.821
 1364TIP3    H2 4038   3.825   0.314   5.817
 1365TIP3   OH2 4039   1.624   4.365   5.440
 1365TIP3    H1 4040   1.618   4.428   5.368
 1365TIP3    H2 4041   1.571   4.290   5.410
 1366TIP3   OH2 4042   2.035   4.492   3.619
 1366TIP3    H1 4043   1.992   4.474   3.703
 1366TIP3    H2 4044   1.970   4.544   3.570
 1367TIP3   OH2 4045   7.027   5.207   5.743
 1367TIP3    H1 4046   7.041   5.171   5.830
 1367TIP3    H2 4047   7.009   5.300   5.758
 1368TIP3   OH2 4048   5.544   1.248   5.289
 1368TIP3    H1 4049   5.532   1.328   5.237
 1368TIP3    H2 4050   5.483   1.258   5.362
 1369TIP3   OH2 4051   4.929   5.774   4.889
 1369TIP3    H1 4052   4.986   5.819   4.951
 1369TIP3    H2 4053   4.858   5.837   4.871
 1370TIP3   OH2 4054   7.032   5.790   1.910
 1370TIP3    H1 4055   6.978   5.750   1.842
 1370TIP3    H2 4056   7.022   5.884   1.896
 1371TIP3   OH2 4057   0.921   7.822   0.232
 1371TIP3    H1 4058   1.005   7.777   0.225
 1371TIP3    H2 4059   0.859   7.753   0.255
 1372TIP3   OH2 4060   7.523   3.362   3.429
 1372TIP3    H1 4061   7.517   3.457   3.415
 1372TIP3    H2 4062   7.595   3.334   3.371
 1373TIP3   OH2 4063   3.188   3.284   3.760
 1373TIP3    H1 4064   3.246   3.217   3.725
 1373TIP3    H2 4065   3.246   3.347   3.802
 1374TIP3   OH2 4066   0.219   2.133   0.191
 1374TIP3    H1 4067   0.206   2.120   0.097
 1374TIP3    H2 4068   0.152   2.196   0.217
 1375TIP3   OH2 4069   8.030   7.361   0.439
 1375TIP3    H1 4070   7.996   7.412   0.366
 1375TIP3    H2 4071   8.108   7.409   0.467
 1376TIP3   OH2 4072   7.763   1.469   3.512
 1376TIP3    H1 4073   7.785   1.539   3.573
 1376TIP3    H2 4074   7.833   1.404   3.523
 1377TIP3   OH2 4075   8.274   3.545   4.871
 1377TIP3    H1 4076   8.182   3.562   4.849
 1377TIP3    H2 4077   8.292   3.459   4.833
 1378TIP3   OH2 4078   3.277   7.815   0.154
 1378TIP3    H1 4079   3.323   7.845   0.233
 1378TIP3    H2 4080   3.186   7.803   0.183
 1379TIP3   OH2 4081   1.727   6.821   1.698
 1379TIP3    H1 4082   1.634   6.799   1.694
 1379TIP3    H2 4083   1.752   6.805   1.789
 1380TIP3   OH2 4084   1.595   5.863   1.323
 1380TIP3    H1 4085   1.538   5.788   1.305
 1380TIP3    H2 4086   1.538   5.924   1.371
 1381TIP3   OH2 4087   0.698   5.529   6.118
 1381TIP3    H1 4088   0.719   5.622   6.123
 1381TIP3    H2 4089   0.783   5.485   6.114
 1382TIP3   OH2 4090   7.670   7.044   2.151
 1382TIP3    H1 4091   7.721   6.996   2.087
 1382TIP3    H2 4092   7.723   7.121   2.171
 1383TIP3   OH2 4093   3.246   3.140   6.765
 1383TIP3    H1 4094   3.275   3.228   6.742
 1383TIP3    H2 4095   3.272   3.086   6.691
 1384TIP3   OH2 4096   2.722   4.323   4.387
 1384TIP3    H1 4097   2.734   4.229   4.381
 1384TIP3    H2 4098   2.767   4.349   4.468
 1385TIP3   OH2 4099   5.068   4.160   3.995
 1385TIP3    H1 4100   5.025   4.111   4.065
 1385TIP3    H2 4101   5.084   4.094   3.927
 1386TIP3   OH2 4102   3.276   1.532   5.796
 1386TIP3    H1 4103   3.312   1.592   5.861
 1386TIP3    H2 4104   3.182   1.551   5.796
 1387TIP3   OH2 4105   5.846   2.441   5.609
 1387TIP3    H1 4106   5.761   2.403   5.586
 1387TIP3    H2 4107   5.825   2.528   5.643
 1388TIP3   OH2 4108   4.458   4.722   6.024
 1388TIP3    H1 4109   4.510   4.801   6.014
 1388TIP3    H2 4110   4.374   4.752   6.059
 1389TIP3   OH2 4111   7.467   3.281   5.558
 1389TIP3    H1 4112   7.518   3.358   5.581
 1389TIP3    H2 4113   7.494   3.213   5.620
 1390TIP3   OH2 4114   2.374   3.983   4.506
 1390TIP3    H1 4115   2.393   4.064   4.554
 1390TIP3    H2 4116   2.412   3.997   4.419
 1391TIP3   OH2 4117   2.797   2.689   2.155
 1391TIP3    H1 4118   2.876   2.715   2.202
 1391TIP3    H2 4119   2.775   2.766   2.102
 1392TIP3   OH2 4120   5.717   0.690   4.001
 1392TIP3    H1 4121   5.660   0.623   3.963
 1392TIP3    H2 4122   5.671   0.719   4.079
 1393TIP3   OH2 4123   6.518   4.587   3.998
 1393TIP3    H1 4124   6.518   4.500   4.037
 1393TIP3    H2 4125   6.426   4.610   3.990
 1394TIP3   OH2 4126   8.218   2.615   5.203
 1394TIP3    H1 4127   8.204   2.681   5.271
 1394TIP3    H2 4128   8.199   2.661   5.121
 1395TIP3   OH2 4129   0.122   6.057   3.352
 1395TIP3    H1 4130   0.133   5.991   3.284
 1395TIP3    H2 4131   0.164   6.135   3.316
 1396TIP3   OH2 4132   1.947   2.721   1.116
 1396TIP3    H1 4133   2.019   2.728   1.053
 1396TIP3    H2 4134   1.870   2.703   1.062
 1397TIP3   OH2 4135   5.948   6.571   2.674
 1397TIP3    H1 4136   5.934   6.624   2.595
 1397TIP3    H2 4137   5.867   6.521   2.683
 1398TIP3   OH2 4138   7.643   0.899   0.539
 1398TIP3    H1 4139   7.582   0.907   0.612
 1398TIP3    H2 4140   7.699   0.825   0.563
 1399TIP3   OH2 4141   3.250   5.576   5.451
 1399TIP3    H1 4142   3.189   5.623   5.508
 1399TIP3    H2 4143   3.203   5.568   5.367
 1400TIP3   OH2 4144   1.846   3.613   3.388
 1400TIP3    H1 4145   1.886   3.656   3.313
 1400TIP3    H2 4146   1.756   3.594   3.360
 1401TIP3   OH2 4147   6.672   1.304   0.868
 1401TIP3    H1 4148   6.718   1.220   0.861
 1401TIP3    H2 4149   6.727   1.365   0.818
 1402TIP3   OH2 4150   3.942   1.973   6.317
 1402TIP3    H1 4151   3.945   1.963   6.222
 1402TIP3    H2 4152   4.021   2.022   6.339
 1403TIP3   OH2 4153   4.603   0.393   2.968
 1403TIP3    H1 4154   4.557   0.411   2.886
 1403TIP3    H2 4155   4.627   0.301   2.962
 1404TIP3   OH2 4156   5.282   1.869   1.917
 1404TIP3    H1 4157   5.367   1.913   1.920
 1404TIP3    H2 4158   5.231   1.920   1.854
 1405TIP3   OH2 4159   7.532   5.359   2.203
 1405TIP3    H1 4160   7.458   5.352   2.142
 1405TIP3    H2 4161   7.540   5.453   2.219
 1406TIP3   OH2 4162   5.993   0.701   3.914
 1406TIP3    H1 4163   5.997   0.769   3.847
 1406TIP3    H2 4164   5.906   0.710   3.953
 1407TIP3   OH2 4165   1.790   1.753   6.174
 1407TIP3    H1 4166   1.779   1.658   6.179
 1407TIP3    H2 4167   1.728   1.788   6.238
 1408TIP3   OH2 4168   8.015   5.170   5.511
 1408TIP3    H1 4169   8.011   5.186   5.606
 1408TIP3    H2 4170   8.103   5.197   5.486
 1409TIP3   OH2 4171   6.298   6.394   5.295
 1409TIP3    H1 4172   6.305   6.487   5.275
 1409TIP3    H2 4173   6.297   6.351   5.209
 1410TIP3   OH2 4174   1.693   5.234   1.674
 1410TIP3    H1 4175   1.712   5.298   1.606
 1410TIP3    H2 4176   1.604   5.254   1.702
 1411TIP3   OH2 4177   5.835   7.316   2.118
 1411TIP3    H1 4178   5.897   7.248   2.142
 1411TIP3    H2 4179   5.819   7.302   2.025
 1412TIP3   OH2 4180   8.247   7.266   5.005
 1412TIP3    H1 4181   8.193   7.321   4.950
 1412TIP3    H2 4182   8.333   7.308   5.005
 1413TIP3   OH2 4183   5.050   7.241   5.971
 1413TIP3    H1 4184   5.136   7.199   5.968
 1413TIP3    H2 4185   5.069   7.334   5.986
 1414TIP3   OH2 4186   6.111   2.548   0.315
 1414TIP3    H1 4187   6.055   2.526   0.389
 1414TIP3    H2 4188   6.083   2.636   0.289
 1415TIP3   OH2 4189   2.009   4.198   2.442
 1415TIP3    H1 4190   2.093   4.163   2.472
 1415TIP3    H2 4191   1.975   4.247   2.517
 1416TIP3   OH2 4192   7.991   5.827   6.684
 1416TIP3    H1 4193   8.067   5.866   6.640
 1416TIP3    H2 4194   7.976   5.883   6.760
 1417TIP3   OH2 4195   5.145   3.019   2.014
 1417TIP3    H1 4196   5.158   2.928   2.041
 1417TIP3    H2 4197   5.158   3.070   2.094
 1418TIP3   OH2 4198   6.586   5.739   6.411
 1418TIP3    H1 4199   6.547   5.815   6.455
 1418TIP3    H2 4200   6.659   5.714   6.467
 1419TIP3   OH2 4201   4.227   6.675   4.148
 1419TIP3    H1 4202   4.162   6.617   4.188
 1419TIP3    H2 4203   4.192   6.763   4.162
 1420TIP3   OH2 4204   7.329   4.375   2.458
 1420TIP3    H1 4205   7.304   4.446   2.399
 1420TIP3    H2 4206   7.257   4.312   2.452
 1421TIP3   OH2 4207   1.008   3.811   2.377
 1421TIP3    H1 4208   1.007   3.760   2.296
 1421TIP3    H2 4209   0.926   3.860   2.376
 1422TIP3   OH2 4210   7.949   5.855   5.505
 1422TIP3    H1 4211   7.901   5.777   5.476
 1422TIP3    H2 4212   8.002   5.880   5.430
 1423TIP3   OH2 4213   7.338   2.030   0.540
 1423TIP3    H1 4214   7.260   2.048   0.488
 1423TIP3    H2 4215   7.317   1.949   0.586
 1424TIP3   OH2 4216   3.983   2.191   5.872
 1424TIP3    H1 4217   4.059   2.133   5.868
 1424TIP3    H2 4218   3.941   2.182   5.786
 1425TIP3   OH2 4219   2.768   0.313   1.922
 1425TIP3    H1 4220   2.711   0.338   1.995
 1425TIP3    H2 4221   2.767   0.389   1.863
 1426TIP3   OH2 4222   5.679   1.221   1.121
 1426TIP3    H1 4223   5.714   1.162   1.188
 1426TIP3    H2 4224   5.703   1.180   1.038
 1427TIP3   OH2 4225   7.169   0.173   5.858
 1427TIP3    H1 4226   7.110   0.219   5.798
 1427TIP3    H2 4227   7.238   0.138   5.801
 1428TIP3   OH2 4228   4.594   4.509   6.618
 1428TIP3    H1 4229   4.674   4.469   6.653
 1428TIP3    H2 4230   4.574   4.581   6.679
 1429TIP3   OH2 4231   3.205   6.017   5.883
 1429TIP3    H1 4232   3.250   5.983   5.806
 1429TIP3    H2 4233   3.152   6.090   5.851
 1430TIP3   OH2 4234   4.942   7.235   1.111
 1430TIP3    H1 4235   5.021   7.243   1.164
 1430TIP3    H2 4236   4.926   7.323   1.078
 1431TIP3   OH2 4237   5.108   4.462   0.655
 1431TIP3    H1 4238   5.160   4.540   0.637
 1431TIP3    H2 4239   5.174   4.394   0.672
 1432TIP3   OH2 4240   4.511   0.182   3.463
 1432TIP3    H1 4241   4.479   0.190   3.373
 1432TIP3    H2 4242   4.601   0.213   3.459
 1433TIP3   OH2 4243   0.381   7.463   4.199
 1433TIP3    H1 4244   0.473   7.474   4.175
 1433TIP3    H2 4245   0.361   7.540   4.253
 1434TIP3   OH2 4246   6.858   3.680   4.951
 1434TIP3    H1 4247   6.815   3.625   5.017
 1434TIP3    H2 4248   6.905   3.618   4.895
 1435TIP3   OH2 4249   6.540   1.551   3.866
 1435TIP3    H1 4250   6.606   1.498   3.911
 1435TIP3    H2 4251   6.546   1.637   3.908
 1436TIP3   OH2 4252   0.207   5.958   4.356
 1436TIP3    H1 4253   0.165   5.878   4.385
 1436TIP3    H2 4254   0.163   6.028   4.404
 1437TIP3   OH2 4255   2.478   7.588   6.418
 1437TIP3    H1 4256   2.489   7.644   6.494
 1437TIP3    H2 4257   2.432   7.511   6.452
 1438TIP3   OH2 4258   0.274   4.397   5.652
 1438TIP3    H1 4259   0.213   4.457   5.609
 1438TIP3    H2 4260   0.321   4.354   5.581
 1439TIP3   OH2 4261   1.504   0.116   6.468
 1439TIP3    H1 4262   1.598   0.110   6.480
 1439TIP3    H2 4263   1.492   0.130   6.375
 1440TIP3   OH2 4264   5.893   4.359   1.280
 1440TIP3    H1 4265   5.928   4.409   1.207
 1440TIP3    H2 4266   5.965   4.352   1.342
 1441TIP3   OH2 4267   4.611   2.626   3.611
 1441TIP3    H1 4268   4.643   2.595   3.696
 1441TIP3    H2 4269   4.535   2.681   3.633
 1442TIP3   OH2 4270   1.353   4.774   4.960
 1442TIP3    H1 4271   1.430   4.808   5.004
 1442TIP3    H2 4272   1.329   4.696   5.010
 1443TIP3   OH2 4273   2.089   7.437   1.341
 1443TIP3    H1 4274   2.120   7.394   1.421
 1443TIP3    H2 4275   2.076   7.365   1.279
 1444TIP3   OH2 4276   2.775   2.861   4.773
 1444TIP3    H1 4277   2.783   2.951   4.741
 1444TIP3    H2 4278   2.816   2.863   4.860
 1445TIP3   OH2 4279   1.189   0.414   3.344
 1445TIP3    H1 4280   1.176   0.365   3.425
 1445TIP3    H2 4281   1.160   0.354   3.275
 1446TIP3   OH2 4282   7.708   4.564   3.873
 1446TIP3    H1 4283   7.633   4.535   3.925
 1446TIP3    H2 4284   7.724   4.654   3.901
 1447TIP3   OH2 4285   3.735   6.865   3.533
 1447TIP3    H1 4286   3.697   6.951   3.554
 1447TIP3    H2 4287   3.682   6.833   3.460
 1448TIP3   OH2 4288   2.813   6.308   1.696
 1448TIP3    H1 4289   2.894   6.290   1.648
 1448TIP3    H2 4290   2.802   6.232   1.753
 1449TIP3   OH2 4291   2.817   4.806   2.835
 1449TIP3    H1 4292   2.910   4.794   2.815
 1449TIP3    H2 4293   2.771   4.758   2.766
 1450TIP3   OH2 4294   3.780   4.317   1.927
 1450TIP3    H1 4295   3.797   4.337   2.019
 1450TIP3    H2 4296   3.691   4.348   1.912
 1451TIP3   OH2 4297   5.823   5.181   4.889
 1451TIP3    H1 4298   5.850   5.192   4.798
 1451TIP3    H2 4299   5.737   5.139   4.883
 1452TIP3   OH2 4300   5.002   7.551   5.864
 1452TIP3    H1 4301   5.029   7.526   5.775
 1452TIP3    H2 4302   4.946   7.627   5.852
 1453TIP3   OH2 4303   0.196   1.267   2.126
 1453TIP3    H1 4304   0.139   1.267   2.050
 1453TIP3    H2 4305   0.277   1.307   2.096
 1454TIP3   OH2 4306   1.643   6.134   6.086
 1454TIP3    H1 4307   1.648   6.215   6.136
 1454TIP3    H2 4308   1.709   6.145   6.017
 1455TIP3   OH2 4309   6.270   1.530   3.959
 1455TIP3    H1 4310   6.352   1.540   3.911
 1455TIP3    H2 4311   6.297   1.499   4.045
 1456TIP3   OH2 4312   7.714   0.274   3.669
 1456TIP3    H1 4313   7.632   0.272   3.620
 1456TIP3    H2 4314   7.777   0.228   3.614
 1457TIP3   OH2 4315   3.466   2.577   5.786
 1457TIP3    H1 4316   3.476   2.640   5.715
 1457TIP3    H2 4317   3.479   2.492   5.744
 1458TIP3   OH2 4318   2.837   1.043   2.414
 1458TIP3    H1 4319   2.861   1.136   2.418
 1458TIP3    H2 4320   2.755   1.042   2.363
 1459TIP3   OH2 4321   5.356   1.756   6.274
 1459TIP3    H1 4322   5.383   1.711   6.354
 1459TIP3    H2 4323   5.323   1.686   6.217
 1460TIP3   OH2 4324   4.373   3.409   3.521
 1460TIP3    H1 4325   4.465   3.423   3.545
 1460TIP3    H2 4326   4.364   3.314   3.514
 1461TIP3   OH2 4327   4.858   5.391   0.437
 1461TIP3    H1 4328   4.946   5.358   0.455
 1461TIP3    H2 4329   4.872   5.470   0.385
 1462TIP3   OH2 4330   5.352   2.674   0.942
 1462TIP3    H1 4331   5.308   2.726   0.875
 1462TIP3    H2 4332   5.289   2.604   0.963
 1463TIP3   OH2 4333   1.102   3.053   1.638
 1463TIP3    H1 4334   1.184   3.004   1.645
 1463TIP3    H2 4335   1.090   3.068   1.545
 1464TIP3   OH2 4336   6.993   5.603   0.616
 1464TIP3    H1 4337   6.912   5.618   0.666
 1464TIP3    H2 4338   6.971   5.533   0.554
 1465TIP3   OH2 4339   5.736   5.365   1.509
 1465TIP3    H1 4340   5.805   5.363   1.443
 1465TIP3    H2 4341   5.781   5.340   1.590
 1466TIP3   OH2 4342   6.374   0.367   1.112
 1466TIP3    H1 4343   6.313   0.304   1.075
 1466TIP3    H2 4344   6.318   0.434   1.153
 1467TIP3   OH2 4345   1.914   6.536   4.129
 1467TIP3    H1 4346   1.836   6.562   4.081
 1467TIP3    H2 4347   1.913   6.440   4.126
 1468TIP3   OH2 4348   5.678   4.421   3.388
 1468TIP3    H1 4349   5.622   4.435   3.311
 1468TIP3    H2 4350   5.660   4.495   3.445
 1469TIP3   OH2 4351   1.557   3.106   3.341
 1469TIP3    H1 4352   1.576   3.020   3.304
 1469TIP3    H2 4353   1.472   3.130   3.304
 1470TIP3   OH2 4354   3.435   3.987   3.664
 1470TIP3    H1 4355   3.481   4.047   3.605
 1470TIP3    H2 4356   3.499   3.968   3.733
 1471TIP3   OH2 4357   1.608   2.936   2.227
 1471TIP3    H1 4358   1.600   2.843   2.250
 1471TIP3    H2 4359   1.554   2.946   2.149
 1472TIP3   OH2 4360   6.914   4.289   3.346
 1472TIP3    H1 4361   6.907   4.381   3.321
 1472TIP3    H2 4362   7.007   4.276   3.366
 1473TIP3   OH2 4363   7.195   3.232   4.053
 1473TIP3    H1 4364   7.122   3.236   3.991
 1473TIP3    H2 4365   7.156   3.254   4.138
 1474TIP3   OH2 4366   0.367   6.412   1.279
 1474TIP3    H1 4367   0.382   6.325   1.316
 1474TIP3    H2 4368   0.433   6.420   1.210
 1475TIP3   OH2 4369   7.976   3.963   3.365
 1475TIP3    H1 4370   7.911   4.017   3.410
 1475TIP3    H2 4371   7.976   3.995   3.275
 1476TIP3   OH2 4372   0.934   0.010   6.289
 1476TIP3    H1 4373   0.868   0.026   6.222
 1476TIP3    H2 4374   0.914  -0.076   6.324
 1477TIP3   OH2 4375   5.631   2.465   3.424
 1477TIP3    H1 4376   5.617   2.524   3.498
 1477TIP3    H2 4377   5.709   2.500   3.380
 1478TIP3   OH2 4378   8.088   5.429   4.460
 1478TIP3    H1 4379   8.079   5.402   4.368
 1478TIP3    H2 4380   8.180   5.411   4.482
 1479TIP3   OH2 4381   5.614   2.818   3.416
 1479TIP3    H1 4382   5.655   2.856   3.494
 1479TIP3    H2 4383   5.679   2.756   3.383
 1480TIP3   OH2 4384   0.524   2.990   1.113
 1480TIP3    H1 4385   0.540   3.080   1.143
 1480TIP3    H2 4386   0.443   2.965   1.157
 1481TIP3   OH2 4387   0.362   5.527   3.175
 1481TIP3    H1 4388   0.440   5.582   3.188
 1481TIP3    H2 4389   0.385   5.444   3.216
 1482TIP3   OH2 4390   3.539   5.397   4.014
 1482TIP3    H1 4391   3.480   5.398   4.090
 1482TIP3    H2 4392   3.609   5.458   4.037
 1483TIP3   OH2 4393   7.417   5.739   3.330
 1483TIP3    H1 4394   7.480   5.676   3.295
 1483TIP3    H2 4395   7.372   5.774   3.253
 1484TIP3   OH2 4396   7.973   1.822   6.300
 1484TIP3    H1 4397   7.993   1.881   6.372
 1484TIP3    H2 4398   7.904   1.866   6.250
 1485TIP3   OH2 4399   3.128   7.652   3.935
 1485TIP3    H1 4400   3.084   7.737   3.934
 1485TIP3    H2 4401   3.102   7.613   4.018
 1486TIP3   OH2 4402   5.040   5.163   5.757
 1486TIP3    H1 4403   4.959   5.164   5.807
 1486TIP3    H2 4404   5.099   5.108   5.808
 1487TIP3   OH2 4405   5.508   5.134   4.058
 1487TIP3    H1 4406   5.417   5.127   4.028
 1487TIP3    H2 4407   5.559   5.102   3.984
 1488TIP3   OH2 4408   5.038   6.742   5.493
 1488TIP3    H1 4409   5.116   6.755   5.546
 1488TIP3    H2 4410   5.070   6.693   5.416
 1489TIP3   OH2 4411   5.598   2.758   6.180
 1489TIP3    H1 4412   5.656   2.834   6.168
 1489TIP3    H2 4413   5.622   2.699   6.109
 1490TIP3   OH2 4414   2.451   4.704   0.788
 1490TIP3    H1 4415   2.426   4.616   0.816
 1490TIP3    H2 4416   2.372   4.756   0.799
 1491TIP3   OH2 4417   6.739   0.738   0.742
 1491TIP3    H1 4418   6.831   0.750   0.716
 1491TIP3    H2 4419   6.702   0.680   0.674
 1492TIP3   OH2 4420   2.019   6.505   3.768
 1492TIP3    H1 4421   2.051   6.442   3.704
 1492TIP3    H2 4422   2.075   6.582   3.755
 1493TIP3   OH2 4423   4.771   5.009   2.137
 1493TIP3    H1 4424   4.710   5.036   2.205
 1493TIP3    H2 4425   4.757   5.071   2.066
 1494TIP3   OH2 4426   0.502   2.160   5.521
 1494TIP3    H1 4427   0.533   2.236   5.472
 1494TIP3    H2 4428   0.422   2.134   5.476
 1495TIP3   OH2 4429   6.024   5.646   1.671
 1495TIP3    H1 4430   5.958   5.645   1.741
 1495TIP3    H2 4431   5.973   5.647   1.590
 1496TIP3   OH2 4432   7.150   7.559   4.932
 1496TIP3    H1 4433   7.163   7.583   5.023
 1496TIP3    H2 4434   7.237   7.534   4.901
 1497TIP3   OH2 4435   4.699   5.935   1.612
 1497TIP3    H1 4436   4.665   5.924   1.523
 1497TIP3    H2 4437   4.741   5.851   1.632
 1498TIP3   OH2 4438   1.729   4.825   0.539
 1498TIP3    H1 4439   1.779   4.759   0.492
 1498TIP3    H2 4440   1.666   4.775   0.591
 1499TIP3   OH2 4441   7.986   0.042   0.429
 1499TIP3    H1 4442   8.011   0.133   0.415
 1499TIP3    H2 4443   7.891   0.043   0.435
 1500TIP3   OH2 4444   2.227   1.512   6.410
 1500TIP3    H1 4445   2.261   1.599   6.387
 1500TIP3    H2 4446   2.169   1.490   6.336
 1501TIP3   OH2 4447   0.388   1.517   0.983
 1501TIP3    H1 4448   0.416   1.608   0.989
 1501TIP3    H2 4449   0.314   1.518   0.923
 1502TIP3   OH2 4450   2.216   0.047   2.776
 1502TIP3    H1 4451   2.295   0.071   2.825
 1502TIP3    H2 4452   2.246   0.034   2.686
 1503TIP3   OH2 4453   4.015   4.579   2.407
 1503TIP3    H1 4454   4.101   4.583   2.364
 1503TIP3    H2 4455   3.998   4.670   2.434
 1504TIP3   OH2 4456   1.961   0.224   1.166
 1504TIP3    H1 4457   1.969   0.182   1.081
 1504TIP3    H2 4458   1.893   0.175   1.211
 1505TIP3   OH2 4459   4.390   7.809   0.286
 1505TIP3    H1 4460   4.295   7.818   0.290
 1505TIP3    H2 4461   4.420   7.888   0.240
 1506TIP3   OH2 4462   4.212   7.017   5.599
 1506TIP3    H1 4463   4.193   7.015   5.693
 1506TIP3    H2 4464   4.131   6.987   5.557
 1507TIP3   OH2 4465   1.010   3.104   5.701
 1507TIP3    H1 4466   0.987   3.047   5.775
 1507TIP3    H2 4467   1.094   3.069   5.670
 1508TIP3   OH2 4468   6.057   2.800   2.229
 1508TIP3    H1 4469   6.151   2.816   2.218
 1508TIP3    H2 4470   6.017   2.844   2.154
 1509TIP3   OH2 4471   0.066   5.055   1.183
 1509TIP3    H1 4472   0.077   4.960   1.175
 1509TIP3    H2 4473  -0.020   5.071   1.143
 1510TIP3   OH2 4474   5.687   1.087   1.865
 1510TIP3    H1 4475   5.762   1.043   1.906
 1510TIP3    H2 4476   5.715   1.178   1.856
 1511TIP3   OH2 4477   0.600   1.918   2.041
 1511TIP3    H1 4478   0.533   1.971   1.997
 1511TIP3    H2 4479   0.673   1.916   1.979
 1512TIP3   OH2 4480   7.079   4.306   5.358
 1512TIP3    H1 4481   7.139   4.330   5.428
 1512TIP3    H2 4482   7.109   4.356   5.282
 1513TIP3   OH2 4483   7.304   5.218   4.474
 1513TIP3    H1 4484   7.246   5.285   4.437
 1513TIP3    H2 4485   7.376   5.211   4.412
 1514TIP3   OH2 4486   4.817   0.063   4.283
 1514TIP3    H1 4487   4.754   0.110   4.337
 1514TIP3    H2 4488   4.856   0.131   4.227
 1515TIP3   OH2 4489   4.350   0.406   0.576
 1515TIP3    H1 4490   4.305   0.476   0.624
 1515TIP3    H2 4491   4.309   0.407   0.489
 1516TIP3   OH2 4492   3.785   0.597   1.824
 1516TIP3    H1 4493   3.759   0.518   1.777
 1516TIP3    H2 4494   3.853   0.635   1.770
 1517TIP3   OH2 4495   7.260   1.981   2.655
 1517TIP3    H1 4496   7.290   1.924   2.585
 1517TIP3    H2 4497   7.298   2.067   2.635
 1518TIP3   OH2 4498   4.291   5.463   2.551
 1518TIP3    H1 4499   4.248   5.442   2.634
 1518TIP3    H2 4500   4.262   5.394   2.491
 1519TIP3   OH2 4501   2.414   1.964   4.202
 1519TIP3    H1 4502   2.463   2.039   4.234
 1519TIP3    H2 4503   2.379   1.922   4.281
 1520TIP3   OH2 4504   4.606   6.413   2.269
 1520TIP3    H1 4505   4.653   6.432   2.188
 1520TIP3    H2 4506   4.566   6.327   2.254
 1521TIP3   OH2 4507   7.623   6.743   3.959
 1521TIP3    H1 4508   7.625   6.819   4.016
 1521TIP3    H2 4509   7.705   6.697   3.977
 1522TIP3   OH2 4510   0.347   6.726   4.978
 1522TIP3    H1 4511   0.291   6.713   5.054
 1522TIP3    H2 4512   0.287   6.725   4.903
 1523TIP3   OH2 4513   1.843   0.668   0.588
 1523TIP3    H1 4514   1.887   0.732   0.532
 1523TIP3    H2 4515   1.913   0.627   0.639
 1524TIP3   OH2 4516   3.507   7.539   3.713
 1524TIP3    H1 4517   3.573   7.511   3.776
 1524TIP3    H2 4518   3.475   7.457   3.674
 1525TIP3   OH2 4519   7.654   0.314   0.699
 1525TIP3    H1 4520   7.646   0.297   0.605
 1525TIP3    H2 4521   7.567   0.345   0.725
 1526TIP3   OH2 4522   1.237   4.142   4.808
 1526TIP3    H1 4523   1.175   4.069   4.808
 1526TIP3    H2 4524   1.321   4.102   4.828
 1527TIP3   OH2 4525   6.747   6.107   1.048
 1527TIP3    H1 4526   6.825   6.053   1.043
 1527TIP3    H2 4527   6.700   6.089   0.966
 1528TIP3   OH2 4528   5.885   2.633   4.122
 1528TIP3    H1 4529   5.939   2.666   4.050
 1528TIP3    H2 4530   5.870   2.541   4.101
 1529TIP3   OH2 4531   1.659   5.127   5.887
 1529TIP3    H1 4532   1.671   5.206   5.835
 1529TIP3    H2 4533   1.580   5.143   5.938
 1530TIP3   OH2 4534   4.976   6.764   2.786
 1530TIP3    H1 4535   4.911   6.735   2.850
 1530TIP3    H2 4536   4.939   6.845   2.750
 1531TIP3   OH2 4537   0.158   2.008   6.476
 1531TIP3    H1 4538   0.235   1.956   6.500
 1531TIP3    H2 4539   0.136   1.979   6.388
 1532TIP3   OH2 4540   8.001   6.650   2.362
 1532TIP3    H1 4541   8.095   6.655   2.346
 1532TIP3    H2 4542   7.993   6.599   2.443
 1533TIP3   OH2 4543   7.218   5.342   6.315
 1533TIP3    H1 4544   7.195   5.326   6.407
 1533TIP3    H2 4545   7.259   5.260   6.286
 1534TIP3   OH2 4546   0.932   1.907   1.373
 1534TIP3    H1 4547   0.906   1.956   1.451
 1534TIP3    H2 4548   1.025   1.887   1.387
 1535TIP3   OH2 4549   0.677   4.786   5.366
 1535TIP3    H1 4550   0.594   4.740   5.382
 1535TIP3    H2 4551   0.690   4.840   5.444
 1536TIP3   OH2 4552   5.913   6.244   5.950
 1536TIP3    H1 4553   5.829   6.236   5.997
 1536TIP3    H2 4554   5.976   6.200   6.007
 1537TIP3   OH2 4555   6.825   5.219   6.570
 1537TIP3    H1 4556   6.840   5.292   6.630
 1537TIP3    H2 4557   6.780   5.258   6.495
 1538TIP3   OH2 4558   7.187   4.548   0.157
 1538TIP3    H1 4559   7.272   4.504   0.164
 1538TIP3    H2 4560   7.153   4.550   0.246
 1539TIP3   OH2 4561   5.555   5.383   6.678
 1539TIP3    H1 4562   5.460   5.372   6.672
 1539TIP3    H2 4563   5.586   5.372   6.588
 1540TIP3   OH2 4564   4.172   2.396  -0.001
 1540TIP3    H1 4565   4.158   2.302  -0.007
 1540TIP3    H2 4566   4.143   2.419   0.087
 1541TIP3   OH2 4567   1.915   3.144   1.454
 1541TIP3    H1 4568   1.897   3.055   1.426
 1541TIP3    H2 4569   1.835   3.171   1.500
 1542TIP3   OH2 4570   4.338   5.001   5.918
 1542TIP3    H1 4571   4.345   5.096   5.921
 1542TIP3    H2 4572   4.327   4.980   5.825
 1543TIP3   OH2 4573   7.804   7.785   0.962
 1543TIP3    H1 4574   7.819   7.879   0.959
 1543TIP3    H2 4575   7.726   7.771   0.909
 1544TIP3   OH2 4576   4.284   6.048   5.935
 1544TIP3    H1 4577   4.356   5.990   5.958
 1544TIP3    H2 4578   4.283   6.114   6.004
 1545TIP3   OH2 4579   2.076   5.293   1.131
 1545TIP3    H1 4580   2.086   5.301   1.226
 1545TIP3    H2 4581   1.993   5.246   1.120
 1546TIP3   OH2 4582   0.705   1.630   3.606
 1546TIP3    H1 4583   0.730   1.716   3.572
 1546TIP3    H2 4584   0.779   1.573   3.584
 1547TIP3   OH2 4585   5.384   0.489   0.644
 1547TIP3    H1 4586   5.316   0.424   0.660
 1547TIP3    H2 4587   5.422   0.463   0.559
 1548TIP3   OH2 4588   1.807   6.237   4.952
 1548TIP3    H1 4589   1.853   6.212   5.032
 1548TIP3    H2 4590   1.729   6.183   4.951
 1549TIP3   OH2 4591   3.150   1.086   0.972
 1549TIP3    H1 4592   3.083   1.087   1.040
 1549TIP3    H2 4593   3.110   1.132   0.898
 1550TIP3   OH2 4594   2.728   7.373   1.730
 1550TIP3    H1 4595   2.699   7.451   1.683
 1550TIP3    H2 4596   2.824   7.373   1.722
 1551TIP3   OH2 4597   6.698   2.298   5.060
 1551TIP3    H1 4598   6.662   2.385   5.042
 1551TIP3    H2 4599   6.787   2.301   5.026
 1552TIP3   OH2 4600   6.860   3.883   3.417
 1552TIP3    H1 4601   6.897   3.947   3.356
 1552TIP3    H2 4602   6.923   3.811   3.418
 1553TIP3   OH2 4603   7.811   3.169   1.332
 1553TIP3    H1 4604   7.768   3.255   1.334
 1553TIP3    H2 4605   7.740   3.107   1.312
 1554TIP3   OH2 4606   6.936   1.881   1.070
 1554TIP3    H1 4607   6.932   1.786   1.084
 1554TIP3    H2 4608   6.991   1.913   1.141
 1555TIP3   OH2 4609   8.213   2.319   1.858
 1555TIP3    H1 4610   8.173   2.388   1.911
 1555TIP3    H2 4611   8.152   2.246   1.863
 1556TIP3   OH2 4612   0.578   6.891   2.593
 1556TIP3    H1 4613   0.637   6.914   2.665
 1556TIP3    H2 4614   0.617   6.812   2.554
 1557TIP3   OH2 4615   7.221   0.917   3.241
 1557TIP3    H1 4616   7.214   1.000   3.194
 1557TIP3    H2 4617   7.202   0.939   3.332
 1558TIP3   OH2 4618   5.813   0.467   3.156
 1558TIP3    H1 4619   5.873   0.531   3.196
 1558TIP3    H2 4620   5.828   0.387   3.207
 1559TIP3   OH2 4621   3.400   5.598   3.854
 1559TIP3    H1 4622   3.456   5.676   3.853
 1559TIP3    H2 4623   3.444   5.537   3.912
 1560TIP3   OH2 4624   7.414   5.364   3.779
 1560TIP3    H1 4625   7.445   5.278   3.749
 1560TIP3    H2 4626   7.448   5.370   3.869
 1561TIP3   OH2 4627   1.434   3.687   3.571
 1561TIP3    H1 4628   1.472   3.750   3.633
 1561TIP3    H2 4629   1.378   3.632   3.626
 1562TIP3   OH2 4630   3.682   3.061   2.734
 1562TIP3    H1 4631   3.756   3.028   2.786
 1562TIP3    H2 4632   3.720   3.078   2.648
 1563TIP3   OH2 4633   5.288   6.103   1.961
 1563TIP3    H1 4634   5.205   6.086   1.916
 1563TIP3    H2 4635   5.275   6.071   2.050
 1564TIP3   OH2 4636   4.114   3.621   2.316
 1564TIP3    H1 4637   4.204   3.627   2.350
 1564TIP3    H2 4638   4.125   3.629   2.221
 1565TIP3   OH2 4639   5.140   0.823   5.838
 1565TIP3    H1 4640   5.133   0.735   5.800
 1565TIP3    H2 4641   5.152   0.881   5.763
 1566TIP3   OH2 4642   0.245   1.066   4.187
 1566TIP3    H1 4643   0.340   1.074   4.190
 1566TIP3    H2 4644   0.214   1.155   4.202
 1567TIP3   OH2 4645   2.251   7.639   1.036
 1567TIP3    H1 4646   2.199   7.559   1.022
 1567TIP3    H2 4647   2.204   7.707   0.987
 1568TIP3   OH2 4648   0.189   2.414   3.112
 1568TIP3    H1 4649   0.183   2.466   3.192
 1568TIP3    H2 4650   0.205   2.324   3.142
 1569TIP3   OH2 4651   0.759   6.024   0.242
 1569TIP3    H1 4652   0.846   5.987   0.254
 1569TIP3    H2 4653   0.738   6.064   0.327
 1570TIP3   OH2 4654   1.712   2.693   2.598
 1570TIP3    H1 4655   1.737   2.713   2.689
 1570TIP3    H2 4656   1.733   2.600   2.588
 1571TIP3   OH2 4657   6.153   0.873   4.082
 1571TIP3    H1 4658   6.101   0.839   4.009
 1571TIP3    H2 4659   6.174   0.963   4.056
 1572TIP3   OH2 4660   5.935   7.626   3.676
 1572TIP3    H1 4661   5.842   7.634   3.654
 1572TIP3    H2 4662   5.939   7.639   3.771
 1573TIP3   OH2 4663   1.247   6.742   4.305
 1573TIP3    H1 4664   1.214   6.783   4.385
 1573TIP3    H2 4665   1.174   6.746   4.243
 1574TIP3   OH2 4666   5.551   6.079   5.347
 1574TIP3    H1 4667   5.622   6.077   5.411
 1574TIP3    H2 4668   5.471   6.083   5.399
 1575TIP3   OH2 4669   7.427   4.436   0.016
 1575TIP3    H1 4670   7.451   4.504  -0.046
 1575TIP3    H2 4671   7.498   4.372   0.011
 1576TIP3   OH2 4672   5.092   4.858   0.203
 1576TIP3    H1 4673   5.102   4.850   0.108
 1576TIP3    H2 4674   5.173   4.823   0.239
 1577TIP3   OH2 4675   5.057   1.747   3.360
 1577TIP3    H1 4676   4.971   1.711   3.380
 1577TIP3    H2 4677   5.062   1.747   3.264
 1578TIP3   OH2 4678   5.391   5.338   5.595
 1578TIP3    H1 4679   5.414   5.427   5.621
 1578TIP3    H2 4680   5.476   5.293   5.588
 1579TIP3   OH2 4681   3.302   0.602   1.126
 1579TIP3    H1 4682   3.272   0.660   1.056
 1579TIP3    H2 4683   3.391   0.631   1.145
 1580TIP3   OH2 4684   7.284   3.650   4.433
 1580TIP3    H1 4685   7.234   3.690   4.504
 1580TIP3    H2 4686   7.222   3.644   4.360
 1581TIP3   OH2 4687   6.926   2.361   4.025
 1581TIP3    H1 4688   6.916   2.365   3.930
 1581TIP3    H2 4689   6.955   2.448   4.051
 1582TIP3   OH2 4690   3.017   1.242   6.379
 1582TIP3    H1 4691   2.928   1.275   6.384
 1582TIP3    H2 4692   3.028   1.190   6.458
 1583TIP3   OH2 4693   3.393   1.353   6.068
 1583TIP3    H1 4694   3.334   1.305   6.127
 1583TIP3    H2 4695   3.412   1.291   5.998
 1584TIP3   OH2 4696   0.585   3.560   3.026
 1584TIP3    H1 4697   0.635   3.639   3.007
 1584TIP3    H2 4698   0.650   3.490   3.033
 1585TIP3   OH2 4699   1.607   2.427   4.590
 1585TIP3    H1 4700   1.615   2.519   4.616
 1585TIP3    H2 4701   1.687   2.410   4.539
 1586TIP3   OH2 4702   3.691   6.714   2.774
 1586TIP3    H1 4703   3.626   6.783   2.764
 1586TIP3    H2 4704   3.659   6.642   2.721
 1587TIP3   OH2 4705   3.089   1.710   3.160
 1587TIP3    H1 4706   3.058   1.793   3.197
 1587TIP3    H2 4707   3.067   1.715   3.067
 1588TIP3   OH2 4708   0.134   5.171   6.559
 1588TIP3    H1 4709   0.228   5.157   6.564
 1588TIP3    H2 4710   0.105   5.171   6.650
 1589TIP3   OH2 4711   1.330   7.011   2.989
 1589TIP3    H1 4712   1.372   7.097   2.988
 1589TIP3    H2 4713   1.253   7.021   2.933
 1590TIP3   OH2 4714   6.886   0.314   0.849
 1590TIP3    H1 4715   6.929   0.400   0.853
 1590TIP3    H2 4716   6.947   0.254   0.890
 1591TIP3   OH2 4717   1.172   5.933   6.070
 1591TIP3    H1 4718   1.108   6.004   6.073
 1591TIP3    H2 4719   1.240   5.964   6.010
 1592TIP3   OH2 4720   1.892   6.296   5.210
 1592TIP3    H1 4721   1.980   6.279   5.242
 1592TIP3    H2 4722   1.839   6.223   5.244
 1593TIP3   OH2 4723   0.023   3.295   5.142
 1593TIP3    H1 4724   0.063   3.380   5.160
 1593TIP3    H2 4725   0.090   3.246   5.095
 1594TIP3   OH2 4726   6.005   5.449   5.966
 1594TIP3    H1 4727   6.029   5.542   5.969
 1594TIP3    H2 4728   5.995   5.430   5.872
 1595TIP3   OH2 4729   7.256   6.308   1.603
 1595TIP3    H1 4730   7.197   6.382   1.588
 1595TIP3    H2 4731   7.315   6.339   1.672
 1596TIP3   OH2 4732   4.374   3.372   4.376
 1596TIP3    H1 4733   4.383   3.321   4.457
 1596TIP3    H2 4734   4.431   3.447   4.388
 1597TIP3   OH2 4735   7.073   1.099   5.468
 1597TIP3    H1 4736   7.021   1.056   5.536
 1597TIP3    H2 4737   7.104   1.180   5.509
 1598TIP3   OH2 4738   7.931   3.493   6.056
 1598TIP3    H1 4739   7.854   3.450   6.019
 1598TIP3    H2 4740   7.930   3.580   6.018
 1599TIP3   OH2 4741   7.457   6.818   1.410
 1599TIP3    H1 4742   7.396   6.877   1.455
 1599TIP3    H2 4743   7.481   6.863   1.330
 1600TIP3   OH2 4744   7.601   5.498   5.309
 1600TIP3    H1 4745   7.631   5.575   5.259
 1600TIP3    H2 4746   7.507   5.512   5.319
 1601TIP3   OH2 4747   5.284   0.199   1.895
 1601TIP3    H1 4748   5.216   0.139   1.925
 1601TIP3    H2 4749   5.324   0.156   1.820
 1602TIP3   OH2 4750   4.162   5.862   5.793
 1602TIP3    H1 4751   4.070   5.887   5.793
 1602TIP3    H2 4752   4.205   5.927   5.848
 1603TIP3   OH2 4753   8.112   6.819   3.998
 1603TIP3    H1 4754   8.124   6.725   4.015
 1603TIP3    H2 4755   8.144   6.831   3.909
 1604TIP3   OH2 4756   6.225   0.456   6.716
 1604TIP3    H1 4757   6.194   0.390   6.777
 1604TIP3    H2 4758   6.321   0.454   6.724
 1605TIP3   OH2 4759   6.243   6.522   6.435
 1605TIP3    H1 4760   6.247   6.447   6.376
 1605TIP3    H2 4761   6.332   6.559   6.432
 1606TIP3   OH2 4762   4.505   3.229   6.652
 1606TIP3    H1 4763   4.471   3.167   6.717
 1606TIP3    H2 4764   4.489   3.315   6.691
 1607TIP3   OH2 4765   5.472   2.817   4.192
 1607TIP3    H1 4766   5.551   2.858   4.227
 1607TIP3    H2 4767   5.503   2.760   4.122
 1608TIP3   OH2 4768   6.266   5.171   6.582
 1608TIP3    H1 4769   6.273   5.266   6.596
 1608TIP3    H2 4770   6.182   5.161   6.536
 1609TIP3   OH2 4771   6.663   2.324   1.003
 1609TIP3    H1 4772   6.626   2.372   1.077
 1609TIP3    H2 4773   6.610   2.245   0.997
 1610TIP3   OH2 4774   4.069   5.130   3.240
 1610TIP3    H1 4775   4.070   5.211   3.291
 1610TIP3    H2 4776   4.054   5.061   3.305
 1611TIP3   OH2 4777   6.393   3.362   5.721
 1611TIP3    H1 4778   6.412   3.335   5.631
 1611TIP3    H2 4779   6.462   3.320   5.774
 1612TIP3   OH2 4780   4.239   3.492   3.224
 1612TIP3    H1 4781   4.240   3.583   3.253
 1612TIP3    H2 4782   4.245   3.441   3.305
 1613TIP3   OH2 4783   4.388   4.772   3.077
 1613TIP3    H1 4784   4.329   4.699   3.057
 1613TIP3    H2 4785   4.436   4.743   3.154
 1614TIP3   OH2 4786   3.553   0.745   2.802
 1614TIP3    H1 4787   3.525   0.743   2.893
 1614TIP3    H2 4788   3.472   0.759   2.752
 1615TIP3   OH2 4789   4.875   2.146   0.076
 1615TIP3    H1 4790   4.849   2.175  -0.012
 1615TIP3    H2 4791   4.908   2.225   0.118
 1616TIP3   OH2 4792   2.637   2.598   5.330
 1616TIP3    H1 4793   2.664   2.596   5.422
 1616TIP3    H2 4794   2.573   2.669   5.324
 1617TIP3   OH2 4795   6.190   5.581   0.727
 1617TIP3    H1 4796   6.127   5.510   0.720
 1617TIP3    H2 4797   6.160   5.633   0.802
 1618TIP3   OH2 4798   3.936   0.745   4.331
 1618TIP3    H1 4799   4.022   0.708   4.309
 1618TIP3    H2 4800   3.887   0.671   4.367
 1619TIP3   OH2 4801   6.936   6.902   1.226
 1619TIP3    H1 4802   7.026   6.935   1.218
 1619TIP3    H2 4803   6.935   6.854   1.308
 1620TIP3   OH2 4804   0.085   6.780   5.587
 1620TIP3    H1 4805   0.026   6.767   5.662
 1620TIP3    H2 4806   0.171   6.798   5.627
 1621TIP3   OH2 4807   6.784   2.496   2.868
 1621TIP3    H1 4808   6.728   2.534   2.800
 1621TIP3    H2 4809   6.724   2.473   2.939
 1622TIP3   OH2 4810   4.906   6.585   3.303
 1622TIP3    H1 4811   4.812   6.601   3.300
 1622TIP3    H2 4812   4.914   6.490   3.316
 1623TIP3   OH2 4813   1.758   1.262   1.339
 1623TIP3    H1 4814   1.688   1.327   1.340
 1623TIP3    H2 4815   1.838   1.313   1.335
 1624TIP3   OH2 4816   8.131   4.818   0.161
 1624TIP3    H1 4817   8.118   4.912   0.151
 1624TIP3    H2 4818   8.084   4.796   0.242
 1625TIP3   OH2 4819   2.231   2.188   6.112
 1625TIP3    H1 4820   2.198   2.248   6.045
 1625TIP3    H2 4821   2.284   2.243   6.170
 1626TIP3   OH2 4822   2.872   7.620   0.399
 1626TIP3    H1 4823   2.848   7.536   0.439
 1626TIP3    H2 4824   2.789   7.668   0.393
 1627TIP3   OH2 4825   3.176   2.270   4.090
 1627TIP3    H1 4826   3.102   2.234   4.140
 1627TIP3    H2 4827   3.234   2.306   4.157
 1628TIP3   OH2 4828   6.682   3.612   2.035
 1628TIP3    H1 4829   6.730   3.622   2.118
 1628TIP3    H2 4830   6.590   3.619   2.060
 1629TIP3   OH2 4831   4.635   5.440   2.128
 1629TIP3    H1 4832   4.710   5.454   2.185
 1629TIP3    H2 4833   4.665   5.376   2.063
 1630TIP3   OH2 4834   6.626   4.125   2.739
 1630TIP3    H1 4835   6.604   4.155   2.827
 1630TIP3    H2 4836   6.544   4.093   2.702
 1631TIP3   OH2 4837   7.952   2.160   0.953
 1631TIP3    H1 4838   8.041   2.177   0.920
 1631TIP3    H2 4839   7.946   2.212   1.033
 1632TIP3   OH2 4840   7.802   1.208   4.656
 1632TIP3    H1 4841   7.712   1.201   4.623
 1632TIP3    H2 4842   7.831   1.294   4.625
 1633TIP3   OH2 4843   6.036   2.979   1.377
 1633TIP3    H1 4844   6.018   2.891   1.344
 1633TIP3    H2 4845   6.054   3.030   1.298
 1634TIP3   OH2 4846   7.066   6.567   3.977
 1634TIP3    H1 4847   7.137   6.544   3.918
 1634TIP3    H2 4848   6.995   6.594   3.919
 1635TIP3   OH2 4849   6.431   6.676   4.786
 1635TIP3    H1 4850   6.503   6.736   4.804
 1635TIP3    H2 4851   6.354   6.732   4.775
 1636TIP3   OH2 4852   5.257   7.569   2.200
 1636TIP3    H1 4853   5.309   7.498   2.164
 1636TIP3    H2 4854   5.171   7.531   2.215
 1637TIP3   OH2 4855   0.570   3.512   5.158
 1637TIP3    H1 4856   0.647   3.458   5.141
 1637TIP3    H2 4857   0.554   3.504   5.252
 1638TIP3   OH2 4858   5.763   5.738   3.786
 1638TIP3    H1 4859   5.809   5.821   3.800
 1638TIP3    H2 4860   5.739   5.708   3.873
 1639TIP3   OH2 4861   0.729   3.631   5.618
 1639TIP3    H1 4862   0.821   3.641   5.645
 1639TIP3    H2 4863   0.693   3.720   5.624
 1640TIP3   OH2 4864   8.236   5.298   3.906
 1640TIP3    H1 4865   8.165   5.360   3.917
 1640TIP3    H2 4866   8.224   5.263   3.818
 1641TIP3   OH2 4867   3.642   3.815   3.923
 1641TIP3    H1 4868   3.736   3.804   3.934
 1641TIP3    H2 4869   3.626   3.907   3.946
 1642TIP3   OH2 4870   7.077   3.115   0.065
 1642TIP3    H1 4871   6.999   3.102   0.118
 1642TIP3    H2 4872   7.145   3.138   0.128
 1643TIP3   OH2 4873   0.530   7.736   0.075
 1643TIP3    H1 4874   0.598   7.779   0.023
 1643TIP3    H2 4875   0.448   7.759   0.031
 1644TIP3   OH2 4876   8.272   4.071   4.008
 1644TIP3    H1 4877   8.244   4.067   4.099
 1644TIP3    H2 4878   8.324   3.991   3.995
 1645TIP3   OH2 4879   5.639   6.397   0.614
 1645TIP3    H1 4880   5.649   6.474   0.669
 1645TIP3    H2 4881   5.701   6.411   0.542
 1646TIP3   OH2 4882   5.381   3.913   4.249
 1646TIP3    H1 4883   5.410   3.954   4.168
 1646TIP3    H2 4884   5.392   3.981   4.316
 1647TIP3   OH2 4885   2.694   0.947   5.964
 1647TIP3    H1 4886   2.638   1.003   6.017
 1647TIP3    H2 4887   2.783   0.971   5.988
 1648TIP3   OH2 4888   0.388   0.724   5.088
 1648TIP3    H1 4889   0.381   0.798   5.148
 1648TIP3    H2 4890   0.453   0.667   5.127
 1649TIP3   OH2 4891   0.095   0.992   4.925
 1649TIP3    H1 4892   0.113   0.971   4.834
 1649TIP3    H2 4893   0.059   0.912   4.962
 1650TIP3   OH2 4894   4.836   6.008   2.614
 1650TIP3    H1 4895   4.841   5.916   2.589
 1650TIP3    H2 4896   4.854   6.009   2.708
 1651TIP3   OH2 4897   0.600   3.213   2.066
 1651TIP3    H1 4898   0.632   3.140   2.013
 1651TIP3    H2 4899   0.641   3.200   2.152
 1652TIP3   OH2 4900   2.104   2.163   0.315
 1652TIP3    H1 4901   2.013   2.184   0.336
 1652TIP3    H2 4902   2.100   2.125   0.227
 1653TIP3   OH2 4903   4.464   3.351   4.115
 1653TIP3    H1 4904   4.438   3.344   4.207
 1653TIP3    H2 4905   4.519   3.430   4.112
 1654TIP3   OH2 4906   7.134   4.788   6.461
 1654TIP3    H1 4907   7.060   4.847   6.469
 1654TIP3    H2 4908   7.159   4.793   6.368
 1655TIP3   OH2 4909   4.540   5.226   5.158
 1655TIP3    H1 4910   4.563   5.310   5.118
 1655TIP3    H2 4911   4.499   5.175   5.088
 1656TIP3   OH2 4912   2.354   7.813   0.407
 1656TIP3    H1 4913   2.332   7.906   0.414
 1656TIP3    H2 4914   2.278   7.772   0.367
 1657TIP3   OH2 4915   6.070   3.807   6.217
 1657TIP3    H1 4916   5.995   3.750   6.235
 1657TIP3    H2 4917   6.043   3.858   6.141
 1658TIP3   OH2 4918   7.336   4.787   1.939
 1658TIP3    H1 4919   7.277   4.854   1.905
 1658TIP3    H2 4920   7.368   4.741   1.861
 1659TIP3   OH2 4921   5.644   7.013   3.222
 1659TIP3    H1 4922   5.572   7.032   3.162
 1659TIP3    H2 4923   5.665   6.921   3.205
 1660TIP3   OH2 4924   7.401   6.977   2.113
 1660TIP3    H1 4925   7.413   6.934   2.029
 1660TIP3    H2 4926   7.489   6.990   2.146
 1661TIP3   OH2 4927   0.854   1.873   3.447
 1661TIP3    H1 4928   0.894   1.925   3.516
 1661TIP3    H2 4929   0.927   1.845   3.392
 1662TIP3   OH2 4930   0.939   7.562   5.573
 1662TIP3    H1 4931   0.865   7.510   5.542
 1662TIP3    H2 4932   0.991   7.579   5.495
 1663TIP3   OH2 4933   6.334   4.287   5.325
 1663TIP3    H1 4934   6.427   4.267   5.329
 1663TIP3    H2 4935   6.295   4.230   5.391
 1664TIP3   OH2 4936   4.437   5.560   1.326
 1664TIP3    H1 4937   4.459   5.623   1.395
 1664TIP3    H2 4938   4.387   5.492   1.371
 1665TIP3   OH2 4939   6.214   0.747   6.676
 1665TIP3    H1 4940   6.301   0.787   6.679
 1665TIP3    H2 4941   6.230   0.654   6.693
 1666TIP3   OH2 4942   4.538   4.015   0.849
 1666TIP3    H1 4943   4.606   3.961   0.888
 1666TIP3    H2 4944   4.569   4.105   0.861
 1667TIP3   OH2 4945   0.902   2.280   2.065
 1667TIP3    H1 4946   0.907   2.185   2.076
 1667TIP3    H2 4947   0.981   2.303   2.016
 1668TIP3   OH2 4948   4.193   5.842   6.485
 1668TIP3    H1 4949   4.147   5.902   6.544
 1668TIP3    H2 4950   4.255   5.795   6.542
 1669TIP3   OH2 4951   6.622   3.723   4.803
 1669TIP3    H1 4952   6.701   3.732   4.857
 1669TIP3    H2 4953   6.654   3.695   4.717
 1670TIP3   OH2 4954   1.705   1.378   3.382
 1670TIP3    H1 4955   1.736   1.370   3.472
 1670TIP3    H2 4956   1.632   1.316   3.376
 1671TIP3   OH2 4957   3.401   2.158   2.331
 1671TIP3    H1 4958   3.377   2.215   2.404
 1671TIP3    H2 4959   3.357   2.195   2.255
 1672TIP3   OH2 4960   6.568   5.567   5.132
 1672TIP3    H1 4961   6.587   5.627   5.204
 1672TIP3    H2 4962   6.610   5.485   5.157
 1673TIP3   OH2 4963   8.189   2.512   1.143
 1673TIP3    H1 4964   8.199   2.571   1.217
 1673TIP3    H2 4965   8.214   2.426   1.177
 1674TIP3   OH2 4966   3.470   3.666   2.476
 1674TIP3    H1 4967   3.482   3.722   2.400
 1674TIP3    H2 4968   3.403   3.603   2.449
 1675TIP3   OH2 4969   7.193   2.370   6.203
 1675TIP3    H1 4970   7.220   2.372   6.111
 1675TIP3    H2 4971   7.272   2.396   6.251
 1676TIP3   OH2 4972   4.618   5.273   3.565
 1676TIP3    H1 4973   4.525   5.252   3.561
 1676TIP3    H2 4974   4.645   5.283   3.474
 1677TIP3   OH2 4975   8.110   3.997   2.019
 1677TIP3    H1 4976   8.083   3.928   2.080
 1677TIP3    H2 4977   8.031   4.020   1.971
 1678TIP3   OH2 4978   8.136   1.480   5.863
 1678TIP3    H1 4979   8.155   1.398   5.818
 1678TIP3    H2 4980   8.206   1.489   5.928
 1679TIP3   OH2 4981   5.180   1.538   3.510
 1679TIP3    H1 4982   5.166   1.474   3.440
 1679TIP3    H2 4983   5.150   1.621   3.473
 1680TIP3   OH2 4984   7.133   5.980   5.756
 1680TIP3    H1 4985   7.211   5.942   5.796
 1680TIP3    H2 4986   7.103   6.045   5.819
 1681TIP3   OH2 4987   0.059   2.733   2.749
 1681TIP3    H1 4988   0.114   2.655   2.751
 1681TIP3    H2 4989   0.104   2.792   2.688
 1682TIP3   OH2 4990   0.205   3.650   2.748
 1682TIP3    H1 4991   0.259   3.679   2.675
 1682TIP3    H2 4992   0.267   3.611   2.810
 1683TIP3   OH2 4993   7.718   3.095   2.622
 1683TIP3    H1 4994   7.665   3.031   2.670
 1683TIP3    H2 4995   7.763   3.145   2.690
 1684TIP3   OH2 4996   4.429   6.206   1.020
 1684TIP3    H1 4997   4.405   6.198   1.112
 1684TIP3    H2 4998   4.368   6.270   0.984
 1685TIP3   OH2 4999   3.351   2.880   1.316
 1685TIP3    H1 5000   3.327   2.965   1.351
 1685TIP3    H2 5001   3.374   2.897   1.224
 1686TIP3   OH2 5002   7.747   1.802   1.787
 1686TIP3    H1 5003   7.668   1.846   1.819
 1686TIP3    H2 5004   7.747   1.816   1.693
 1687TIP3   OH2 5005   6.333   6.668   4.224
 1687TIP3    H1 5006   6.307   6.756   4.194
 1687TIP3    H2 5007   6.428   6.667   4.216
 1688TIP3   OH2 5008   7.218   3.493   5.713
 1688TIP3    H1 5009   7.199   3.518   5.804
 1688TIP3    H2 5010   7.307   3.523   5.698
 1689TIP3   OH2 5011   2.045   7.524   4.110
 1689TIP3    H1 5012   1.999   7.447   4.144
 1689TIP3    H2 5013   1.985   7.562   4.045
 1690TIP3   OH2 5014   5.210   0.734   3.086
 1690TIP3    H1 5015   5.276   0.669   3.062
 1690TIP3    H2 5016   5.139   0.683   3.125
 1691TIP3   OH2 5017   7.757   6.312   1.835
 1691TIP3    H1 5018   7.714   6.304   1.920
 1691TIP3    H2 5019   7.775   6.405   1.825
 1692TIP3   OH2 5020   0.504   3.874   2.100
 1692TIP3    H1 5021   0.447   3.859   2.025
 1692TIP3    H2 5022   0.531   3.787   2.128
 1693TIP3   OH2 5023   1.267   5.826   4.095
 1693TIP3    H1 5024   1.354   5.800   4.125
 1693TIP3    H2 5025   1.248   5.768   4.021
 1694TIP3   OH2 5026   3.121   0.503   0.162
 1694TIP3    H1 5027   3.207   0.469   0.187
 1694TIP3    H2 5028   3.059   0.453   0.216
 1695TIP3   OH2 5029   7.533   2.464   1.870
 1695TIP3    H1 5030   7.453   2.417   1.893
 1695TIP3    H2 5031   7.589   2.399   1.827
 1696TIP3   OH2 5032   8.174   3.254   4.897
 1696TIP3    H1 5033   8.113   3.316   4.939
 1696TIP3    H2 5034   8.239   3.236   4.965
 1697TIP3   OH2 5035   1.842   5.353   5.986
 1697TIP3    H1 5036   1.893   5.273   6.000
 1697TIP3    H2 5037   1.835   5.360   5.891
 1698TIP3   OH2 5038   1.404   4.412   3.148
 1698TIP3    H1 5039   1.473   4.452   3.201
 1698TIP3    H2 5040   1.325   4.462   3.168
 1699TIP3   OH2 5041   2.881   1.860   2.773
 1699TIP3    H1 5042   2.923   1.802   2.836
 1699TIP3    H2 5043   2.818   1.911   2.824
 1700TIP3   OH2 5044   7.226   2.216   5.678
 1700TIP3    H1 5045   7.195   2.227   5.588
 1700TIP3    H2 5046   7.319   2.240   5.674
 1701TIP3   OH2 5047   1.337   4.990   0.696
 1701TIP3    H1 5048   1.350   5.078   0.731
 1701TIP3    H2 5049   1.351   4.932   0.771
 1702TIP3   OH2 5050   4.238   6.844   5.355
 1702TIP3    H1 5051   4.154   6.807   5.383
 1702TIP3    H2 5052   4.214   6.922   5.304
 1703TIP3   OH2 5053   4.138   5.716   1.706
 1703TIP3    H1 5054   4.117   5.694   1.615
 1703TIP3    H2 5055   4.055   5.748   1.742
 1704TIP3   OH2 5056   0.929   2.139   2.698
 1704TIP3    H1 5057   0.975   2.202   2.643
 1704TIP3    H2 5058   0.841   2.133   2.660
 1705TIP3   OH2 5059   5.963   5.027   4.683
 1705TIP3    H1 5060   6.008   4.980   4.612
 1705TIP3    H2 5061   5.933   5.108   4.643
 1706TIP3   OH2 5062   7.150   5.328   0.029
 1706TIP3    H1 5063   7.147   5.330  -0.067
 1706TIP3    H2 5064   7.243   5.319   0.050
 1707TIP3   OH2 5065   7.891   1.770   4.315
 1707TIP3    H1 5066   7.845   1.849   4.345
 1707TIP3    H2 5067   7.953   1.751   4.385
 1708TIP3   OH2 5068   6.517   7.605   1.729
 1708TIP3    H1 5069   6.455   7.648   1.670
 1708TIP3    H2 5070   6.462   7.572   1.801
 1709TIP3   OH2 5071   2.757   6.191   2.455
 1709TIP3    H1 5072   2.773   6.201   2.549
 1709TIP3    H2 5073   2.666   6.162   2.449
 1710TIP3   OH2 5074   2.079   5.388   3.171
 1710TIP3    H1 5075   2.045   5.424   3.089
 1710TIP3    H2 5076   2.017   5.318   3.193
 1711TIP3   OH2 5077   3.607   0.221   1.114
 1711TIP3    H1 5078   3.518   0.257   1.114
 1711TIP3    H2 5079   3.641   0.241   1.201
 1712TIP3   OH2 5080   0.122   1.767   3.687
 1712TIP3    H1 5081   0.077   1.851   3.678
 1712TIP3    H2 5082   0.206   1.788   3.727
 1713TIP3   OH2 5083   2.896   0.203   1.345
 1713TIP3    H1 5084   2.810   0.230   1.376
 1713TIP3    H2 5085   2.905   0.245   1.259
 1714TIP3   OH2 5086   0.727   4.373   2.270
 1714TIP3    H1 5087   0.815   4.373   2.233
 1714TIP3    H2 5088   0.692   4.286   2.249
 1715TIP3   OH2 5089   7.144   6.987   1.868
 1715TIP3    H1 5090   7.054   7.015   1.848
 1715TIP3    H2 5091   7.134   6.932   1.947
 1716TIP3   OH2 5092   7.038   1.538   3.623
 1716TIP3    H1 5093   6.982   1.613   3.602
 1716TIP3    H2 5094   6.979   1.462   3.619
 1717TIP3   OH2 5095   1.051   6.695   2.031
 1717TIP3    H1 5096   1.143   6.675   2.051
 1717TIP3    H2 5097   1.026   6.763   2.093
 1718TIP3   OH2 5098   0.519   5.548   2.113
 1718TIP3    H1 5099   0.435   5.582   2.145
 1718TIP3    H2 5100   0.502   5.525   2.021
 1719TIP3   OH2 5101   1.359   2.423   5.330
 1719TIP3    H1 5102   1.378   2.514   5.308
 1719TIP3    H2 5103   1.442   2.387   5.360
 1720TIP3   OH2 5104   5.492   1.342   1.279
 1720TIP3    H1 5105   5.570   1.293   1.254
 1720TIP3    H2 5106   5.492   1.339   1.375
 1721TIP3   OH2 5107   6.214   2.972   2.076
 1721TIP3    H1 5108   6.305   2.941   2.076
 1721TIP3    H2 5109   6.187   2.968   1.985
 1722TIP3   OH2 5110   5.293   6.424   0.933
 1722TIP3    H1 5111   5.299   6.469   0.849
 1722TIP3    H2 5112   5.368   6.365   0.934
 1723TIP3   OH2 5113   1.480   1.576   3.389
 1723TIP3    H1 5114   1.403   1.529   3.357
 1723TIP3    H2 5115   1.546   1.507   3.402
 1724TIP3   OH2 5116   6.176   5.668   1.129
 1724TIP3    H1 5117   6.177   5.614   1.050
 1724TIP3    H2 5118   6.145   5.754   1.099
 1725TIP3   OH2 5119   8.028   0.583   0.009
 1725TIP3    H1 5120   8.005   0.617   0.096
 1725TIP3    H2 5121   8.023   0.659  -0.049
 1726TIP3   OH2 5122   5.404   6.782   3.589
 1726TIP3    H1 5123   5.343   6.741   3.527
 1726TIP3    H2 5124   5.388   6.737   3.672
 1727TIP3   OH2 5125   6.877   1.542   5.439
 1727TIP3    H1 5126   6.796   1.580   5.471
 1727TIP3    H2 5127   6.906   1.601   5.370
 1728TIP3   OH2 5128   1.280   6.246   6.580
 1728TIP3    H1 5129   1.361   6.259   6.531
 1728TIP3    H2 5130   1.262   6.330   6.621
 1729TIP3   OH2 5131   4.086   0.328   5.131
 1729TIP3    H1 5132   4.092   0.249   5.186
 1729TIP3    H2 5133   4.138   0.307   5.054
 1730TIP3   OH2 5134   5.294   0.014   3.143
 1730TIP3    H1 5135   5.200  -0.000   3.138
 1730TIP3    H2 5136   5.305   0.109   3.138
 1731TIP3   OH2 5137   3.234   7.183   0.308
 1731TIP3    H1 5138   3.244   7.230   0.391
 1731TIP3    H2 5139   3.152   7.217   0.271
 1732TIP3   OH2 5140   0.736   1.654   0.783
 1732TIP3    H1 5141   0.666   1.657   0.718
 1732TIP3    H2 5142   0.740   1.562   0.809
 1733TIP3   OH2 5143   6.527   5.108   4.332
 1733TIP3    H1 5144   6.592   5.038   4.335
 1733TIP3    H2 5145   6.463   5.086   4.400
 1734TIP3   OH2 5146   5.993   4.189   1.018
 1734TIP3    H1 5147   5.918   4.248   1.011
 1734TIP3    H2 5148   5.960   4.114   1.068
 1735TIP3   OH2 5149   4.048   6.958   2.857
 1735TIP3    H1 5150   3.973   6.987   2.804
 1735TIP3    H2 5151   4.037   6.864   2.865
 1736TIP3   OH2 5152   4.318   3.695   4.535
 1736TIP3    H1 5153   4.321   3.653   4.621
 1736TIP3    H2 5154   4.388   3.653   4.485
 1737TIP3   OH2 5155   1.908   6.526   2.544
 1737TIP3    H1 5156   1.830   6.497   2.591
 1737TIP3    H2 5157   1.981   6.489   2.594
 1738TIP3   OH2 5158   0.674   7.704   2.536
 1738TIP3    H1 5159   0.661   7.611   2.554
 1738TIP3    H2 5160   0.747   7.729   2.592
 1739TIP3   OH2 5161   4.053   3.190   5.511
 1739TIP3    H1 5162   4.121   3.246   5.548
 1739TIP3    H2 5163   4.072   3.189   5.417
 1740TIP3   OH2 5164   2.143   1.912   1.086
 1740TIP3    H1 5165   2.141   1.935   0.993
 1740TIP3    H2 5166   2.170   1.993   1.130
 1741TIP3   OH2 5167   0.899   0.567   1.862
 1741TIP3    H1 5168   0.939   0.642   1.818
 1741TIP3    H2 5169   0.866   0.603   1.944
 1742TIP3   OH2 5170   3.896   3.983   6.716
 1742TIP3    H1 5171   3.922   4.026   6.797
 1742TIP3    H2 5172   3.844   4.048   6.669
 1743TIP3   OH2 5173   3.405   2.693   0.679
 1743TIP3    H1 5174   3.501   2.687   0.683
 1743TIP3    H2 5175   3.388   2.750   0.604
 1744TIP3   OH2 5176   7.971   3.298   4.214
 1744TIP3    H1 5177   8.027   3.342   4.279
 1744TIP3    H2 5178   7.956   3.364   4.147
 1745TIP3   OH2 5179   0.498   6.220   0.981
 1745TIP3    H1 5180   0.427   6.270   0.939
 1745TIP3    H2 5181   0.530   6.278   1.050
 1746TIP3   OH2 5182   5.270   7.084   2.177
 1746TIP3    H1 5183   5.338   7.129   2.227
 1746TIP3    H2 5184   5.230   7.152   2.124
 1747TIP3   OH2 5185   0.029   4.356   2.940
 1747TIP3    H1 5186   0.046   4.263   2.950
 1747TIP3    H2 5187  -0.035   4.362   2.869
 1748TIP3   OH2 5188   3.649   6.199   1.968
 1748TIP3    H1 5189   3.569   6.182   1.918
 1748TIP3    H2 5190   3.719   6.164   1.912
 1749TIP3   OH2 5191   7.719   0.619   1.907
 1749TIP3    H1 5192   7.808   0.639   1.879
 1749TIP3    H2 5193   7.725   0.530   1.942
 1750TIP3   OH2 5194   0.702   2.690   3.978
 1750TIP3    H1 5195   0.793   2.694   4.009
 1750TIP3    H2 5196   0.698   2.607   3.930
 1751TIP3   OH2 5197   6.044   5.471   2.376
 1751TIP3    H1 5198   6.102   5.396   2.364
 1751TIP3    H2 5199   6.001   5.482   2.291
 1752TIP3   OH2 5200   3.915   4.889   0.005
 1752TIP3    H1 5201   3.891   4.949   0.075
 1752TIP3    H2 5202   3.832   4.863  -0.034
 1753TIP3   OH2 5203   2.645   7.665   6.687
 1753TIP3    H1 5204   2.621   7.573   6.699
 1753TIP3    H2 5205   2.741   7.666   6.695
 1754TIP3   OH2 5206   1.338   2.546   2.594
 1754TIP3    H1 5207   1.272   2.540   2.663
 1754TIP3    H2 5208   1.340   2.459   2.555
 1755TIP3   OH2 5209   2.682   5.966   2.652
 1755TIP3    H1 5210   2.598   5.935   2.619
 1755TIP3    H2 5211   2.684   5.938   2.743
 1756TIP3   OH2 5212   5.110   3.004   1.220
 1756TIP3    H1 5213   5.128   2.939   1.151
 1756TIP3    H2 5214   5.172   2.982   1.289
 1757TIP3   OH2 5215   6.256   0.797   2.806
 1757TIP3    H1 5216   6.249   0.702   2.798
 1757TIP3    H2 5217   6.169   0.829   2.781
 1758TIP3   OH2 5218   1.214   5.816   5.734
 1758TIP3    H1 5219   1.193   5.734   5.779
 1758TIP3    H2 5220   1.271   5.863   5.794
 1759TIP3   OH2 5221   0.836   7.758   5.365
 1759TIP3    H1 5222   0.829   7.818   5.291
 1759TIP3    H2 5223   0.915   7.706   5.347
 1760TIP3   OH2 5224   5.235   0.432   1.726
 1760TIP3    H1 5225   5.225   0.373   1.801
 1760TIP3    H2 5226   5.164   0.495   1.735
 1761TIP3   OH2 5227   7.549   6.225   1.685
 1761TIP3    H1 5228   7.614   6.242   1.754
 1761TIP3    H2 5229   7.542   6.309   1.640
 1762TIP3   OH2 5230   1.780   2.325   3.217
 1762TIP3    H1 5231   1.737   2.340   3.301
 1762TIP3    H2 5232   1.870   2.355   3.230
 1763TIP3   OH2 5233   5.889   3.054   1.076
 1763TIP3    H1 5234   5.896   3.137   1.123
 1763TIP3    H2 5235   5.914   3.075   0.986
 1764TIP3   OH2 5236   5.263   7.000   5.755
 1764TIP3    H1 5237   5.230   6.955   5.677
 1764TIP3    H2 5238   5.358   6.988   5.752
 1765TIP3   OH2 5239   0.864   0.917   1.288
 1765TIP3    H1 5240   0.906   0.878   1.212
 1765TIP3    H2 5241   0.774   0.884   1.286
 1766TIP3   OH2 5242   7.200   0.351   1.061
 1766TIP3    H1 5243   7.190   0.310   0.976
 1766TIP3    H2 5244   7.282   0.316   1.096
 1767TIP3   OH2 5245   3.877   6.897   4.842
 1767TIP3    H1 5246   3.918   6.824   4.888
 1767TIP3    H2 5247   3.949   6.944   4.801
 1768TIP3   OH2 5248   0.050   2.084   3.135
 1768TIP3    H1 5249   0.117   2.141   3.173
 1768TIP3    H2 5250   0.087   2.056   3.052
 1769TIP3   OH2 5251   4.260   5.199   0.106
 1769TIP3    H1 5252   4.281   5.135   0.174
 1769TIP3    H2 5253   4.230   5.147   0.032
 1770TIP3   OH2 5254   3.647   2.949   1.426
 1770TIP3    H1 5255   3.698   2.960   1.506
 1770TIP3    H2 5256   3.592   3.028   1.422
 1771TIP3   OH2 5257   6.031   5.862   1.369
 1771TIP3    H1 5258   5.971   5.787   1.373
 1771TIP3    H2 5259   6.033   5.887   1.277
 1772TIP3   OH2 5260   2.541   2.176   3.452
 1772TIP3    H1 5261   2.559   2.270   3.465
 1772TIP3    H2 5262   2.568   2.136   3.535
 1773TIP3   OH2 5263   4.607   2.719   4.793
 1773TIP3    H1 5264   4.553   2.675   4.859
 1773TIP3    H2 5265   4.599   2.663   4.715
 1774TIP3   OH2 5266   4.496   4.208   4.329
 1774TIP3    H1 5267   4.591   4.202   4.339
 1774TIP3    H2 5268   4.478   4.301   4.319
 1775TIP3   OH2 5269   1.243   4.324   6.364
 1775TIP3    H1 5270   1.331   4.285   6.360
 1775TIP3    H2 5271   1.185   4.249   6.375
 1776TIP3   OH2 5272   8.245   3.775   3.969
 1776TIP3    H1 5273   8.173   3.717   3.993
 1776TIP3    H2 5274   8.203   3.855   3.940
 1777TIP3   OH2 5275   5.521   4.079   0.897
 1777TIP3    H1 5276   5.459   4.074   0.970
 1777TIP3    H2 5277   5.569   4.160   0.913
 1778TIP3   OH2 5278   4.161   5.612   4.098
 1778TIP3    H1 5279   4.167   5.517   4.103
 1778TIP3    H2 5280   4.096   5.629   4.030
 1779TIP3   OH2 5281   6.628   5.978   3.783
 1779TIP3    H1 5282   6.715   6.004   3.755
 1779TIP3    H2 5283   6.641   5.893   3.826
 1780TIP3   OH2 5284   6.421   5.350   5.340
 1780TIP3    H1 5285   6.452   5.419   5.399
 1780TIP3    H2 5286   6.328   5.367   5.329
 1781TIP3   OH2 5287   5.058   0.917   0.011
 1781TIP3    H1 5288   5.152   0.918   0.027
 1781TIP3    H2 5289   5.037   0.824  -0.003
 1782TIP3   OH2 5290   1.957   2.521   1.784
 1782TIP3    H1 5291   1.943   2.443   1.839
 1782TIP3    H2 5292   2.052   2.524   1.770
 1783TIP3   OH2 5293   6.189   7.435   2.086
 1783TIP3    H1 5294   6.241   7.385   2.148
 1783TIP3    H2 5295   6.160   7.371   2.021
 1784TIP3   OH2 5296   0.088   4.399   3.986
 1784TIP3    H1 5297   0.118   4.465   3.924
 1784TIP3    H2 5298   0.130   4.317   3.957
 1785TIP3   OH2 5299   6.335   4.491   2.040
 1785TIP3    H1 5300   6.253   4.505   2.088
 1785TIP3    H2 5301   6.381   4.423   2.089
 1786TIP3   OH2 5302   4.271   1.965   5.374
 1786TIP3    H1 5303   4.332   1.921   5.314
 1786TIP3    H2 5304   4.251   2.048   5.331
 1787TIP3   OH2 5305   0.170   2.592   1.491
 1787TIP3    H1 5306   0.189   2.654   1.561
 1787TIP3    H2 5307   0.078   2.569   1.503
 1788TIP3   OH2 5308   5.221   1.594   1.935
 1788TIP3    H1 5309   5.239   1.688   1.931
 1788TIP3    H2 5310   5.148   1.581   1.874
 1789TIP3   OH2 5311   7.260   2.382   0.339
 1789TIP3    H1 5312   7.318   2.432   0.281
 1789TIP3    H2 5313   7.172   2.399   0.304
 1790TIP3   OH2 5314   0.187   7.148   1.610
 1790TIP3    H1 5315   0.094   7.165   1.598
 1790TIP3    H2 5316   0.229   7.233   1.597
 1791TIP3   OH2 5317   1.510   3.524   0.149
 1791TIP3    H1 5318   1.470   3.598   0.104
 1791TIP3    H2 5319   1.602   3.548   0.160
 1792TIP3   OH2 5320   0.209   1.659   3.974
 1792TIP3    H1 5321   0.170   1.577   4.007
 1792TIP3    H2 5322   0.237   1.638   3.885
 1793TIP3   OH2 5323   1.267   6.512   6.648
 1793TIP3    H1 5324   1.180   6.528   6.685
 1793TIP3    H2 5325   1.326   6.568   6.698
 1794TIP3   OH2 5326   4.848   4.232   5.412
 1794TIP3    H1 5327   4.841   4.137   5.410
 1794TIP3    H2 5328   4.826   4.261   5.324
 1795TIP3   OH2 5329   0.340   5.394   1.372
 1795TIP3    H1 5330   0.377   5.426   1.290
 1795TIP3    H2 5331   0.332   5.473   1.427
 1796TIP3   OH2 5332   5.438   4.549   3.855
 1796TIP3    H1 5333   5.359   4.511   3.817
 1796TIP3    H2 5334   5.509   4.495   3.822
 1797TIP3   OH2 5335   2.768   5.028   5.373
 1797TIP3    H1 5336   2.705   5.069   5.313
 1797TIP3    H2 5337   2.852   5.067   5.349
 1798TIP3   OH2 5338   1.014   5.017   6.187
 1798TIP3    H1 5339   0.935   5.070   6.201
 1798TIP3    H2 5340   1.083   5.063   6.236
 1799TIP3   OH2 5341   1.456   5.800   3.760
 1799TIP3    H1 5342   1.480   5.888   3.791
 1799TIP3    H2 5343   1.450   5.747   3.839
 1800TIP3   OH2 5344   0.253   1.809   3.152
 1800TIP3    H1 5345   0.302   1.776   3.076
 1800TIP3    H2 5346   0.221   1.895   3.125
 1801TIP3   OH2 5347   7.324   7.806   0.050
 1801TIP3    H1 5348   7.239   7.785   0.090
 1801TIP3    H2 5349   7.309   7.801  -0.044
 1802TIP3   OH2 5350   5.876   2.557   3.670
 1802TIP3    H1 5351   5.907   2.594   3.752
 1802TIP3    H2 5352   5.793   2.602   3.653
 1803TIP3   OH2 5353   5.848   6.897   5.888
 1803TIP3    H1 5354   5.936   6.881   5.924
 1803TIP3    H2 5355   5.789   6.880   5.962
 1804TIP3   OH2 5356   6.655   1.163   4.010
 1804TIP3    H1 5357   6.592   1.230   4.033
 1804TIP3    H2 5358   6.681   1.124   4.094
 1805TIP3   OH2 5359   1.038   3.839   5.066
 1805TIP3    H1 5360   1.060   3.913   5.009
 1805TIP3    H2 5361   1.031   3.877   5.153
 1806TIP3   OH2 5362   5.160   6.861   1.959
 1806TIP3    H1 5363   5.223   6.810   2.008
 1806TIP3    H2 5364   5.129   6.801   1.891
 1807TIP3   OH2 5365   2.606   7.604   6.040
 1807TIP3    H1 5366   2.530   7.553   6.069
 1807TIP3    H2 5367   2.644   7.638   6.120
 1808TIP3   OH2 5368   7.357   3.018   0.481
 1808TIP3    H1 5369   7.265   3.021   0.508
 1808TIP3    H2 5370   7.405   2.993   0.560
 1809TIP3   OH2 5371   1.082   1.075   1.369
 1809TIP3    H1 5372   1.087   1.157   1.321
 1809TIP3    H2 5373   0.997   1.038   1.344
 1810TIP3   OH2 5374   5.562   5.145   5.214
 1810TIP3    H1 5375   5.518   5.112   5.136
 1810TIP3    H2 5376   5.492   5.185   5.266
 1811TIP3   OH2 5377   7.937   2.434   1.688
 1811TIP3    H1 5378   7.907   2.352   1.727
 1811TIP3    H2 5379   7.913   2.502   1.752
 1812TIP3   OH2 5380   0.776   6.201   4.714
 1812TIP3    H1 5381   0.779   6.127   4.774
 1812TIP3    H2 5382   0.702   6.182   4.655
 1813TIP3   OH2 5383   0.904   3.251   0.069
 1813TIP3    H1 5384   0.825   3.285   0.026
 1813TIP3    H2 5385   0.920   3.167   0.026
 1814TIP3   OH2 5386   6.097   2.315   5.421
 1814TIP3    H1 5387   6.005   2.342   5.419
 1814TIP3    H2 5388   6.114   2.280   5.334
 1815TIP3   OH2 5389   8.179   0.736   4.667
 1815TIP3    H1 5390   8.129   0.674   4.615
 1815TIP3    H2 5391   8.135   0.738   4.752
 1816TIP3   OH2 5392   2.514   5.754   4.915
 1816TIP3    H1 5393   2.440   5.703   4.947
 1816TIP3    H2 5394   2.478   5.842   4.901
 1817TIP3   OH2 5395   5.658   2.346   2.992
 1817TIP3    H1 5396   5.695   2.413   2.933
 1817TIP3    H2 5397   5.580   2.388   3.028
 1818TIP3   OH2 5398   8.073   7.734   3.787
 1818TIP3    H1 5399   8.105   7.645   3.801
 1818TIP3    H2 5400   8.029   7.757   3.869
 1819TIP3   OH2 5401   2.329   3.563   4.336
 1819TIP3    H1 5402   2.352   3.481   4.293
 1819TIP3    H2 5403   2.355   3.551   4.427
 1820TIP3   OH2 5404   8.204   4.804   4.810
 1820TIP3    H1 5405   8.249   4.722   4.787
 1820TIP3    H2 5406   8.263   4.847   4.871
 1821TIP3   OH2 5407   6.903   7.584   5.688
 1821TIP3    H1 5408   6.911   7.509   5.747
 1821TIP3    H2 5409   6.990   7.593   5.649
 1822TIP3   OH2 5410   7.356   2.842   4.284
 1822TIP3    H1 5411   7.421   2.905   4.253
 1822TIP3    H2 5412   7.321   2.803   4.203
 1823TIP3   OH2 5413   2.952   0.783   1.559
 1823TIP3    H1 5414   3.033   0.779   1.609
 1823TIP3    H2 5415   2.936   0.693   1.531
 1824TIP3   OH2 5416   2.200   1.260   1.566
 1824TIP3    H1 5417   2.132   1.211   1.519
 1824TIP3    H2 5418   2.245   1.193   1.618
 1825TIP3   OH2 5419   4.310   1.339   1.751
 1825TIP3    H1 5420   4.232   1.294   1.718
 1825TIP3    H2 5421   4.355   1.273   1.804
 1826TIP3   OH2 5422   6.057   4.461   1.882
 1826TIP3    H1 5423   6.051   4.550   1.916
 1826TIP3    H2 5424   6.097   4.471   1.796
 1827TIP3   OH2 5425   1.929   7.580   2.271
 1827TIP3    H1 5426   1.894   7.499   2.234
 1827TIP3    H2 5427   1.861   7.645   2.253
 1828TIP3   OH2 5428   2.631   4.641   3.321
 1828TIP3    H1 5429   2.644   4.559   3.273
 1828TIP3    H2 5430   2.639   4.709   3.254
 1829TIP3   OH2 5431   0.008   6.780   1.010
 1829TIP3    H1 5432  -0.009   6.813   0.922
 1829TIP3    H2 5433  -0.022   6.850   1.068
 1830TIP3   OH2 5434   2.513   1.991   4.929
 1830TIP3    H1 5435   2.476   1.941   4.856
 1830TIP3    H2 5436   2.499   2.082   4.905
 1831TIP3   OH2 5437   4.628   5.160   1.097
 1831TIP3    H1 5438   4.552   5.202   1.056
 1831TIP3    H2 5439   4.599   5.071   1.115
 1832TIP3   OH2 5440   3.225   6.404   5.838
 1832TIP3    H1 5441   3.194   6.481   5.885
 1832TIP3    H2 5442   3.233   6.432   5.747
 1833TIP3   OH2 5443   7.588   6.360   3.583
 1833TIP3    H1 5444   7.585   6.360   3.678
 1833TIP3    H2 5445   7.497   6.372   3.556
 1834TIP3   OH2 5446   8.082   0.356   0.147
 1834TIP3    H1 5447   8.005   0.300   0.135
 1834TIP3    H2 5448   8.062   0.435   0.097
 1835TIP3   OH2 5449   3.333   4.207   2.477
 1835TIP3    H1 5450   3.317   4.275   2.542
 1835TIP3    H2 5451   3.366   4.132   2.528
 1836TIP3   OH2 5452   5.344   5.086   0.180
 1836TIP3    H1 5453   5.330   5.023   0.251
 1836TIP3    H2 5454   5.378   5.164   0.222
 1837TIP3   OH2 5455   2.660   4.419   3.665
 1837TIP3    H1 5456   2.604   4.482   3.619
 1837TIP3    H2 5457   2.718   4.473   3.719
 1838TIP3   OH2 5458   6.158   7.808   5.183
 1838TIP3    H1 5459   6.076   7.800   5.136
 1838TIP3    H2 5460   6.132   7.824   5.274
 1839TIP3   OH2 5461   5.045   3.468   2.858
 1839TIP3    H1 5462   5.062   3.427   2.943
 1839TIP3    H2 5463   5.132   3.492   2.825
 1840TIP3   OH2 5464   2.760   3.970   2.987
 1840TIP3    H1 5465   2.684   3.928   3.028
 1840TIP3    H2 5466   2.802   4.017   3.058
 1841TIP3   OH2 5467   5.037   1.272   5.663
 1841TIP3    H1 5468   4.961   1.329   5.670
 1841TIP3    H2 5469   5.069   1.285   5.574
 1842TIP3   OH2 5470   4.893   7.088   0.636
 1842TIP3    H1 5471   4.892   7.147   0.560
 1842TIP3    H2 5472   4.801   7.068   0.652
 1843TIP3   OH2 5473   1.470   5.160   4.234
 1843TIP3    H1 5474   1.478   5.115   4.318
 1843TIP3    H2 5475   1.388   5.127   4.197
 1844TIP3   OH2 5476   5.292   4.861   6.552
 1844TIP3    H1 5477   5.295   4.903   6.466
 1844TIP3    H2 5478   5.325   4.773   6.537
 1845TIP3   OH2 5479   2.999   3.983   6.522
 1845TIP3    H1 5480   2.933   3.974   6.590
 1845TIP3    H2 5481   3.082   3.992   6.569
 1846TIP3   OH2 5482   6.535   4.284   6.739
 1846TIP3    H1 5483   6.583   4.367   6.743
 1846TIP3    H2 5484   6.596   4.219   6.773
 1847TIP3   OH2 5485   7.952   3.858   4.088
 1847TIP3    H1 5486   7.964   3.915   4.165
 1847TIP3    H2 5487   7.974   3.914   4.014
 1848TIP3   OH2 5488   1.555   6.443   0.154
 1848TIP3    H1 5489   1.642   6.481   0.160
 1848TIP3    H2 5490   1.570   6.350   0.141
 1849TIP3   OH2 5491   5.807   3.770   3.560
 1849TIP3    H1 5492   5.842   3.764   3.648
 1849TIP3    H2 5493   5.852   3.845   3.521
 1850TIP3   OH2 5494   5.735   0.613   0.597
 1850TIP3    H1 5495   5.829   0.627   0.605
 1850TIP3    H2 5496   5.727   0.538   0.538
 1851TIP3   OH2 5497   2.431   6.853   4.732
 1851TIP3    H1 5498   2.428   6.929   4.790
 1851TIP3    H2 5499   2.388   6.783   4.781
 1852TIP3   OH2 5500   1.171   2.411   4.035
 1852TIP3    H1 5501   1.108   2.446   3.973
 1852TIP3    H2 5502   1.245   2.472   4.032
 1853TIP3   OH2 5503   5.474   5.079   3.118
 1853TIP3    H1 5504   5.407   5.077   3.050
 1853TIP3    H2 5505   5.522   5.160   3.101
 1854TIP3   OH2 5506   7.747   0.916   4.794
 1854TIP3    H1 5507   7.785   0.944   4.711
 1854TIP3    H2 5508   7.659   0.886   4.770
 1855TIP3   OH2 5509   4.868   0.827   3.602
 1855TIP3    H1 5510   4.836   0.910   3.568
 1855TIP3    H2 5511   4.798   0.765   3.585
 1856TIP3   OH2 5512   7.008   7.246   3.365
 1856TIP3    H1 5513   7.058   7.314   3.320
 1856TIP3    H2 5514   7.075   7.192   3.408
 1857TIP3   OH2 5515   3.933   7.729   3.002
 1857TIP3    H1 5516   3.848   7.767   3.024
 1857TIP3    H2 5517   3.917   7.634   3.002
 1858TIP3   OH2 5518   7.675   1.905   5.183
 1858TIP3    H1 5519   7.624   1.955   5.119
 1858TIP3    H2 5520   7.766   1.917   5.155
 1859TIP3   OH2 5521   0.929   2.258   5.299
 1859TIP3    H1 5522   0.906   2.226   5.386
 1859TIP3    H2 5523   1.006   2.314   5.313
 1860TIP3   OH2 5524   3.602   2.814   5.092
 1860TIP3    H1 5525   3.516   2.857   5.097
 1860TIP3    H2 5526   3.656   2.861   5.156
 1861TIP3   OH2 5527   7.429   6.679   6.402
 1861TIP3    H1 5528   7.368   6.711   6.336
 1861TIP3    H2 5529   7.509   6.660   6.354
 1862TIP3   OH2 5530   6.265   4.778   4.690
 1862TIP3    H1 5531   6.179   4.735   4.690
 1862TIP3    H2 5532   6.327   4.708   4.708
 1863TIP3   OH2 5533   5.340   6.728   5.205
 1863TIP3    H1 5534   5.283   6.802   5.189
 1863TIP3    H2 5535   5.428   6.766   5.210
 1864TIP3   OH2 5536   6.424   7.373   0.769
 1864TIP3    H1 5537   6.402   7.344   0.681
 1864TIP3    H2 5538   6.475   7.302   0.806
 1865TIP3   OH2 5539   5.100   0.952   3.183
 1865TIP3    H1 5540   5.159   0.901   3.128
 1865TIP3    H2 5541   5.065   0.889   3.247
 1866TIP3   OH2 5542   1.844   2.379   4.458
 1866TIP3    H1 5543   1.856   2.468   4.425
 1866TIP3    H2 5544   1.925   2.360   4.505
 1867TIP3   OH2 5545   6.255   6.991   6.749
 1867TIP3    H1 5546   6.258   6.909   6.699
 1867TIP3    H2 5547   6.162   7.016   6.749
 1868TIP3   OH2 5548   5.810   2.826   0.915
 1868TIP3    H1 5549   5.858   2.873   0.982
 1868TIP3    H2 5550   5.748   2.771   0.963
 1869TIP3   OH2 5551   1.609   6.187   0.151
 1869TIP3    H1 5552   1.579   6.116   0.208
 1869TIP3    H2 5553   1.704   6.175   0.145
 1870TIP3   OH2 5554   1.365   2.514   1.156
 1870TIP3    H1 5555   1.337   2.483   1.070
 1870TIP3    H2 5556   1.403   2.437   1.199
 1871TIP3   OH2 5557   8.188   4.966   6.751
 1871TIP3    H1 5558   8.205   4.995   6.840
 1871TIP3    H2 5559   8.259   4.904   6.732
 1872TIP3   OH2 5560   1.859   0.320   4.702
 1872TIP3    H1 5561   1.883   0.317   4.610
 1872TIP3    H2 5562   1.774   0.365   4.703
 1873TIP3   OH2 5563   6.804   5.012   3.183
 1873TIP3    H1 5564   6.820   4.939   3.123
 1873TIP3    H2 5565   6.800   5.089   3.127
 1874TIP3   OH2 5566   0.868   5.319   1.459
 1874TIP3    H1 5567   0.890   5.377   1.532
 1874TIP3    H2 5568   0.825   5.377   1.395
 1875TIP3   OH2 5569   3.527   5.171   6.597
 1875TIP3    H1 5570   3.462   5.107   6.625
 1875TIP3    H2 5571   3.522   5.241   6.662
 1876TIP3   OH2 5572   7.758   5.454   6.157
 1876TIP3    H1 5573   7.830   5.471   6.218
 1876TIP3    H2 5574   7.698   5.527   6.167
 1877TIP3   OH2 5575   6.614   0.892   6.424
 1877TIP3    H1 5576   6.531   0.846   6.414
 1877TIP3    H2 5577   6.615   0.955   6.352
 1878TIP3   OH2 5578   5.077   0.458   4.275
 1878TIP3    H1 5579   4.996   0.429   4.316
 1878TIP3    H2 5580   5.114   0.379   4.235
 1879TIP3   OH2 5581   0.794   3.189   3.730
 1879TIP3    H1 5582   0.822   3.108   3.772
 1879TIP3    H2 5583   0.829   3.183   3.641
 1880TIP3   OH2 5584   1.408   2.280   1.595
 1880TIP3    H1 5585   1.372   2.327   1.520
 1880TIP3    H2 5586   1.443   2.199   1.559
 1881TIP3   OH2 5587   2.794   0.478   1.700
 1881TIP3    H1 5588   2.848   0.495   1.623
 1881TIP3    H2 5589   2.738   0.556   1.708
 1882TIP3   OH2 5590   2.474   4.222   4.625
 1882TIP3    H1 5591   2.452   4.309   4.594
 1882TIP3    H2 5592   2.569   4.224   4.638
 1883TIP3   OH2 5593   5.083   2.812   1.491
 1883TIP3    H1 5594   5.142   2.878   1.454
 1883TIP3    H2 5595   5.003   2.861   1.511
 1884TIP3   OH2 5596   2.766   2.244   5.101
 1884TIP3    H1 5597   2.831   2.218   5.166
 1884TIP3    H2 5598   2.685   2.257   5.151
 1885TIP3   OH2 5599   4.600   4.630   5.267
 1885TIP3    H1 5600   4.677   4.605   5.317
 1885TIP3    H2 5601   4.589   4.559   5.203
 1886TIP3   OH2 5602   2.488   7.506   0.987
 1886TIP3    H1 5603   2.519   7.513   0.897
 1886TIP3    H2 5604   2.401   7.545   0.986
 1887TIP3   OH2 5605   7.888   6.381   4.670
 1887TIP3    H1 5606   7.966   6.433   4.655
 1887TIP3    H2 5607   7.835   6.393   4.592
 1888TIP3   OH2 5608   2.867   6.582   3.173
 1888TIP3    H1 5609   2.894   6.528   3.099
 1888TIP3    H2 5610   2.778   6.610   3.152
 1889TIP3   OH2 5611   3.963   0.496   6.501
 1889TIP3    H1 5612   4.041   0.493   6.445
 1889TIP3    H2 5613   3.891   0.512   6.440
 1890TIP3   OH2 5614   5.920   0.844   5.136
 1890TIP3    H1 5615   5.931   0.808   5.224
 1890TIP3    H2 5616   5.838   0.894   5.141
 1891TIP3   OH2 5617   8.021   3.041   0.118
 1891TIP3    H1 5618   8.007   3.131   0.148
 1891TIP3    H2 5619   8.116   3.027   0.127
 1892TIP3   OH2 5620   8.174   4.209   3.678
 1892TIP3    H1 5621   8.232   4.284   3.685
 1892TIP3    H2 5622   8.108   4.235   3.614
 1893TIP3   OH2 5623   5.724   0.006   4.262
 1893TIP3    H1 5624   5.808   0.039   4.232
 1893TIP3    H2 5625   5.721   0.028   4.355
 1894TIP3   OH2 5626   3.103   5.208   3.523
 1894TIP3    H1 5627   3.027   5.178   3.473
 1894TIP3    H2 5628   3.151   5.264   3.463
 1895TIP3   OH2 5629   7.988   2.859   3.469
 1895TIP3    H1 5630   8.038   2.794   3.519
 1895TIP3    H2 5631   7.933   2.808   3.410
 1896TIP3   OH2 5632   7.877   0.995   2.040
 1896TIP3    H1 5633   7.806   0.939   2.008
 1896TIP3    H2 5634   7.852   1.083   2.014
 1897TIP3   OH2 5635   0.215   5.315   2.108
 1897TIP3    H1 5636   0.275   5.355   2.170
 1897TIP3    H2 5637   0.257   5.327   2.023
 1898TIP3   OH2 5638   6.920   7.363   5.848
 1898TIP3    H1 5639   6.957   7.302   5.912
 1898TIP3    H2 5640   6.826   7.346   5.850
 1899TIP3   OH2 5641   6.572   2.558   0.827
 1899TIP3    H1 5642   6.612   2.639   0.796
 1899TIP3    H2 5643   6.644   2.509   0.867
 1900TIP3   OH2 5644   5.507   6.710   2.571
 1900TIP3    H1 5645   5.514   6.759   2.653
 1900TIP3    H2 5646   5.547   6.767   2.506
 1901TIP3   OH2 5647   4.514   0.110   1.310
 1901TIP3    H1 5648   4.561   0.036   1.348
 1901TIP3    H2 5649   4.435   0.119   1.363
 1902TIP3   OH2 5650   0.645   1.017   4.661
 1902TIP3    H1 5651   0.636   0.928   4.695
 1902TIP3    H2 5652   0.658   1.006   4.567
 1903TIP3   OH2 5653   2.388   0.267   5.601
 1903TIP3    H1 5654   2.303   0.268   5.556
 1903TIP3    H2 5655   2.442   0.328   5.552
 1904TIP3   OH2 5656   1.662   2.555   4.179
 1904TIP3    H1 5657   1.728   2.574   4.246
 1904TIP3    H2 5658   1.682   2.465   4.152
 1905TIP3   OH2 5659   7.469   2.731   1.818
 1905TIP3    H1 5660   7.496   2.639   1.821
 1905TIP3    H2 5661   7.530   2.775   1.877
 1906TIP3   OH2 5662   6.355   3.295   0.120
 1906TIP3    H1 5663   6.440   3.338   0.115
 1906TIP3    H2 5664   6.296   3.361   0.157
 1907TIP3   OH2 5665   7.764   2.284   4.670
 1907TIP3    H1 5666   7.822   2.360   4.670
 1907TIP3    H2 5667   7.767   2.251   4.760
 1908TIP3   OH2 5668   7.740   4.194   0.367
 1908TIP3    H1 5669   7.766   4.210   0.458
 1908TIP3    H2 5670   7.739   4.281   0.327
 1909TIP3   OH2 5671   4.145   1.981   4.324
 1909TIP3    H1 5672   4.186   2.062   4.354
 1909TIP3    H2 5673   4.175   1.914   4.386
 1910TIP3   OH2 5674   6.537   3.592   0.956
 1910TIP3    H1 5675   6.569   3.659   1.016
 1910TIP3    H2 5676   6.546   3.510   1.004
 1911TIP3   OH2 5677   5.277   7.551   1.066
 1911TIP3    H1 5678   5.264   7.459   1.042
 1911TIP3    H2 5679   5.364   7.572   1.031
 1912TIP3   OH2 5680   7.225   4.608   4.818
 1912TIP3    H1 5681   7.268   4.524   4.804
 1912TIP3    H2 5682   7.262   4.640   4.901
 1913TIP3   OH2 5683   3.986   0.442   3.747
 1913TIP3    H1 5684   4.060   0.428   3.806
 1913TIP3    H2 5685   3.930   0.504   3.794
 1914TIP3   OH2 5686   6.829   6.407   3.302
 1914TIP3    H1 5687   6.733   6.411   3.305
 1914TIP3    H2 5688   6.849   6.316   3.281
 1915TIP3   OH2 5689   1.991   1.983   2.822
 1915TIP3    H1 5690   2.040   1.931   2.885
 1915TIP3    H2 5691   1.994   2.073   2.856
 1916TIP3   OH2 5692   4.271   7.337   5.095
 1916TIP3    H1 5693   4.210   7.285   5.041
 1916TIP3    H2 5694   4.258   7.304   5.184
 1917TIP3   OH2 5695   7.733   1.071   2.399
 1917TIP3    H1 5696   7.696   1.009   2.337
 1917TIP3    H2 5697   7.814   1.102   2.357
 1918TIP3   OH2 5698   5.814   7.212   3.360
 1918TIP3    H1 5699   5.743   7.151   3.340
 1918TIP3    H2 5700   5.885   7.156   3.391
 1919TIP3   OH2 5701   3.207   6.452   6.139
 1919TIP3    H1 5702   3.294   6.456   6.100
 1919TIP3    H2 5703   3.219   6.405   6.221
 1920TIP3   OH2 5704   6.354   3.065   4.981
 1920TIP3    H1 5705   6.272   3.016   4.983
 1920TIP3    H2 5706   6.328   3.157   4.984
 1921TIP3   OH2 5707   3.872   0.871   5.418
 1921TIP3    H1 5708   3.933   0.944   5.417
 1921TIP3    H2 5709   3.835   0.870   5.329
 1922TIP3   OH2 5710   8.004   0.047   6.056
 1922TIP3    H1 5711   7.910   0.067   6.062
 1922TIP3    H2 5712   8.039   0.116   6.000
 1923TIP3   OH2 5713   7.289   2.774   3.415
 1923TIP3    H1 5714   7.227   2.767   3.343
 1923TIP3    H2 5715   7.350   2.843   3.388
 1924TIP3   OH2 5716   2.410   1.318   3.062
 1924TIP3    H1 5717   2.366   1.355   3.139
 1924TIP3    H2 5718   2.412   1.389   2.998
 1925TIP3   OH2 5719   4.318   2.773   3.157
 1925TIP3    H1 5720   4.274   2.768   3.072
 1925TIP3    H2 5721   4.394   2.716   3.148
 1926TIP3   OH2 5722   4.284   5.693   3.213
 1926TIP3    H1 5723   4.300   5.787   3.221
 1926TIP3    H2 5724   4.366   5.652   3.239
 1927TIP3   OH2 5725   3.664   0.702   0.716
 1927TIP3    H1 5726   3.634   0.777   0.767
 1927TIP3    H2 5727   3.605   0.699   0.640
 1928TIP3   OH2 5728   4.150   2.544   3.282
 1928TIP3    H1 5729   4.221   2.480   3.277
 1928TIP3    H2 5730   4.193   2.629   3.270
 1929TIP3   OH2 5731   7.348   4.890   4.375
 1929TIP3    H1 5732   7.403   4.949   4.324
 1929TIP3    H2 5733   7.384   4.894   4.464
 1930TIP3   OH2 5734   4.646   2.746   3.343
 1930TIP3    H1 5735   4.636   2.654   3.318
 1930TIP3    H2 5736   4.651   2.744   3.438
 1931TIP3   OH2 5737   7.897   0.765   2.274
 1931TIP3    H1 5738   7.984   0.797   2.253
 1931TIP3    H2 5739   7.907   0.722   2.359
 1932TIP3   OH2 5740   3.973   5.207   6.382
 1932TIP3    H1 5741   3.913   5.142   6.419
 1932TIP3    H2 5742   4.059   5.165   6.386
 1933TIP3   OH2 5743   4.967   1.657   1.598
 1933TIP3    H1 5744   4.975   1.584   1.660
 1933TIP3    H2 5745   4.896   1.631   1.539
 1934TIP3   OH2 5746   7.758   3.831   1.914
 1934TIP3    H1 5747   7.785   3.845   2.004
 1934TIP3    H2 5748   7.694   3.760   1.918
 1935TIP3   OH2 5749   6.377   0.072   3.376
 1935TIP3    H1 5750   6.327   0.023   3.441
 1935TIP3    H2 5751   6.422   0.139   3.426
 1936TIP3   OH2 5752   6.354   6.533   5.766
 1936TIP3    H1 5753   6.364   6.628   5.772
 1936TIP3    H2 5754   6.442   6.501   5.745
 1937TIP3   OH2 5755   5.643   5.997   2.234
 1937TIP3    H1 5756   5.592   6.034   2.306
 1937TIP3    H2 5757   5.714   5.950   2.278
 1938TIP3   OH2 5758   4.884   3.921   6.553
 1938TIP3    H1 5759   4.824   3.960   6.617
 1938TIP3    H2 5760   4.830   3.906   6.476
 1939TIP3   OH2 5761   7.718   0.621   0.604
 1939TIP3    H1 5762   7.673   0.558   0.547
 1939TIP3    H2 5763   7.687   0.599   0.692
 1940TIP3   OH2 5764   6.862   3.473   5.971
 1940TIP3    H1 5765   6.822   3.399   5.925
 1940TIP3    H2 5766   6.846   3.548   5.913
 1941TIP3   OH2 5767   6.654   3.191   0.992
 1941TIP3    H1 5768   6.733   3.139   0.978
 1941TIP3    H2 5769   6.626   3.169   1.081
 1942TIP3   OH2 5770   8.007   4.845   0.872
 1942TIP3    H1 5771   7.963   4.859   0.956
 1942TIP3    H2 5772   8.101   4.846   0.894
 1943TIP3   OH2 5773   2.359   1.371   2.265
 1943TIP3    H1 5774   2.364   1.467   2.271
 1943TIP3    H2 5775   2.272   1.353   2.231
 1944TIP3   OH2 5776   3.773   0.521   4.329
 1944TIP3    H1 5777   3.723   0.557   4.256
 1944TIP3    H2 5778   3.794   0.432   4.302
 1945TIP3   OH2 5779   3.293   6.783   5.783
 1945TIP3    H1 5780   3.318   6.870   5.754
 1945TIP3    H2 5781   3.246   6.745   5.708
 1946TIP3   OH2 5782   6.340   7.111   1.535
 1946TIP3    H1 5783   6.311   7.171   1.603
 1946TIP3    H2 5784   6.331   7.024   1.573
 1947TIP3   OH2 5785   4.763   0.307   5.170
 1947TIP3    H1 5786   4.854   0.327   5.150
 1947TIP3    H2 5787   4.750   0.342   5.258
 1948TIP3   OH2 5788   7.323   0.612   4.575
 1948TIP3    H1 5789   7.288   0.687   4.623
 1948TIP3    H2 5790   7.248   0.554   4.564
 1949TIP3   OH2 5791   0.103   0.335   3.408
 1949TIP3    H1 5792   0.126   0.404   3.470
 1949TIP3    H2 5793   0.059   0.268   3.461
 1950TIP3   OH2 5794   4.317   5.502   3.589
 1950TIP3    H1 5795   4.362   5.426   3.553
 1950TIP3    H2 5796   4.238   5.467   3.630
 1951TIP3   OH2 5797   6.469   5.800   2.514
 1951TIP3    H1 5798   6.545   5.800   2.572
 1951TIP3    H2 5799   6.433   5.888   2.523
 1952TIP3   OH2 5800   7.411   1.146   4.324
 1952TIP3    H1 5801   7.321   1.114   4.336
 1952TIP3    H2 5802   7.411   1.189   4.239
 1953TIP3   OH2 5803   1.323   6.354   3.089
 1953TIP3    H1 5804   1.362   6.400   3.164
 1953TIP3    H2 5805   1.264   6.290   3.128
 1954TIP3   OH2 5806   3.008   5.184   4.652
 1954TIP3    H1 5807   3.065   5.197   4.576
 1954TIP3    H2 5808   2.928   5.145   4.616
 1955TIP3   OH2 5809   3.640   5.868   1.884
 1955TIP3    H1 5810   3.717   5.913   1.919
 1955TIP3    H2 5811   3.565   5.911   1.926
 1956TIP3   OH2 5812   6.321   1.019   2.229
 1956TIP3    H1 5813   6.253   1.045   2.166
 1956TIP3    H2 5814   6.361   1.102   2.256
 1957TIP3   OH2 5815   6.942   0.555   3.649
 1957TIP3    H1 5816   6.922   0.533   3.740
 1957TIP3    H2 5817   6.886   0.630   3.630
 1958TIP3   OH2 5818   6.755   3.276   2.769
 1958TIP3    H1 5819   6.712   3.351   2.729
 1958TIP3    H2 5820   6.840   3.309   2.797
 1959TIP3   OH2 5821   5.336   0.649   0.343
 1959TIP3    H1 5822   5.247   0.640   0.308
 1959TIP3    H2 5823   5.325   0.701   0.423
 1960TIP3   OH2 5824   5.165   6.694   4.500
 1960TIP3    H1 5825   5.126   6.701   4.413
 1960TIP3    H2 5826   5.108   6.746   4.556
 1961TIP3   OH2 5827   1.742   5.912   3.746
 1961TIP3    H1 5828   1.823   5.863   3.732
 1961TIP3    H2 5829   1.707   5.878   3.828
 1962TIP3   OH2 5830   3.408   7.742   3.860
 1962TIP3    H1 5831   3.421   7.686   3.784
 1962TIP3    H2 5832   3.366   7.686   3.925
 1963TIP3   OH2 5833   3.403   2.797   2.874
 1963TIP3    H1 5834   3.359   2.880   2.856
 1963TIP3    H2 5835   3.334   2.740   2.909
 1964TIP3   OH2 5836   1.121   2.516   3.667
 1964TIP3    H1 5837   1.060   2.545   3.735
 1964TIP3    H2 5838   1.194   2.578   3.672
 1965TIP3   OH2 5839   8.251   2.418   3.470
 1965TIP3    H1 5840   8.195   2.371   3.408
 1965TIP3    H2 5841   8.270   2.353   3.538
 1966TIP3   OH2 5842   1.021   2.510   3.388
 1966TIP3    H1 5843   0.973   2.572   3.443
 1966TIP3    H2 5844   1.000   2.424   3.426
 1967TIP3   OH2 5845   7.743   0.932   6.245
 1967TIP3    H1 5846   7.701   1.017   6.259
 1967TIP3    H2 5847   7.828   0.939   6.289
 1968TIP3   OH2 5848   0.464   5.148   5.969
 1968TIP3    H1 5849   0.374   5.115   5.969
 1968TIP3    H2 5850   0.484   5.164   5.877
 1969TIP3   OH2 5851   1.983   7.236   1.191
 1969TIP3    H1 5852   1.923   7.261   1.121
 1969TIP3    H2 5853   2.012   7.148   1.168
 1970TIP3   OH2 5854   5.012   6.633   0.456
 1970TIP3    H1 5855   4.925   6.634   0.417
 1970TIP3    H2 5856   5.012   6.704   0.520
 1971TIP3   OH2 5857   5.046   3.608   0.051
 1971TIP3    H1 5858   5.103   3.683   0.070
 1971TIP3    H2 5859   5.074   3.578  -0.035
 1972TIP3   OH2 5860   6.344   0.205   1.433
 1972TIP3    H1 5861   6.324   0.281   1.487
 1972TIP3    H2 5862   6.416   0.234   1.377
 1973TIP3   OH2 5863   5.478   4.761   4.744
 1973TIP3    H1 5864   5.420   4.685   4.733
 1973TIP3    H2 5865   5.418   4.833   4.763
 1974TIP3   OH2 5866   1.299   4.015   2.859
 1974TIP3    H1 5867   1.284   4.107   2.880
 1974TIP3    H2 5868   1.315   4.014   2.765
 1975TIP3   OH2 5869   5.526   4.991   6.321
 1975TIP3    H1 5870   5.445   4.952   6.288
 1975TIP3    H2 5871   5.584   4.917   6.337
 1976TIP3   OH2 5872   2.698   6.734   3.489
 1976TIP3    H1 5873   2.729   6.718   3.578
 1976TIP3    H2 5874   2.646   6.656   3.467
 1977TIP3   OH2 5875   2.237   2.683   1.046
 1977TIP3    H1 5876   2.330   2.675   1.064
 1977TIP3    H2 5877   2.226   2.775   1.020
 1978TIP3   OH2 5878   6.611   5.811   2.990
 1978TIP3    H1 5879   6.690   5.847   3.029
 1978TIP3    H2 5880   6.545   5.880   3.000
 1979TIP3   OH2 5881   6.365   5.400   3.630
 1979TIP3    H1 5882   6.329   5.311   3.623
 1979TIP3    H2 5883   6.288   5.456   3.641
 1980TIP3   OH2 5884   7.747   0.125   6.085
 1980TIP3    H1 5885   7.780   0.188   6.150
 1980TIP3    H2 5886   7.663   0.162   6.057
 1981TIP3   OH2 5887   5.517   5.618   3.693
 1981TIP3    H1 5888   5.580   5.685   3.721
 1981TIP3    H2 5889   5.550   5.537   3.730
 1982TIP3   OH2 5890   2.934   7.703   1.902
 1982TIP3    H1 5891   2.957   7.653   1.824
 1982TIP3    H2 5892   2.957   7.646   1.975
 1983TIP3   OH2 5893   2.924   0.133   2.166
 1983TIP3    H1 5894   2.836   0.096   2.175
 1983TIP3    H2 5895   2.911   0.213   2.114
 1984TIP3   OH2 5896   4.348   2.730   2.706
 1984TIP3    H1 5897   4.369   2.823   2.720
 1984TIP3    H2 5898   4.372   2.713   2.615
 1985TIP3   OH2 5899   7.814   2.537   4.278
 1985TIP3    H1 5900   7.856   2.616   4.243
 1985TIP3    H2 5901   7.845   2.532   4.369
 1986TIP3   OH2 5902   3.919   4.488   5.277
 1986TIP3    H1 5903   4.001   4.537   5.281
 1986TIP3    H2 5904   3.931   4.427   5.204
 1987TIP3   OH2 5905   4.631   3.598   2.365
 1987TIP3    H1 5906   4.635   3.534   2.294
 1987TIP3    H2 5907   4.666   3.678   2.327
 1988TIP3   OH2 5908   5.279   7.173   4.128
 1988TIP3    H1 5909   5.309   7.162   4.038
 1988TIP3    H2 5910   5.301   7.090   4.171
 1989TIP3   OH2 5911   3.167   3.440   3.501
 1989TIP3    H1 5912   3.144   3.415   3.591
 1989TIP3    H2 5913   3.258   3.469   3.507
 1990TIP3   OH2 5914   3.731   7.623   4.099
 1990TIP3    H1 5915   3.788   7.666   4.163
 1990TIP3    H2 5916   3.782   7.548   4.068
 1991TIP3   OH2 5917   5.566   0.277   4.785
 1991TIP3    H1 5918   5.657   0.281   4.755
 1991TIP3    H2 5919   5.555   0.188   4.819
 1992TIP3   OH2 5920   5.795   1.933   1.972
 1992TIP3    H1 5921   5.741   2.011   1.985
 1992TIP3    H2 5922   5.805   1.895   2.060
 1993TIP3   OH2 5923   4.753   1.589   1.859
 1993TIP3    H1 5924   4.709   1.673   1.873
 1993TIP3    H2 5925   4.753   1.547   1.944
 1994TIP3   OH2 5926   2.198   0.872   4.486
 1994TIP3    H1 5927   2.137   0.803   4.462
 1994TIP3    H2 5928   2.173   0.896   4.575
 1995TIP3   OH2 5929   0.604   0.830   2.060
 1995TIP3    H1 5930   0.619   0.899   1.995
 1995TIP3    H2 5931   0.667   0.762   2.038
 1996TIP3   OH2 5932   5.083   3.909   6.272
 1996TIP3    H1 5933   5.107   3.849   6.201
 1996TIP3    H2 5934   5.163   3.956   6.293
 1997TIP3   OH2 5935   5.975   6.899   4.115
 1997TIP3    H1 5936   6.042   6.924   4.179
 1997TIP3    H2 5937   5.979   6.803   4.112
 1998TIP3   OH2 5938   0.533   0.568   1.282
 1998TIP3    H1 5939   0.503   0.477   1.275
 1998TIP3    H2 5940   0.471   0.617   1.229
 1999TIP3   OH2 5941   7.488   3.575   5.759
 1999TIP3    H1 5942   7.570   3.605   5.719
 1999TIP3    H2 5943   7.515   3.501   5.813
 2000TIP3   OH2 5944   6.707   1.272   6.194
 2000TIP3    H1 5945   6.752   1.320   6.124
 2000TIP3    H2 5946   6.647   1.214   6.148
 2001TIP3   OH2 5947   8.057   7.096   5.122
 2001TIP3    H1 5948   8.084   7.054   5.203
 2001TIP3    H2 5949   8.119   7.168   5.110
 2002TIP3   OH2 5950   0.964   5.578   4.590
 2002TIP3    H1 5951   0.991   5.602   4.678
 2002TIP3    H2 5952   0.883   5.529   4.602
 2003TIP3   OH2 5953   1.592   2.861   6.592
 2003TIP3    H1 5954   1.559   2.948   6.570
 2003TIP3    H2 5955   1.513   2.806   6.598
 2004TIP3   OH2 5956   1.552   4.383   0.511
 2004TIP3    H1 5957   1.500   4.356   0.587
 2004TIP3    H2 5958   1.510   4.340   0.436
 2005TIP3   OH2 5959   7.771   2.099   2.515
 2005TIP3    H1 5960   7.793   2.009   2.542
 2005TIP3    H2 5961   7.803   2.153   2.587
 2006TIP3   OH2 5962   2.663   0.676   2.011
 2006TIP3    H1 5963   2.634   0.586   2.025
 2006TIP3    H2 5964   2.674   0.712   2.099
 2007TIP3   OH2 5965   0.624   2.344   3.242
 2007TIP3    H1 5966   0.635   2.282   3.315
 2007TIP3    H2 5967   0.695   2.323   3.182
 2008TIP3   OH2 5968   3.465   0.483   0.792
 2008TIP3    H1 5969   3.555   0.486   0.824
 2008TIP3    H2 5970   3.474   0.472   0.697
 2009TIP3   OH2 5971   3.729   2.314   0.956
 2009TIP3    H1 5972   3.656   2.251   0.953
 2009TIP3    H2 5973   3.696   2.387   1.007
 2010TIP3   OH2 5974   3.482   1.498   3.059
 2010TIP3    H1 5975   3.490   1.456   3.145
 2010TIP3    H2 5976   3.412   1.450   3.016
 2011TIP3   OH2 5977   3.529   4.627   3.247
 2011TIP3    H1 5978   3.589   4.700   3.230
 2011TIP3    H2 5979   3.474   4.623   3.169
 2012TIP3   OH2 5980   1.857   4.503   4.608
 2012TIP3    H1 5981   1.826   4.420   4.574
 2012TIP3    H2 5982   1.942   4.482   4.648
 2013TIP3   OH2 5983   2.324   1.947   6.465
 2013TIP3    H1 5984   2.231   1.955   6.444
 2013TIP3    H2 5985   2.336   2.001   6.543
 2014TIP3   OH2 5986   8.223   0.841   0.806
 2014TIP3    H1 5987   8.158   0.771   0.801
 2014TIP3    H2 5988   8.171   0.922   0.808
 2015TIP3   OH2 5989   1.834   3.376   5.336
 2015TIP3    H1 5990   1.767   3.425   5.384
 2015TIP3    H2 5991   1.793   3.291   5.318
 2016TIP3   OH2 5992   5.903   5.956   3.873
 2016TIP3    H1 5993   5.832   6.017   3.892
 2016TIP3    H2 5994   5.967   6.007   3.823
 2017TIP3   OH2 5995   6.266   7.318   2.636
 2017TIP3    H1 5996   6.245   7.411   2.639
 2017TIP3    H2 5997   6.358   7.315   2.609
 2018TIP3   OH2 5998   5.387   3.555   3.598
 2018TIP3    H1 5999   5.341   3.499   3.660
 2018TIP3    H2 6000   5.480   3.547   3.622
 2019TIP3   OH2 6001   7.088   6.008   2.519
 2019TIP3    H1 6002   7.009   6.001   2.573
 2019TIP3    H2 6003   7.069   6.080   2.458
 2020TIP3   OH2 6004   0.448   4.117   5.562
 2020TIP3    H1 6005   0.432   4.193   5.506
 2020TIP3    H2 6006   0.498   4.057   5.508
 2021TIP3   OH2 6007   4.918   0.236   4.084
 2021TIP3    H1 6008   4.941   0.324   4.053
 2021TIP3    H2 6009   4.888   0.190   4.006
 2022TIP3   OH2 6010   5.829   5.314   1.769
 2022TIP3    H1 6011   5.904   5.324   1.828
 2022TIP3    H2 6012   5.760   5.369   1.807
 2023TIP3   OH2 6013   4.249   4.566   5.058
 2023TIP3    H1 6014   4.306   4.631   5.017
 2023TIP3    H2 6015   4.293   4.545   5.141
 2024TIP3   OH2 6016   1.102   5.936   0.821
 2024TIP3    H1 6017   1.180   5.896   0.782
 2024TIP3    H2 6018   1.045   5.956   0.747
 2025TIP3   OH2 6019   6.296   7.457   6.050
 2025TIP3    H1 6020   6.293   7.461   5.954
 2025TIP3    H2 6021   6.220   7.405   6.074
 2026TIP3   OH2 6022   2.511   2.062   2.037
 2026TIP3    H1 6023   2.489   1.969   2.033
 2026TIP3    H2 6024   2.456   2.102   1.970
 2027TIP3   OH2 6025   6.968   7.587   4.673
 2027TIP3    H1 6026   7.023   7.538   4.613
 2027TIP3    H2 6027   7.025   7.609   4.747
 2028TIP3   OH2 6028   1.627   5.662   2.384
 2028TIP3    H1 6029   1.587   5.592   2.437
 2028TIP3    H2 6030   1.718   5.663   2.412
 2029TIP3   OH2 6031   3.218   7.661   3.113
 2029TIP3    H1 6032   3.179   7.748   3.122
 2029TIP3    H2 6033   3.143   7.603   3.100
 2030TIP3   OH2 6034   3.400   0.421   1.784
 2030TIP3    H1 6035   3.316   0.450   1.748
 2030TIP3    H2 6036   3.416   0.480   1.858
 2031TIP3   OH2 6037   7.611   6.885   6.423
 2031TIP3    H1 6038   7.535   6.842   6.385
 2031TIP3    H2 6039   7.610   6.860   6.516
 2032TIP3   OH2 6040   4.009   0.450   2.729
 2032TIP3    H1 6041   4.006   0.541   2.758
 2032TIP3    H2 6042   3.917   0.425   2.718
 2033TIP3   OH2 6043   1.307   1.728   0.791
 2033TIP3    H1 6044   1.359   1.648   0.780
 2033TIP3    H2 6045   1.229   1.700   0.838
 2034TIP3   OH2 6046   4.314   6.975   5.097
 2034TIP3    H1 6047   4.383   7.040   5.112
 2034TIP3    H2 6048   4.360   6.890   5.101
 2035TIP3   OH2 6049   4.751   1.873   0.830
 2035TIP3    H1 6050   4.757   1.968   0.834
 2035TIP3    H2 6051   4.733   1.853   0.738
 2036TIP3   OH2 6052   4.229   4.842   4.668
 2036TIP3    H1 6053   4.154   4.786   4.647
 2036TIP3    H2 6054   4.301   4.781   4.683
 2037TIP3   OH2 6055   7.456   6.800   4.651
 2037TIP3    H1 6056   7.427   6.748   4.726
 2037TIP3    H2 6057   7.458   6.738   4.578
 2038TIP3   OH2 6058   1.077   0.610   5.395
 2038TIP3    H1 6059   1.141   0.681   5.397
 2038TIP3    H2 6060   1.068   0.588   5.302
 2039TIP3   OH2 6061   5.412   6.576   6.408
 2039TIP3    H1 6062   5.360   6.559   6.329
 2039TIP3    H2 6063   5.356   6.547   6.480
 2040TIP3   OH2 6064   0.805   5.452   1.230
 2040TIP3    H1 6065   0.837   5.387   1.167
 2040TIP3    H2 6066   0.711   5.458   1.213
 2041TIP3   OH2 6067   6.824   4.599   0.964
 2041TIP3    H1 6068   6.751   4.657   0.986
 2041TIP3    H2 6069   6.834   4.608   0.870
 2042TIP3   OH2 6070   6.198   2.319   4.621
 2042TIP3    H1 6071   6.189   2.329   4.526
 2042TIP3    H2 6072   6.292   2.309   4.635
 2043TIP3   OH2 6073   4.198   0.000   3.322
 2043TIP3    H1 6074   4.265   0.067   3.311
 2043TIP3    H2 6075   4.172   0.008   3.414
 2044TIP3   OH2 6076   5.022   2.829   0.927
 2044TIP3    H1 6077   5.043   2.772   1.001
 2044TIP3    H2 6078   5.073   2.793   0.854
 2045TIP3   OH2 6079   1.659   0.643   5.509
 2045TIP3    H1 6080   1.738   0.613   5.553
 2045TIP3    H2 6081   1.623   0.565   5.466
 2046TIP3   OH2 6082   7.199   5.763   2.426
 2046TIP3    H1 6083   7.128   5.827   2.432
 2046TIP3    H2 6084   7.194   5.714   2.508
 2047TIP3   OH2 6085   8.266   6.972   3.709
 2047TIP3    H1 6086   8.287   6.885   3.743
 2047TIP3    H2 6087   8.334   7.029   3.744
 2048TIP3   OH2 6088   5.093   3.149   5.497
 2048TIP3    H1 6089   5.031   3.101   5.552
 2048TIP3    H2 6090   5.170   3.161   5.553
 2049TIP3   OH2 6091   6.323   5.644   5.376
 2049TIP3    H1 6092   6.340   5.616   5.466
 2049TIP3    H2 6093   6.384   5.717   5.362
 2050TIP3   OH2 6094   6.869   4.652   5.037
 2050TIP3    H1 6095   6.790   4.706   5.045
 2050TIP3    H2 6096   6.847   4.570   5.081
 2051TIP3   OH2 6097   0.585   1.745   4.006
 2051TIP3    H1 6098   0.630   1.691   3.941
 2051TIP3    H2 6099   0.594   1.697   4.088
 2052TIP3   OH2 6100   6.601   4.261   5.324
 2052TIP3    H1 6101   6.676   4.252   5.266
 2052TIP3    H2 6102   6.622   4.206   5.400
 2053TIP3   OH2 6103   0.731   2.898   5.236
 2053TIP3    H1 6104   0.792   2.827   5.220
 2053TIP3    H2 6105   0.772   2.951   5.304
 2054TIP3   OH2 6106   6.827   6.248   4.034
 2054TIP3    H1 6107   6.796   6.266   3.945
 2054TIP3    H2 6108   6.922   6.244   4.025
 2055TIP3   OH2 6109   2.848   6.159   3.530
 2055TIP3    H1 6110   2.929   6.130   3.572
 2055TIP3    H2 6111   2.850   6.119   3.443
 2056TIP3   OH2 6112   3.537   3.519   0.616
 2056TIP3    H1 6113   3.590   3.531   0.695
 2056TIP3    H2 6114   3.456   3.479   0.647
 2057TIP3   OH2 6115   3.270   3.520   3.046
 2057TIP3    H1 6116   3.266   3.609   3.012
 2057TIP3    H2 6117   3.184   3.483   3.025
 2058TIP3   OH2 6118   5.099   2.880   5.090
 2058TIP3    H1 6119   5.176   2.925   5.055
 2058TIP3    H2 6120   5.052   2.848   5.013
 2059TIP3   OH2 6121   1.480   0.670   6.477
 2059TIP3    H1 6122   1.415   0.627   6.533
 2059TIP3    H2 6123   1.435   0.683   6.394
 2060TIP3   OH2 6124   1.660   5.192   2.370
 2060TIP3    H1 6125   1.652   5.129   2.298
 2060TIP3    H2 6126   1.599   5.262   2.347
 2061TIP3   OH2 6127   1.696   3.387   6.493
 2061TIP3    H1 6128   1.759   3.330   6.537
 2061TIP3    H2 6129   1.748   3.461   6.463
 2062TIP3   OH2 6130   4.150   7.773   4.811
 2062TIP3    H1 6131   4.196   7.840   4.861
 2062TIP3    H2 6132   4.137   7.702   4.874
 2063TIP3   OH2 6133   3.052   0.848   3.979
 2063TIP3    H1 6134   3.146   0.842   3.965
 2063TIP3    H2 6135   3.015   0.777   3.926
 2064TIP3   OH2 6136   1.208   0.158   0.196
 2064TIP3    H1 6137   1.284   0.216   0.208
 2064TIP3    H2 6138   1.136   0.204   0.238
 2065TIP3   OH2 6139   7.760   7.359   3.341
 2065TIP3    H1 6140   7.719   7.342   3.256
 2065TIP3    H2 6141   7.689   7.347   3.404
 2066TIP3   OH2 6142   3.042   0.928   6.216
 2066TIP3    H1 6143   3.089   0.865   6.160
 2066TIP3    H2 6144   2.960   0.884   6.237
 2067TIP3   OH2 6145   4.888   1.533   2.904
 2067TIP3    H1 6146   4.975   1.571   2.914
 2067TIP3    H2 6147   4.885   1.503   2.813
 2068TIP3   OH2 6148   5.246   6.364   6.145
 2068TIP3    H1 6149   5.221   6.455   6.160
 2068TIP3    H2 6150   5.331   6.356   6.189
 2069TIP3   OH2 6151   7.154   2.172   5.433
 2069TIP3    H1 6152   7.061   2.182   5.415
 2069TIP3    H2 6153   7.195   2.168   5.347
 2070TIP3   OH2 6154   6.645   0.744   2.100
 2070TIP3    H1 6155   6.603   0.732   2.185
 2070TIP3    H2 6156   6.628   0.662   2.054
 2071TIP3   OH2 6157   1.305   5.720   3.150
 2071TIP3    H1 6158   1.238   5.712   3.217
 2071TIP3    H2 6159   1.332   5.812   3.153
 2072TIP3   OH2 6160   5.029   5.511   5.794
 2072TIP3    H1 6161   4.972   5.458   5.738
 2072TIP3    H2 6162   5.032   5.596   5.751
 2073TIP3   OH2 6163   2.472   5.568   0.945
 2073TIP3    H1 6164   2.465   5.648   0.893
 2073TIP3    H2 6165   2.382   5.533   0.946
 2074TIP3   OH2 6166   2.137   1.826   3.000
 2074TIP3    H1 6167   2.231   1.806   2.995
 2074TIP3    H2 6168   2.115   1.816   3.092
 2075TIP3   OH2 6169   3.656   5.053   1.071
 2075TIP3    H1 6170   3.622   4.968   1.101
 2075TIP3    H2 6171   3.627   5.058   0.979
 2076TIP3   OH2 6172   5.267   5.635   5.921
 2076TIP3    H1 6173   5.271   5.646   6.016
 2076TIP3    H2 6174   5.208   5.560   5.908
 2077TIP3   OH2 6175   1.431   7.681   1.468
 2077TIP3    H1 6176   1.379   7.745   1.419
 2077TIP3    H2 6177   1.369   7.614   1.494
 2078TIP3   OH2 6178   0.268   0.654   2.435
 2078TIP3    H1 6179   0.315   0.603   2.368
 2078TIP3    H2 6180   0.271   0.744   2.403
 2079TIP3   OH2 6181   5.522   5.900   2.515
 2079TIP3    H1 6182   5.533   5.915   2.609
 2079TIP3    H2 6183   5.464   5.824   2.511
 2080TIP3   OH2 6184   3.620   4.363   5.674
 2080TIP3    H1 6185   3.536   4.370   5.629
 2080TIP3    H2 6186   3.682   4.410   5.618
 2081TIP3   OH2 6187   1.357   7.206   4.740
 2081TIP3    H1 6188   1.293   7.135   4.738
 2081TIP3    H2 6189   1.350   7.246   4.653
 2082TIP3   OH2 6190   7.880   2.625   6.399
 2082TIP3    H1 6191   7.807   2.567   6.376
 2082TIP3    H2 6192   7.958   2.571   6.386
 2083TIP3   OH2 6193   0.729   7.752   3.233
 2083TIP3    H1 6194   0.823   7.770   3.225
 2083TIP3    H2 6195   0.723   7.676   3.290
 2084TIP3   OH2 6196   4.947   3.266   2.130
 2084TIP3    H1 6197   5.021   3.222   2.172
 2084TIP3    H2 6198   4.914   3.325   2.198
 2085TIP3   OH2 6199   6.149   0.512   1.185
 2085TIP3    H1 6200   6.135   0.515   1.090
 2085TIP3    H2 6201   6.086   0.574   1.221
 2086TIP3   OH2 6202   6.715   0.039   5.066
 2086TIP3    H1 6203   6.768  -0.008   5.131
 2086TIP3    H2 6204   6.738  -0.002   4.982
 2087TIP3   OH2 6205   7.450   3.104   5.027
 2087TIP3    H1 6206   7.521   3.083   4.967
 2087TIP3    H2 6207   7.378   3.047   5.001
 2088TIP3   OH2 6208   3.742   7.282   0.904
 2088TIP3    H1 6209   3.650   7.265   0.882
 2088TIP3    H2 6210   3.790   7.252   0.827
 2089TIP3   OH2 6211   0.942   0.581   0.738
 2089TIP3    H1 6212   0.965   0.563   0.829
 2089TIP3    H2 6213   0.849   0.560   0.732
 2090TIP3   OH2 6214   6.335   7.330   0.488
 2090TIP3    H1 6215   6.241   7.321   0.468
 2090TIP3    H2 6216   6.377   7.261   0.436
 2091TIP3   OH2 6217   3.277   5.285   1.881
 2091TIP3    H1 6218   3.342   5.260   1.947
 2091TIP3    H2 6219   3.230   5.358   1.921
 2092TIP3   OH2 6220   1.145   0.304   4.597
 2092TIP3    H1 6221   1.214   0.265   4.542
 2092TIP3    H2 6222   1.077   0.236   4.602
 2093TIP3   OH2 6223   2.834   5.998   4.630
 2093TIP3    H1 6224   2.896   6.067   4.604
 2093TIP3    H2 6225   2.834   5.937   4.557
 2094TIP3   OH2 6226   0.290   0.268   4.863
 2094TIP3    H1 6227   0.223   0.236   4.803
 2094TIP3    H2 6228   0.276   0.363   4.865
 2095TIP3   OH2 6229   5.388   5.853   0.918
 2095TIP3    H1 6230   5.377   5.938   0.874
 2095TIP3    H2 6231   5.308   5.841   0.968
 2096TIP3   OH2 6232   6.880   6.850   6.138
 2096TIP3    H1 6233   6.853   6.934   6.102
 2096TIP3    H2 6234   6.961   6.829   6.092
 2097TIP3   OH2 6235   1.164   3.991   3.654
 2097TIP3    H1 6236   1.095   3.975   3.718
 2097TIP3    H2 6237   1.138   3.940   3.577
 2098TIP3   OH2 6238   6.436   3.626   6.508
 2098TIP3    H1 6239   6.512   3.576   6.540
 2098TIP3    H2 6240   6.364   3.563   6.510
 2099TIP3   OH2 6241   7.524   0.605   5.902
 2099TIP3    H1 6242   7.609   0.645   5.884
 2099TIP3    H2 6243   7.462   0.679   5.899
 2100TIP3   OH2 6244   1.120   4.094   5.893
 2100TIP3    H1 6245   1.153   4.010   5.925
 2100TIP3    H2 6246   1.198   4.143   5.867
 2101TIP3   OH2 6247   4.167   5.329   4.127
 2101TIP3    H1 6248   4.158   5.256   4.189
 2101TIP3    H2 6249   4.235   5.301   4.066
 2102TIP3   OH2 6250   0.308   1.228   3.401
 2102TIP3    H1 6251   0.232   1.209   3.347
 2102TIP3    H2 6252   0.366   1.153   3.388
 2103TIP3   OH2 6253   5.256   2.129   1.277
 2103TIP3    H1 6254   5.275   2.040   1.308
 2103TIP3    H2 6255   5.239   2.118   1.184
 2104TIP3   OH2 6256   0.654   2.662   4.999
 2104TIP3    H1 6257   0.715   2.716   4.949
 2104TIP3    H2 6258   0.682   2.572   4.982
 2105TIP3   OH2 6259   6.356   4.766   3.667
 2105TIP3    H1 6260   6.272   4.731   3.636
 2105TIP3    H2 6261   6.333   4.823   3.740
 2106TIP3   OH2 6262   1.007   4.984   0.323
 2106TIP3    H1 6263   1.028   5.071   0.357
 2106TIP3    H2 6264   1.068   4.925   0.369
 2107TIP3   OH2 6265   4.808   7.012   2.243
 2107TIP3    H1 6266   4.752   7.066   2.299
 2107TIP3    H2 6267   4.881   6.986   2.300
 2108TIP3   OH2 6268   4.826   3.627   0.225
 2108TIP3    H1 6269   4.754   3.639   0.163
 2108TIP3    H2 6270   4.902   3.610   0.170
 2109TIP3   OH2 6271   4.660   1.452   0.332
 2109TIP3    H1 6272   4.588   1.457   0.269
 2109TIP3    H2 6273   4.617   1.437   0.416
 2110TIP3   OH2 6274   1.478   3.372   1.027
 2110TIP3    H1 6275   1.467   3.447   1.085
 2110TIP3    H2 6276   1.466   3.407   0.939
 2111TIP3   OH2 6277   3.349   0.082   0.431
 2111TIP3    H1 6278   3.266   0.126   0.414
 2111TIP3    H2 6279   3.333  -0.009   0.405
 2112TIP3   OH2 6280   4.523   4.037   0.042
 2112TIP3    H1 6281   4.435   3.999   0.036
 2112TIP3    H2 6282   4.560   4.026  -0.046
 2113TIP3   OH2 6283   3.733   1.195   2.040
 2113TIP3    H1 6284   3.665   1.130   2.022
 2113TIP3    H2 6285   3.775   1.208   1.955
 2114TIP3   OH2 6286   3.856   0.493   5.088
 2114TIP3    H1 6287   3.791   0.484   5.158
 2114TIP3    H2 6288   3.924   0.428   5.110
 2115TIP3   OH2 6289   5.516   7.452   5.223
 2115TIP3    H1 6290   5.508   7.471   5.316
 2115TIP3    H2 6291   5.463   7.373   5.210
 2116TIP3   OH2 6292   4.965   4.393   4.356
 2116TIP3    H1 6293   5.024   4.430   4.290
 2116TIP3    H2 6294   4.945   4.467   4.414
 2117TIP3   OH2 6295   7.593   3.096   6.383
 2117TIP3    H1 6296   7.659   3.029   6.396
 2117TIP3    H2 6297   7.540   3.094   6.463
 2118TIP3   OH2 6298   4.197   6.560   2.271
 2118TIP3    H1 6299   4.181   6.578   2.364
 2118TIP3    H2 6300   4.291   6.574   2.260
 2119TIP3   OH2 6301   2.222   1.357   4.095
 2119TIP3    H1 6302   2.218   1.447   4.064
 2119TIP3    H2 6303   2.144   1.315   4.058
 2120TIP3   OH2 6304   6.105   6.232   4.449
 2120TIP3    H1 6305   6.120   6.301   4.385
 2120TIP3    H2 6306   6.050   6.272   4.516
 2121TIP3   OH2 6307   8.110   6.786   5.238
 2121TIP3    H1 6308   8.154   6.708   5.272
 2121TIP3    H2 6309   8.158   6.859   5.277
 2122TIP3   OH2 6310   3.396   2.504   3.234
 2122TIP3    H1 6311   3.483   2.505   3.274
 2122TIP3    H2 6312   3.389   2.418   3.193
 2123TIP3   OH2 6313   6.564   1.956   4.552
 2123TIP3    H1 6314   6.578   1.877   4.500
 2123TIP3    H2 6315   6.652   1.988   4.573
 2124TIP3   OH2 6316   4.498   3.950   4.237
 2124TIP3    H1 6317   4.514   4.043   4.256
 2124TIP3    H2 6318   4.403   3.940   4.249
 2125TIP3   OH2 6319   0.195   3.388   4.807
 2125TIP3    H1 6320   0.229   3.417   4.892
 2125TIP3    H2 6321   0.169   3.297   4.821
 2126TIP3   OH2 6322   3.077   5.500   1.940
 2126TIP3    H1 6323   3.009   5.493   1.873
 2126TIP3    H2 6324   3.030   5.492   2.023
 2127TIP3   OH2 6325   6.549   0.845   4.213
 2127TIP3    H1 6326   6.522   0.776   4.274
 2127TIP3    H2 6327   6.478   0.849   4.149
 2128TIP3   OH2 6328   6.199   3.605   4.670
 2128TIP3    H1 6329   6.151   3.541   4.617
 2128TIP3    H2 6330   6.246   3.658   4.606
 2129TIP3   OH2 6331   1.573   1.868   0.838
 2129TIP3    H1 6332   1.509   1.846   0.771
 2129TIP3    H2 6333   1.654   1.827   0.809
 2130TIP3   OH2 6334   6.767   2.692   2.511
 2130TIP3    H1 6335   6.808   2.758   2.567
 2130TIP3    H2 6336   6.713   2.742   2.450
 2131TIP3   OH2 6337   4.823   7.729   4.119
 2131TIP3    H1 6338   4.892   7.735   4.052
 2131TIP3    H2 6339   4.760   7.797   4.095
 2132TIP3   OH2 6340   1.641   2.291   4.102
 2132TIP3    H1 6341   1.687   2.252   4.028
 2132TIP3    H2 6342   1.549   2.267   4.089
 2133TIP3   OH2 6343   1.181   7.063   1.581
 2133TIP3    H1 6344   1.182   7.075   1.676
 2133TIP3    H2 6345   1.088   7.060   1.558
 2134TIP3   OH2 6346   3.501   7.755   1.668
 2134TIP3    H1 6347   3.586   7.775   1.628
 2134TIP3    H2 6348   3.437   7.787   1.605
 2135TIP3   OH2 6349   0.874   2.590   6.005
 2135TIP3    H1 6350   0.892   2.649   5.932
 2135TIP3    H2 6351   0.793   2.624   6.044
 2136TIP3   OH2 6352   4.254   5.381   1.485
 2136TIP3    H1 6353   4.181   5.362   1.425
 2136TIP3    H2 6354   4.241   5.320   1.558
 2137TIP3   OH2 6355   5.160   5.817   0.350
 2137TIP3    H1 6356   5.162   5.879   0.277
 2137TIP3    H2 6357   5.085   5.761   0.333
 2138TIP3   OH2 6358   2.568   4.719   0.541
 2138TIP3    H1 6359   2.536   4.714   0.631
 2138TIP3    H2 6360   2.655   4.679   0.543
 2139TIP3   OH2 6361   2.643   2.596   5.607
 2139TIP3    H1 6362   2.642   2.689   5.631
 2139TIP3    H2 6363   2.559   2.563   5.636
 2140TIP3   OH2 6364   3.531   4.473   5.348
 2140TIP3    H1 6365   3.497   4.506   5.265
 2140TIP3    H2 6366   3.453   4.458   5.402
 2141TIP3   OH2 6367   3.917   3.731   1.783
 2141TIP3    H1 6368   3.833   3.741   1.828
 2141TIP3    H2 6369   3.945   3.820   1.765
 2142TIP3   OH2 6370   4.918   4.328   1.700
 2142TIP3    H1 6371   4.899   4.295   1.787
 2142TIP3    H2 6372   4.853   4.396   1.685
 2143TIP3   OH2 6373   1.690   0.595   1.688
 2143TIP3    H1 6374   1.603   0.628   1.664
 2143TIP3    H2 6375   1.695   0.608   1.783
 2144TIP3   OH2 6376   2.293   5.121   5.824
 2144TIP3    H1 6377   2.374   5.080   5.854
 2144TIP3    H2 6378   2.289   5.101   5.730
 2145TIP3   OH2 6379   4.081   5.376   3.654
 2145TIP3    H1 6380   4.031   5.453   3.682
 2145TIP3    H2 6381   4.016   5.306   3.650
 2146TIP3   OH2 6382   3.084   7.126   5.330
 2146TIP3    H1 6383   3.035   7.098   5.253
 2146TIP3    H2 6384   3.048   7.212   5.352
 2147TIP3   OH2 6385   6.788   7.225   3.174
 2147TIP3    H1 6386   6.818   7.152   3.119
 2147TIP3    H2 6387   6.845   7.223   3.250
 2148TIP3   OH2 6388   0.827   5.688   6.589
 2148TIP3    H1 6389   0.890   5.628   6.551
 2148TIP3    H2 6390   0.853   5.774   6.555
 2149TIP3   OH2 6391   2.334   3.817   0.012
 2149TIP3    H1 6392   2.276   3.890   0.034
 2149TIP3    H2 6393   2.417   3.858  -0.011
 2150TIP3   OH2 6394   6.511   4.286   6.125
 2150TIP3    H1 6395   6.422   4.308   6.153
 2150TIP3    H2 6396   6.552   4.370   6.107
 2151TIP3   OH2 6397   7.724   0.371   4.700
 2151TIP3    H1 6398   7.670   0.446   4.678
 2151TIP3    H2 6399   7.670   0.295   4.679
 2152TIP3   OH2 6400   1.157   3.767   2.602
 2152TIP3    H1 6401   1.125   3.812   2.681
 2152TIP3    H2 6402   1.100   3.798   2.532
 2153TIP3   OH2 6403   3.208   6.887   3.140
 2153TIP3    H1 6404   3.178   6.838   3.064
 2153TIP3    H2 6405   3.144   6.958   3.150
 2154TIP3   OH2 6406   7.903   0.444   3.803
 2154TIP3    H1 6407   7.960   0.375   3.837
 2154TIP3    H2 6408   7.826   0.398   3.769
 2155TIP3   OH2 6409   5.611   3.758   4.311
 2155TIP3    H1 6410   5.627   3.776   4.404
 2155TIP3    H2 6411   5.527   3.798   4.293
 2156TIP3   OH2 6412   6.892   7.021   0.667
 2156TIP3    H1 6413   6.898   6.925   0.666
 2156TIP3    H2 6414   6.963   7.048   0.725
 2157TIP3   OH2 6415   7.188   0.259   2.418
 2157TIP3    H1 6416   7.119   0.197   2.442
 2157TIP3    H2 6417   7.268   0.206   2.412
 2158TIP3   OH2 6418   2.552   7.215   5.520
 2158TIP3    H1 6419   2.491   7.269   5.470
 2158TIP3    H2 6420   2.606   7.278   5.568
 2159TIP3   OH2 6421   4.620   2.615   1.047
 2159TIP3    H1 6422   4.629   2.669   0.968
 2159TIP3    H2 6423   4.526   2.618   1.067
 2160TIP3   OH2 6424   6.732   7.063   6.523
 2160TIP3    H1 6425   6.704   7.144   6.479
 2160TIP3    H2 6426   6.732   6.997   6.453
 2161TIP3   OH2 6427   7.507   5.354   2.584
 2161TIP3    H1 6428   7.562   5.316   2.653
 2161TIP3    H2 6429   7.498   5.285   2.519
 2162TIP3   OH2 6430   2.324   0.881   4.792
 2162TIP3    H1 6431   2.399   0.938   4.774
 2162TIP3    H2 6432   2.249   0.927   4.755
 2163TIP3   OH2 6433   6.286   2.019   2.648
 2163TIP3    H1 6434   6.354   2.086   2.639
 2163TIP3    H2 6435   6.333   1.937   2.661
 2164TIP3   OH2 6436   0.347   1.607   6.407
 2164TIP3    H1 6437   0.261   1.627   6.444
 2164TIP3    H2 6438   0.405   1.599   6.483
 2165TIP3   OH2 6439   2.715   4.698   4.095
 2165TIP3    H1 6440   2.747   4.701   4.004
 2165TIP3    H2 6441   2.670   4.782   4.107
 2166TIP3   OH2 6442   4.376   3.183   4.569
 2166TIP3    H1 6443   4.331   3.130   4.502
 2166TIP3    H2 6444   4.421   3.118   4.623
 2167TIP3   OH2 6445   5.180   2.271   5.386
 2167TIP3    H1 6446   5.098   2.279   5.338
 2167TIP3    H2 6447   5.171   2.189   5.435
 2168TIP3   OH2 6448   5.936   4.762   2.220
 2168TIP3    H1 6449   5.891   4.766   2.304
 2168TIP3    H2 6450   5.968   4.852   2.206
 2169TIP3   OH2 6451   5.941   2.581   5.859
 2169TIP3    H1 6452   5.859   2.611   5.820
 2169TIP3    H2 6453   5.956   2.640   5.933
 2170TIP3   OH2 6454   1.490   7.625   4.845
 2170TIP3    H1 6455   1.480   7.674   4.927
 2170TIP3    H2 6456   1.583   7.634   4.823
 2171TIP3   OH2 6457   5.963   5.631   4.439
 2171TIP3    H1 6458   6.031   5.698   4.431
 2171TIP3    H2 6459   5.910   5.641   4.360
 2172TIP3   OH2 6460   7.822   4.436   2.076
 2172TIP3    H1 6461   7.872   4.478   2.007
 2172TIP3    H2 6462   7.773   4.367   2.032
 2173TIP3   OH2 6463   6.523   6.490   6.722
 2173TIP3    H1 6464   6.559   6.453   6.803
 2173TIP3    H2 6465   6.490   6.576   6.748
 2174TIP3   OH2 6466   0.567   6.327   5.159
 2174TIP3    H1 6467   0.579   6.376   5.078
 2174TIP3    H2 6468   0.636   6.359   5.217
 2175TIP3   OH2 6469   0.231   2.267   4.161
 2175TIP3    H1 6470   0.270   2.192   4.206
 2175TIP3    H2 6471   0.144   2.275   4.199
 2176TIP3   OH2 6472   2.062   0.372   6.482
 2176TIP3    H1 6473   2.004   0.430   6.533
 2176TIP3    H2 6474   2.081   0.299   6.541
 2177TIP3   OH2 6475   1.205   1.587   6.266
 2177TIP3    H1 6476   1.239   1.657   6.211
 2177TIP3    H2 6477   1.214   1.620   6.355
 2178TIP3   OH2 6478   2.980   0.480   3.555
 2178TIP3    H1 6479   2.962   0.561   3.508
 2178TIP3    H2 6480   3.075   0.470   3.550
 2179TIP3   OH2 6481   1.890   1.301   2.352
 2179TIP3    H1 6482   1.835   1.225   2.369
 2179TIP3    H2 6483   1.905   1.340   2.438
 2180TIP3   OH2 6484   0.430   2.724   3.062
 2180TIP3    H1 6485   0.366   2.724   3.133
 2180TIP3    H2 6486   0.397   2.790   3.001
 2181TIP3   OH2 6487   2.492   6.075   2.894
 2181TIP3    H1 6488   2.460   6.165   2.889
 2181TIP3    H2 6489   2.424   6.023   2.851
 2182TIP3   OH2 6490   3.271   0.846   0.999
 2182TIP3    H1 6491   3.264   0.939   0.982
 2182TIP3    H2 6492   3.245   0.804   0.917
 2183TIP3   OH2 6493   1.378   0.673   0.448
 2183TIP3    H1 6494   1.391   0.579   0.453
 2183TIP3    H2 6495   1.374   0.702   0.540
 2184TIP3   OH2 6496   1.167   6.692   6.293
 2184TIP3    H1 6497   1.248   6.717   6.249
 2184TIP3    H2 6498   1.100   6.750   6.257
 2185TIP3   OH2 6499   7.384   3.857   2.063
 2185TIP3    H1 6500   7.387   3.878   1.969
 2185TIP3    H2 6501   7.394   3.941   2.107
 2186TIP3   OH2 6502   3.718   4.879   2.611
 2186TIP3    H1 6503   3.624   4.876   2.594
 2186TIP3    H2 6504   3.728   4.946   2.678
 2187TIP3   OH2 6505   2.641   4.019   1.790
 2187TIP3    H1 6506   2.710   3.983   1.846
 2187TIP3    H2 6507   2.595   3.942   1.757
 2188TIP3   OH2 6508   6.518   2.902   0.186
 2188TIP3    H1 6509   6.531   2.977   0.244
 2188TIP3    H2 6510   6.536   2.825   0.240
 2189TIP3   OH2 6511   4.083   4.966   3.909
 2189TIP3    H1 6512   4.114   4.975   3.999
 2189TIP3    H2 6513   4.007   4.908   3.916
 2190TIP3   OH2 6514   3.378   5.060   4.311
 2190TIP3    H1 6515   3.307   5.027   4.256
 2190TIP3    H2 6516   3.449   4.998   4.299
 2191TIP3   OH2 6517   4.767   2.189   0.371
 2191TIP3    H1 6518   4.777   2.159   0.281
 2191TIP3    H2 6519   4.754   2.284   0.363
 2192TIP3   OH2 6520   0.999   7.328   4.424
 2192TIP3    H1 6521   0.914   7.344   4.383
 2192TIP3    H2 6522   1.030   7.247   4.383
 2193TIP3   OH2 6523   7.581   0.145   0.226
 2193TIP3    H1 6524   7.551   0.056   0.207
 2193TIP3    H2 6525   7.627   0.139   0.309
 2194TIP3   OH2 6526   0.795   2.755   2.314
 2194TIP3    H1 6527   0.713   2.719   2.280
 2194TIP3    H2 6528   0.856   2.681   2.314
 2195TIP3   OH2 6529   4.106   1.511   5.779
 2195TIP3    H1 6530   4.020   1.550   5.793
 2195TIP3    H2 6531   4.104   1.479   5.689
 2196TIP3   OH2 6532   4.563   7.124   1.020
 2196TIP3    H1 6533   4.537   7.211   0.991
 2196TIP3    H2 6534   4.485   7.070   1.004
 2197TIP3   OH2 6535   4.668   6.721   6.380
 2197TIP3    H1 6536   4.638   6.734   6.290
 2197TIP3    H2 6537   4.596   6.751   6.434
 2198TIP3   OH2 6538   1.189   0.875   5.431
 2198TIP3    H1 6539   1.255   0.837   5.374
 2198TIP3    H2 6540   1.232   0.885   5.516
 2199TIP3   OH2 6541   0.081   5.585   1.976
 2199TIP3    H1 6542   0.067   5.663   2.031
 2199TIP3    H2 6543   0.011   5.525   2.000
 2200TIP3   OH2 6544   4.333   5.418   2.841
 2200TIP3    H1 6545   4.347   5.350   2.775
 2200TIP3    H2 6546   4.389   5.392   2.914
 2201TIP3   OH2 6547   4.710   2.646   2.251
 2201TIP3    H1 6548   4.769   2.716   2.224
 2201TIP3    H2 6549   4.654   2.631   2.175
 2202TIP3   OH2 6550   2.683   3.582   3.289
 2202TIP3    H1 6551   2.761   3.557   3.240
 2202TIP3    H2 6552   2.703   3.669   3.324
 2203TIP3   OH2 6553   1.729   5.462   2.156
 2203TIP3    H1 6554   1.690   5.380   2.125
 2203TIP3    H2 6555   1.737   5.451   2.251
 2204TIP3   OH2 6556   4.476   1.005   1.189
 2204TIP3    H1 6557   4.434   1.040   1.110
 2204TIP3    H2 6558   4.408   0.952   1.230
 2205TIP3   OH2 6559   3.765   5.708   5.470
 2205TIP3    H1 6560   3.748   5.690   5.563
 2205TIP3    H2 6561   3.678   5.714   5.430
 2206TIP3   OH2 6562   0.320   6.363   3.942
 2206TIP3    H1 6563   0.301   6.452   3.971
 2206TIP3    H2 6564   0.315   6.310   4.021
 2207TIP3   OH2 6565   1.405   2.937   0.530
 2207TIP3    H1 6566   1.426   3.015   0.479
 2207TIP3    H2 6567   1.420   2.863   0.471
 2208TIP3   OH2 6568   0.299   6.992   5.238
 2208TIP3    H1 6569   0.312   6.977   5.331
 2208TIP3    H2 6570   0.374   7.045   5.211
 2209TIP3   OH2 6571   5.600   2.487   1.944
 2209TIP3    H1 6572   5.511   2.503   1.913
 2209TIP3    H2 6573   5.622   2.564   1.996
 2210TIP3   OH2 6574   0.839   6.377   2.506
 2210TIP3    H1 6575   0.918   6.403   2.553
 2210TIP3    H2 6576   0.866   6.371   2.414
 2211TIP3   OH2 6577   8.273   6.064   4.496
 2211TIP3    H1 6578   8.188   6.021   4.505
 2211TIP3    H2 6579   8.293   6.096   4.583
 2212TIP3   OH2 6580   6.299   0.027   6.287
 2212TIP3    H1 6581   6.349  -0.031   6.344
 2212TIP3    H2 6582   6.364   0.063   6.227
 2213TIP3   OH2 6583   3.373   4.891   5.365
 2213TIP3    H1 6584   3.461   4.865   5.337
 2213TIP3    H2 6585   3.376   4.986   5.368
 2214TIP3   OH2 6586   7.851   3.962   2.151
 2214TIP3    H1 6587   7.918   3.953   2.219
 2214TIP3    H2 6588   7.789   4.026   2.186
 2215TIP3   OH2 6589   6.799   3.251   2.205
 2215TIP3    H1 6590   6.877   3.199   2.185
 2215TIP3    H2 6591   6.814   3.285   2.294
 2216TIP3   OH2 6592   8.191   3.032   3.387
 2216TIP3    H1 6593   8.168   3.109   3.335
 2216TIP3    H2 6594   8.107   3.002   3.422
 2217TIP3   OH2 6595   0.269   5.925   1.341
 2217TIP3    H1 6596   0.330   5.884   1.280
 2217TIP3    H2 6597   0.239   5.853   1.396
 2218TIP3   OH2 6598   1.216   5.390   5.195
 2218TIP3    H1 6599   1.282   5.454   5.225
 2218TIP3    H2 6600   1.256   5.349   5.118
 2219TIP3   OH2 6601   0.942   3.386   0.301
 2219TIP3    H1 6602   0.972   3.467   0.261
 2219TIP3    H2 6603   0.944   3.322   0.230
 2220TIP3   OH2 6604   2.622   7.548   5.741
 2220TIP3    H1 6605   2.600   7.582   5.827
 2220TIP3    H2 6606   2.550   7.577   5.684
 2221TIP3   OH2 6607   1.447   1.696   4.092
 2221TIP3    H1 6608   1.517   1.760   4.080
 2221TIP3    H2 6609   1.383   1.719   4.025
 2222TIP3   OH2 6610   2.528   4.236   6.443
 2222TIP3    H1 6611   2.444   4.207   6.407
 2222TIP3    H2 6612   2.592   4.173   6.409
 2223TIP3   OH2 6613   3.894   1.594   1.746
 2223TIP3    H1 6614   3.867   1.553   1.828
 2223TIP3    H2 6615   3.989   1.599   1.752
 2224TIP3   OH2 6616   2.092   4.762   0.051
 2224TIP3    H1 6617   2.046   4.678   0.051
 2224TIP3    H2 6618   2.098   4.785   0.143
 2225TIP3   OH2 6619   2.690   1.465   6.059
 2225TIP3    H1 6620   2.650   1.395   6.008
 2225TIP3    H2 6621   2.736   1.519   5.994
 2226TIP3   OH2 6622   3.284   0.292   1.473
 2226TIP3    H1 6623   3.207   0.253   1.515
 2226TIP3    H2 6624   3.327   0.218   1.431
 2227TIP3   OH2 6625   1.365   7.427   0.058
 2227TIP3    H1 6626   1.340   7.403  -0.031
 2227TIP3    H2 6627   1.308   7.374   0.114
 2228TIP3   OH2 6628   4.502   0.882   1.981
 2228TIP3    H1 6629   4.472   0.805   1.933
 2228TIP3    H2 6630   4.494   0.857   2.073
 2229TIP3   OH2 6631   0.175   3.286   6.108
 2229TIP3    H1 6632   0.240   3.217   6.091
 2229TIP3    H2 6633   0.102   3.265   6.050
 2230TIP3   OH2 6634   0.060   0.280   0.091
 2230TIP3    H1 6635  -0.030   0.296   0.118
 2230TIP3    H2 6636   0.056   0.201   0.038
 2231TIP3   OH2 6637   0.988   1.010   2.991
 2231TIP3    H1 6638   0.959   0.997   3.082
 2231TIP3    H2 6639   1.080   0.983   2.991
 2232TIP3   OH2 6640   3.937   4.464   3.569
 2232TIP3    H1 6641   3.947   4.389   3.511
 2232TIP3    H2 6642   4.026   4.485   3.596
 2233TIP3   OH2 6643   0.282   1.042   1.253
 2233TIP3    H1 6644   0.218   1.036   1.183
 2233TIP3    H2 6645   0.230   1.056   1.332
 2234TIP3   OH2 6646   6.862   2.945   0.777
 2234TIP3    H1 6647   6.886   2.855   0.758
 2234TIP3    H2 6648   6.901   2.963   0.863
 2235TIP3   OH2 6649   4.614   5.423   4.402
 2235TIP3    H1 6650   4.591   5.470   4.482
 2235TIP3    H2 6651   4.696   5.462   4.373
 2236TIP3   OH2 6652   8.129   2.279   2.233
 2236TIP3    H1 6653   8.083   2.209   2.280
 2236TIP3    H2 6654   8.221   2.255   2.238
 2237TIP3   OH2 6655   2.730   3.110   1.415
 2237TIP3    H1 6656   2.640   3.141   1.427
 2237TIP3    H2 6657   2.729   3.066   1.330
 2238TIP3   OH2 6658   1.019   7.261   5.686
 2238TIP3    H1 6659   1.060   7.185   5.727
 2238TIP3    H2 6660   0.932   7.231   5.660
 2239TIP3   OH2 6661   5.703   4.385   2.878
 2239TIP3    H1 6662   5.746   4.331   2.812
 2239TIP3    H2 6663   5.751   4.368   2.959
 2240TIP3   OH2 6664   4.364   5.817   0.502
 2240TIP3    H1 6665   4.330   5.743   0.552
 2240TIP3    H2 6666   4.395   5.779   0.420
 2241TIP3   OH2 6667   0.891   4.999   5.415
 2241TIP3    H1 6668   0.896   4.939   5.341
 2241TIP3    H2 6669   0.982   5.030   5.426
 2242TIP3   OH2 6670   5.341   7.607   6.661
 2242TIP3    H1 6671   5.427   7.646   6.676
 2242TIP3    H2 6672   5.338   7.531   6.720
 2243TIP3   OH2 6673   3.660   3.713   4.414
 2243TIP3    H1 6674   3.670   3.695   4.507
 2243TIP3    H2 6675   3.685   3.805   4.405
 2244TIP3   OH2 6676   2.600   6.694   0.883
 2244TIP3    H1 6677   2.580   6.774   0.834
 2244TIP3    H2 6678   2.606   6.722   0.974
 2245TIP3   OH2 6679   4.754   0.619   2.157
 2245TIP3    H1 6680   4.764   0.550   2.222
 2245TIP3    H2 6681   4.665   0.610   2.124
 2246TIP3   OH2 6682   5.884   1.554   3.977
 2246TIP3    H1 6683   5.920   1.528   3.892
 2246TIP3    H2 6684   5.841   1.638   3.959
 2247TIP3   OH2 6685   1.262   1.790   2.932
 2247TIP3    H1 6686   1.188   1.774   2.872
 2247TIP3    H2 6687   1.259   1.716   2.993
 2248TIP3   OH2 6688   4.686   1.198   2.671
 2248TIP3    H1 6689   4.727   1.283   2.652
 2248TIP3    H2 6690   4.598   1.220   2.700
 2249TIP3   OH2 6691   3.273   3.643   5.563
 2249TIP3    H1 6692   3.195   3.673   5.610
 2249TIP3    H2 6693   3.344   3.697   5.598
 2250TIP3   OH2 6694   6.697   2.240   3.453
 2250TIP3    H1 6695   6.777   2.221   3.404
 2250TIP3    H2 6696   6.716   2.212   3.542
 2251TIP3   OH2 6697   5.135   1.956   5.464
 2251TIP3    H1 6698   5.070   1.887   5.450
 2251TIP3    H2 6699   5.219   1.912   5.460
 2252TIP3   OH2 6700   4.391   2.761   3.637
 2252TIP3    H1 6701   4.375   2.796   3.549
 2252TIP3    H2 6702   4.443   2.828   3.681
 2253TIP3   OH2 6703   2.014   5.824   6.541
 2253TIP3    H1 6704   1.999   5.896   6.602
 2253TIP3    H2 6705   2.028   5.867   6.456
 2254TIP3   OH2 6706   1.172   1.337   0.906
 2254TIP3    H1 6707   1.239   1.357   0.972
 2254TIP3    H2 6708   1.093   1.380   0.939
 2255TIP3   OH2 6709   4.343   1.028   5.934
 2255TIP3    H1 6710   4.337   0.942   5.892
 2255TIP3    H2 6711   4.303   1.087   5.871
 2256TIP3   OH2 6712   6.917   6.044   3.748
 2256TIP3    H1 6713   6.978   6.118   3.742
 2256TIP3    H2 6714   6.935   5.991   3.671
 2257TIP3   OH2 6715   4.876   3.650   5.638
 2257TIP3    H1 6716   4.799   3.600   5.611
 2257TIP3    H2 6717   4.879   3.640   5.733
 2258TIP3   OH2 6718   6.914   7.658   3.310
 2258TIP3    H1 6719   6.938   7.591   3.247
 2258TIP3    H2 6720   6.820   7.670   3.299
 2259TIP3   OH2 6721   4.651   4.527   4.202
 2259TIP3    H1 6722   4.704   4.447   4.199
 2259TIP3    H2 6723   4.611   4.527   4.289
 2260TIP3   OH2 6724   0.466   0.644   6.154
 2260TIP3    H1 6725   0.498   0.716   6.208
 2260TIP3    H2 6726   0.545   0.601   6.122
 2261TIP3   OH2 6727   6.078   5.967   4.485
 2261TIP3    H1 6728   5.983   5.973   4.498
 2261TIP3    H2 6729   6.107   6.058   4.482
 2262TIP3   OH2 6730   5.445   6.366   4.587
 2262TIP3    H1 6731   5.380   6.378   4.518
 2262TIP3    H2 6732   5.429   6.438   4.648
 2263TIP3   OH2 6733   4.835   7.584   5.263
 2263TIP3    H1 6734   4.769   7.524   5.296
 2263TIP3    H2 6735   4.804   7.671   5.289
 2264TIP3   OH2 6736   3.039   2.346   0.800
 2264TIP3    H1 6737   3.012   2.421   0.748
 2264TIP3    H2 6738   3.134   2.355   0.807
 2265TIP3   OH2 6739   0.551   5.728   4.799
 2265TIP3    H1 6740   0.589   5.640   4.793
 2265TIP3    H2 6741   0.501   5.727   4.880
 2266TIP3   OH2 6742   7.626   6.749   5.180
 2266TIP3    H1 6743   7.716   6.758   5.150
 2266TIP3    H2 6744   7.581   6.703   5.109
 2267TIP3   OH2 6745   7.329   1.801   3.821
 2267TIP3    H1 6746   7.349   1.852   3.900
 2267TIP3    H2 6747   7.357   1.858   3.749
 2268TIP3   OH2 6748   7.800   7.781   1.407
 2268TIP3    H1 6749   7.814   7.726   1.330
 2268TIP3    H2 6750   7.799   7.870   1.372
 2269TIP3   OH2 6751   5.486   2.090   0.956
 2269TIP3    H1 6752   5.495   2.179   0.990
 2269TIP3    H2 6753   5.531   2.091   0.872
 2270TIP3   OH2 6754   8.241   6.720   5.813
 2270TIP3    H1 6755   8.199   6.738   5.897
 2270TIP3    H2 6756   8.244   6.625   5.807
 2271TIP3   OH2 6757   2.315   5.120   1.062
 2271TIP3    H1 6758   2.358   5.161   0.987
 2271TIP3    H2 6759   2.226   5.156   1.061
 2272TIP3   OH2 6760   6.557   1.923   6.446
 2272TIP3    H1 6761   6.499   1.999   6.443
 2272TIP3    H2 6762   6.531   1.876   6.525
 2273TIP3   OH2 6763   7.793   2.685   3.363
 2273TIP3    H1 6764   7.719   2.696   3.422
 2273TIP3    H2 6765   7.833   2.602   3.390
 2274TIP3   OH2 6766   6.743   3.083   5.781
 2274TIP3    H1 6767   6.657   3.091   5.823
 2274TIP3    H2 6768   6.747   2.991   5.754
 2275TIP3   OH2 6769   5.814   4.216   2.680
 2275TIP3    H1 6770   5.886   4.275   2.658
 2275TIP3    H2 6771   5.757   4.219   2.603
 2276TIP3   OH2 6772   5.213   6.610   6.222
 2276TIP3    H1 6773   5.234   6.682   6.163
 2276TIP3    H2 6774   5.169   6.651   6.296
 2277TIP3   OH2 6775   5.693   0.218   2.564
 2277TIP3    H1 6776   5.604   0.191   2.588
 2277TIP3    H2 6777   5.742   0.218   2.646
 2278TIP3   OH2 6778   1.724   4.028   2.619
 2278TIP3    H1 6779   1.743   4.033   2.525
 2278TIP3    H2 6780   1.744   3.938   2.643
 2279TIP3   OH2 6781   1.726   6.653   3.964
 2279TIP3    H1 6782   1.699   6.575   3.915
 2279TIP3    H2 6783   1.667   6.656   4.039
 2280TIP3   OH2 6784   5.732   5.769   0.583
 2280TIP3    H1 6785   5.750   5.682   0.549
 2280TIP3    H2 6786   5.766   5.769   0.672
 2281TIP3   OH2 6787   1.753   4.547   0.639
 2281TIP3    H1 6788   1.689   4.491   0.595
 2281TIP3    H2 6789   1.749   4.520   0.731
 2282TIP3   OH2 6790   3.207   4.562   1.965
 2282TIP3    H1 6791   3.147   4.510   1.912
 2282TIP3    H2 6792   3.250   4.620   1.903
 2283TIP3   OH2 6793   2.737   5.074   2.903
 2283TIP3    H1 6794   2.713   5.118   2.821
 2283TIP3    H2 6795   2.755   4.983   2.878
 2284TIP3   OH2 6796   3.140   7.351   0.551
 2284TIP3    H1 6797   3.200   7.371   0.623
 2284TIP3    H2 6798   3.054   7.347   0.591
 2285TIP3   OH2 6799   3.174   6.483   2.225
 2285TIP3    H1 6800   3.231   6.416   2.187
 2285TIP3    H2 6801   3.098   6.485   2.167
 2286TIP3   OH2 6802   1.023   0.345   5.501
 2286TIP3    H1 6803   0.932   0.353   5.472
 2286TIP3    H2 6804   1.061   0.432   5.488
 2287TIP3   OH2 6805   1.356   1.125   0.832
 2287TIP3    H1 6806   1.313   1.075   0.763
 2287TIP3    H2 6807   1.289   1.186   0.864
 2288TIP3   OH2 6808   5.447   2.010   6.636
 2288TIP3    H1 6809   5.462   2.082   6.574
 2288TIP3    H2 6810   5.525   2.010   6.691
 2289TIP3   OH2 6811   5.185   4.258   1.200
 2289TIP3    H1 6812   5.240   4.335   1.212
 2289TIP3    H2 6813   5.096   4.289   1.215
 2290TIP3   OH2 6814   6.545   5.427   0.451
 2290TIP3    H1 6815   6.465   5.374   0.453
 2290TIP3    H2 6816   6.583   5.410   0.365
 2291TIP3   OH2 6817   2.513   6.836   1.903
 2291TIP3    H1 6818   2.449   6.776   1.941
 2291TIP3    H2 6819   2.598   6.803   1.933
 2292TIP3   OH2 6820   6.822   6.070   1.976
 2292TIP3    H1 6821   6.728   6.090   1.977
 2292TIP3    H2 6822   6.838   6.027   2.060
 2293TIP3   OH2 6823   0.369   6.962   0.503
 2293TIP3    H1 6824   0.359   7.024   0.431
 2293TIP3    H2 6825   0.450   6.988   0.547
 2294TIP3   OH2 6826   7.716   6.838   1.549
 2294TIP3    H1 6827   7.718   6.917   1.603
 2294TIP3    H2 6828   7.625   6.828   1.524
 2295TIP3   OH2 6829   6.862   3.724   5.833
 2295TIP3    H1 6830   6.813   3.753   5.756
 2295TIP3    H2 6831   6.828   3.778   5.904
 2296TIP3   OH2 6832   7.435   5.579   5.986
 2296TIP3    H1 6833   7.509   5.641   5.985
 2296TIP3    H2 6834   7.401   5.584   6.075
 2297TIP3   OH2 6835   3.964   4.830   2.490
 2297TIP3    H1 6836   4.044   4.867   2.527
 2297TIP3    H2 6837   3.895   4.854   2.552
 2298TIP3   OH2 6838   5.123   4.351   3.703
 2298TIP3    H1 6839   5.075   4.277   3.668
 2298TIP3    H2 6840   5.076   4.375   3.783
 2299TIP3   OH2 6841   5.029   1.948   1.532
 2299TIP3    H1 6842   5.023   1.852   1.533
 2299TIP3    H2 6843   5.120   1.967   1.556
 2300TIP3   OH2 6844   5.312   0.475   5.135
 2300TIP3    H1 6845   5.380   0.423   5.179
 2300TIP3    H2 6846   5.358   0.517   5.062
 2301TIP3   OH2 6847   7.385   0.956   1.830
 2301TIP3    H1 6848   7.347   1.042   1.851
 2301TIP3    H2 6849   7.316   0.893   1.852
 2302TIP3   OH2 6850   7.015   2.381   2.070
 2302TIP3    H1 6851   6.948   2.449   2.065
 2302TIP3    H2 6852   7.052   2.390   2.157
 2303TIP3   OH2 6853   5.933   7.408   0.814
 2303TIP3    H1 6854   6.002   7.373   0.871
 2303TIP3    H2 6855   5.888   7.474   0.868
 2304TIP3   OH2 6856   3.616   7.342   3.904
 2304TIP3    H1 6857   3.523   7.358   3.918
 2304TIP3    H2 6858   3.650   7.317   3.990
 2305TIP3   OH2 6859   2.892   3.189   0.399
 2305TIP3    H1 6860   2.951   3.173   0.325
 2305TIP3    H2 6861   2.927   3.135   0.470
 2306TIP3   OH2 6862   4.033   3.292   3.338
 2306TIP3    H1 6863   4.044   3.258   3.426
 2306TIP3    H2 6864   4.073   3.226   3.281
 2307TIP3   OH2 6865   1.105   1.350   5.214
 2307TIP3    H1 6866   1.194   1.363   5.249
 2307TIP3    H2 6867   1.118   1.338   5.120
 2308TIP3   OH2 6868   1.990   1.943   5.173
 2308TIP3    H1 6869   1.957   1.883   5.107
 2308TIP3    H2 6870   2.077   1.909   5.195
 2309TIP3   OH2 6871   3.071   0.153   6.381
 2309TIP3    H1 6872   3.028   0.068   6.370
 2309TIP3    H2 6873   3.075   0.189   6.293
 2310TIP3   OH2 6874   4.067   4.082   3.687
 2310TIP3    H1 6875   4.025   4.039   3.613
 2310TIP3    H2 6876   4.134   4.138   3.647
 2311TIP3   OH2 6877   3.186   0.612   4.110
 2311TIP3    H1 6878   3.137   0.593   4.190
 2311TIP3    H2 6879   3.123   0.654   4.053
 2312TIP3   OH2 6880   0.433   4.978   5.384
 2312TIP3    H1 6881   0.459   4.899   5.431
 2312TIP3    H2 6882   0.516   5.019   5.359
 2313TIP3   OH2 6883   4.664   6.539   4.810
 2313TIP3    H1 6884   4.748   6.494   4.819
 2313TIP3    H2 6885   4.663   6.569   4.719
 2314TIP3   OH2 6886   0.833   0.943   3.407
 2314TIP3    H1 6887   0.771   0.889   3.359
 2314TIP3    H2 6888   0.897   0.881   3.443
 2315TIP3   OH2 6889   1.392   1.752   5.126
 2315TIP3    H1 6890   1.372   1.691   5.054
 2315TIP3    H2 6891   1.456   1.705   5.179
 2316TIP3   OH2 6892   6.252   7.799   0.051
 2316TIP3    H1 6893   6.268   7.889   0.024
 2316TIP3    H2 6894   6.313   7.747  -0.002
 2317TIP3   OH2 6895   4.830   4.361   0.587
 2317TIP3    H1 6896   4.912   4.375   0.634
 2317TIP3    H2 6897   4.837   4.416   0.509
 2318TIP3   OH2 6898   2.560   7.303   4.285
 2318TIP3    H1 6899   2.533   7.258   4.205
 2318TIP3    H2 6900   2.521   7.390   4.278
 2319TIP3   OH2 6901   1.452   6.003   4.408
 2319TIP3    H1 6902   1.416   6.074   4.462
 2319TIP3    H2 6903   1.397   6.003   4.330
 2320TIP3   OH2 6904   4.580   1.549   2.293
 2320TIP3    H1 6905   4.606   1.627   2.341
 2320TIP3    H2 6906   4.551   1.488   2.360
 2321TIP3   OH2 6907   3.560   1.082   0.799
 2321TIP3    H1 6908   3.501   1.157   0.784
 2321TIP3    H2 6909   3.507   1.005   0.778
 2322TIP3   OH2 6910   4.246   0.861   4.917
 2322TIP3    H1 6911   4.165   0.830   4.958
 2322TIP3    H2 6912   4.255   0.952   4.946
 2323TIP3   OH2 6913   1.941   4.066   1.222
 2323TIP3    H1 6914   2.001   4.135   1.196
 2323TIP3    H2 6915   1.968   3.990   1.171
 2324TIP3   OH2 6916   8.020   7.125   4.446
 2324TIP3    H1 6917   8.061   7.063   4.386
 2324TIP3    H2 6918   7.928   7.098   4.450
 2325TIP3   OH2 6919   1.049   2.984   4.789
 2325TIP3    H1 6920   1.050   2.960   4.697
 2325TIP3    H2 6921   1.137   2.964   4.821
 2326TIP3   OH2 6922   8.254   1.809   2.925
 2326TIP3    H1 6923   8.308   1.883   2.952
 2326TIP3    H2 6924   8.173   1.848   2.893
 2327TIP3   OH2 6925   4.846   4.192   1.450
 2327TIP3    H1 6926   4.920   4.208   1.509
 2327TIP3    H2 6927   4.860   4.253   1.378
 2328TIP3   OH2 6928   3.443   1.617   0.259
 2328TIP3    H1 6929   3.401   1.673   0.325
 2328TIP3    H2 6930   3.393   1.631   0.179
 2329TIP3   OH2 6931   2.724   5.193   1.927
 2329TIP3    H1 6932   2.641   5.152   1.902
 2329TIP3    H2 6933   2.737   5.262   1.862
 2330TIP3   OH2 6934   3.602   5.524   2.759
 2330TIP3    H1 6935   3.539   5.488   2.821
 2330TIP3    H2 6936   3.582   5.617   2.756
 2331TIP3   OH2 6937   0.363   6.394   1.712
 2331TIP3    H1 6938   0.302   6.436   1.652
 2331TIP3    H2 6939   0.439   6.453   1.714
 2332TIP3   OH2 6940   0.573   2.935   2.432
 2332TIP3    H1 6941   0.522   2.889   2.499
 2332TIP3    H2 6942   0.647   2.876   2.414
 2333TIP3   OH2 6943   6.419   0.799   3.958
 2333TIP3    H1 6944   6.340   0.760   3.995
 2333TIP3    H2 6945   6.388   0.851   3.884
 2334TIP3   OH2 6946   6.266   2.939   4.479
 2334TIP3    H1 6947   6.185   2.889   4.467
 2334TIP3    H2 6948   6.315   2.888   4.544
 2335TIP3   OH2 6949   4.351   1.810   4.958
 2335TIP3    H1 6950   4.291   1.834   4.887
 2335TIP3    H2 6951   4.433   1.788   4.913
 2336TIP3   OH2 6952   0.096   5.223   1.720
 2336TIP3    H1 6953   0.078   5.190   1.632
 2336TIP3    H2 6954   0.117   5.316   1.706
 2337TIP3   OH2 6955   8.187   2.600   1.646
 2337TIP3    H1 6956   8.189   2.683   1.692
 2337TIP3    H2 6957   8.114   2.552   1.685
 2338TIP3   OH2 6958   7.689   6.086   3.302
 2338TIP3    H1 6959   7.737   6.050   3.376
 2338TIP3    H2 6960   7.755   6.097   3.233
 2339TIP3   OH2 6961   2.406   3.156   1.066
 2339TIP3    H1 6962   2.460   3.135   0.990
 2339TIP3    H2 6963   2.416   3.250   1.078
 2340TIP3   OH2 6964   1.938   6.073   0.159
 2340TIP3    H1 6965   2.002   6.002   0.147
 2340TIP3    H2 6966   1.887   6.046   0.235
 2341TIP3   OH2 6967   4.571   7.688   5.992
 2341TIP3    H1 6968   4.631   7.752   6.032
 2341TIP3    H2 6969   4.615   7.662   5.911
 2342TIP3   OH2 6970   0.127   5.683   4.434
 2342TIP3    H1 6971   0.147   5.730   4.515
 2342TIP3    H2 6972   0.115   5.592   4.462
 2343TIP3   OH2 6973   7.409   2.248   3.219
 2343TIP3    H1 6974   7.465   2.170   3.224
 2343TIP3    H2 6975   7.418   2.277   3.128
 2344TIP3   OH2 6976   0.794   7.693   6.742
 2344TIP3    H1 6977   0.730   7.738   6.797
 2344TIP3    H2 6978   0.741   7.648   6.676
 2345TIP3   OH2 6979   6.484   3.691   5.840
 2345TIP3    H1 6980   6.487   3.599   5.813
 2345TIP3    H2 6981   6.558   3.731   5.795
 2346TIP3   OH2 6982   0.112   4.048   5.015
 2346TIP3    H1 6983   0.177   4.071   4.948
 2346TIP3    H2 6984   0.029   4.079   4.979
 2347TIP3   OH2 6985   0.530   2.812   4.176
 2347TIP3    H1 6986   0.593   2.824   4.105
 2347TIP3    H2 6987   0.549   2.883   4.237
 2348TIP3   OH2 6988   1.333   1.199   4.883
 2348TIP3    H1 6989   1.352   1.156   4.967
 2348TIP3    H2 6990   1.260   1.257   4.903
 2349TIP3   OH2 6991   6.275   5.439   3.196
 2349TIP3    H1 6992   6.306   5.384   3.268
 2349TIP3    H2 6993   6.353   5.458   3.144
 2350TIP3   OH2 6994   2.951   6.822   6.016
 2350TIP3    H1 6995   3.028   6.873   5.992
 2350TIP3    H2 6996   2.896   6.823   5.938
 2351TIP3   OH2 6997   6.709   6.472   4.994
 2351TIP3    H1 6998   6.707   6.551   5.048
 2351TIP3    H2 6999   6.759   6.497   4.917
 2352TIP3   OH2 7000   0.152   0.708   4.707
 2352TIP3    H1 7001   0.064   0.730   4.676
 2352TIP3    H2 7002   0.200   0.791   4.705
 2353TIP3   OH2 7003   5.450   3.509   0.425
 2353TIP3    H1 7004   5.400   3.587   0.403
 2353TIP3    H2 7005   5.402   3.468   0.496
 2354TIP3   OH2 7006   5.562   2.829   3.866
 2354TIP3    H1 7007   5.625   2.774   3.912
 2354TIP3    H2 7008   5.477   2.805   3.905
 2355TIP3   OH2 7009   5.199   3.521   3.148
 2355TIP3    H1 7010   5.168   3.525   3.238
 2355TIP3    H2 7011   5.219   3.612   3.125
 2356TIP3   OH2 7012   4.064   0.224   4.779
 2356TIP3    H1 7013   3.985   0.206   4.830
 2356TIP3    H2 7014   4.135   0.184   4.829
 2357TIP3   OH2 7015   3.355   3.719   3.335
 2357TIP3    H1 7016   3.384   3.665   3.409
 2357TIP3    H2 7017   3.375   3.667   3.258
 2358TIP3   OH2 7018   3.376   0.512   4.879
 2358TIP3    H1 7019   3.387   0.606   4.861
 2358TIP3    H2 7020   3.464   0.482   4.902
 2359TIP3   OH2 7021   0.994   0.838   4.454
 2359TIP3    H1 7022   1.048   0.762   4.477
 2359TIP3    H2 7023   1.039   0.879   4.380
 2360TIP3   OH2 7024   5.710   6.758   3.550
 2360TIP3    H1 7025   5.683   6.681   3.501
 2360TIP3    H2 7026   5.670   6.748   3.636
 2361TIP3   OH2 7027   7.598   4.397   5.133
 2361TIP3    H1 7028   7.591   4.302   5.129
 2361TIP3    H2 7029   7.689   4.416   5.109
 2362TIP3   OH2 7030   1.117   2.679   2.402
 2362TIP3    H1 7031   1.117   2.689   2.497
 2362TIP3    H2 7032   1.108   2.585   2.387
 2363TIP3   OH2 7033   1.685   3.645   2.987
 2363TIP3    H1 7034   1.672   3.588   3.063
 2363TIP3    H2 7035   1.778   3.667   2.988
 2364TIP3   OH2 7036   1.966   2.305   2.066
 2364TIP3    H1 7037   2.001   2.393   2.062
 2364TIP3    H2 7038   1.957   2.286   2.160
 2365TIP3   OH2 7039   7.780   4.101   5.546
 2365TIP3    H1 7040   7.823   4.087   5.461
 2365TIP3    H2 7041   7.797   4.193   5.566
 2366TIP3   OH2 7042   0.197   0.190   5.158
 2366TIP3    H1 7043   0.253   0.206   5.081
 2366TIP3    H2 7044   0.111   0.172   5.121
 2367TIP3   OH2 7045   0.726   7.373   0.452
 2367TIP3    H1 7046   0.716   7.347   0.360
 2367TIP3    H2 7047   0.783   7.307   0.490
 2368TIP3   OH2 7048   7.724   7.797   6.722
 2368TIP3    H1 7049   7.768   7.857   6.662
 2368TIP3    H2 7050   7.789   7.780   6.790
 2369TIP3   OH2 7051   5.859   4.403   0.687
 2369TIP3    H1 7052   5.951   4.429   0.682
 2369TIP3    H2 7053   5.816   4.452   0.617
 2370TIP3   OH2 7054   3.885   7.201   5.519
 2370TIP3    H1 7055   3.893   7.245   5.604
 2370TIP3    H2 7056   3.841   7.119   5.539
 2371TIP3   OH2 7057   2.015   2.609   6.713
 2371TIP3    H1 7058   2.089   2.570   6.759
 2371TIP3    H2 7059   1.973   2.664   6.779
 2372TIP3   OH2 7060   7.368   2.768   5.998
 2372TIP3    H1 7061   7.395   2.836   5.935
 2372TIP3    H2 7062   7.450   2.726   6.024
 2373TIP3   OH2 7063   2.771   0.247   2.423
 2373TIP3    H1 7064   2.755   0.266   2.515
 2373TIP3    H2 7065   2.758   0.152   2.415
 2374TIP3   OH2 7066   7.673   5.413   0.018
 2374TIP3    H1 7067   7.746   5.382   0.071
 2374TIP3    H2 7068   7.683   5.508   0.014
 2375TIP3   OH2 7069   7.676   0.782   6.559
 2375TIP3    H1 7070   7.652   0.777   6.652
 2375TIP3    H2 7071   7.595   0.810   6.515
 2376TIP3   OH2 7072   6.486   6.968   1.309
 2376TIP3    H1 7073   6.395   6.943   1.325
 2376TIP3    H2 7074   6.510   6.922   1.229
 2377TIP3   OH2 7075   0.661   1.217   2.071
 2377TIP3    H1 7076   0.592   1.200   2.134
 2377TIP3    H2 7077   0.742   1.214   2.122
 2378TIP3   OH2 7078   2.855   7.198   4.846
 2378TIP3    H1 7079   2.931   7.241   4.807
 2378TIP3    H2 7080   2.813   7.267   4.898
 2379TIP3   OH2 7081   4.151   2.360   6.397
 2379TIP3    H1 7082   4.225   2.324   6.446
 2379TIP3    H2 7083   4.180   2.359   6.306
 2380TIP3   OH2 7084   4.287   5.374   3.240
 2380TIP3    H1 7085   4.305   5.424   3.160
 2380TIP3    H2 7086   4.201   5.406   3.269
 2381TIP3   OH2 7087   3.880   2.660   2.856
 2381TIP3    H1 7088   3.788   2.684   2.861
 2381TIP3    H2 7089   3.894   2.600   2.930
 2382TIP3   OH2 7090   5.178   7.615   5.575
 2382TIP3    H1 7091   5.174   7.702   5.615
 2382TIP3    H2 7092   5.214   7.631   5.488
 2383TIP3   OH2 7093   4.419   6.747   4.726
 2383TIP3    H1 7094   4.361   6.680   4.689
 2383TIP3    H2 7095   4.370   6.829   4.715
 2384TIP3   OH2 7096   7.787   0.676   6.307
 2384TIP3    H1 7097   7.771   0.753   6.252
 2384TIP3    H2 7098   7.797   0.712   6.395
 2385TIP3   OH2 7099   6.087   5.958   5.667
 2385TIP3    H1 7100   6.064   6.049   5.689
 2385TIP3    H2 7101   6.135   5.927   5.744
 2386TIP3   OH2 7102   0.631   3.611   0.308
 2386TIP3    H1 7103   0.581   3.690   0.326
 2386TIP3    H2 7104   0.650   3.615   0.214
 2387TIP3   OH2 7105   7.894   5.365   0.177
 2387TIP3    H1 7106   7.885   5.437   0.240
 2387TIP3    H2 7107   7.986   5.370   0.149
 2388TIP3   OH2 7108   4.446   4.731   0.770
 2388TIP3    H1 7109   4.410   4.685   0.846
 2388TIP3    H2 7110   4.503   4.668   0.728
 2389TIP3   OH2 7111   4.366   1.137   1.955
 2389TIP3    H1 7112   4.308   1.121   2.029
 2389TIP3    H2 7113   4.421   1.059   1.949
 2390TIP3   OH2 7114   5.355   2.518   4.765
 2390TIP3    H1 7115   5.446   2.490   4.772
 2390TIP3    H2 7116   5.316   2.456   4.703
 2391TIP3   OH2 7117   2.419   0.274   3.036
 2391TIP3    H1 7118   2.420   0.320   3.121
 2391TIP3    H2 7119   2.376   0.335   2.977
 2392TIP3   OH2 7120   4.116   3.979   1.449
 2392TIP3    H1 7121   4.073   3.898   1.477
 2392TIP3    H2 7122   4.072   4.001   1.367
 2393TIP3   OH2 7123   5.253   0.903   0.854
 2393TIP3    H1 7124   5.331   0.959   0.857
 2393TIP3    H2 7125   5.211   0.916   0.938
 2394TIP3   OH2 7126   0.381   0.125   6.227
 2394TIP3    H1 7127   0.354   0.087   6.311
 2394TIP3    H2 7128   0.320   0.088   6.163
 2395TIP3   OH2 7129   1.625   5.448   6.129
 2395TIP3    H1 7130   1.708   5.404   6.112
 2395TIP3    H2 7131   1.595   5.476   6.043
 2396TIP3   OH2 7132   3.490   6.568   2.353
 2396TIP3    H1 7133   3.437   6.495   2.388
 2396TIP3    H2 7134   3.563   6.525   2.309
 2397TIP3   OH2 7135   1.016   6.966   5.308
 2397TIP3    H1 7136   1.073   7.029   5.263
 2397TIP3    H2 7137   0.938   6.961   5.253
 2398TIP3   OH2 7138   6.650   0.530   4.676
 2398TIP3    H1 7139   6.621   0.509   4.765
 2398TIP3    H2 7140   6.745   0.517   4.679
 2399TIP3   OH2 7141   4.101   0.621   4.042
 2399TIP3    H1 7142   4.124   0.539   3.999
 2399TIP3    H2 7143   4.101   0.599   4.136
 2400TIP3   OH2 7144   6.869   5.611   6.421
 2400TIP3    H1 7145   6.855   5.521   6.394
 2400TIP3    H2 7146   6.948   5.608   6.476
 2401TIP3   OH2 7147   3.169   6.021   1.651
 2401TIP3    H1 7148   3.212   5.972   1.581
 2401TIP3    H2 7149   3.098   5.965   1.680
 2402TIP3   OH2 7150   6.391   6.120   3.851
 2402TIP3    H1 7151   6.370   6.194   3.793
 2402TIP3    H2 7152   6.486   6.116   3.850
 2403TIP3   OH2 7153   7.374   0.479   1.524
 2403TIP3    H1 7154   7.349   0.526   1.604
 2403TIP3    H2 7155   7.347   0.389   1.539
 2404TIP3   OH2 7156   5.293   4.301   0.762
 2404TIP3    H1 7157   5.348   4.312   0.684
 2404TIP3    H2 7158   5.276   4.206   0.765
 2405TIP3   OH2 7159   4.292   1.349   5.291
 2405TIP3    H1 7160   4.196   1.346   5.284
 2405TIP3    H2 7161   4.323   1.303   5.213
 2406TIP3   OH2 7162   7.715   0.028   0.419
 2406TIP3    H1 7163   7.642   0.045   0.479
 2406TIP3    H2 7164   7.709  -0.066   0.401
 2407TIP3   OH2 7165   0.815   1.647   1.080
 2407TIP3    H1 7166   0.735   1.638   1.132
 2407TIP3    H2 7167   0.840   1.739   1.091
 2408TIP3   OH2 7168   7.759   3.014   1.546
 2408TIP3    H1 7169   7.803   3.057   1.472
 2408TIP3    H2 7170   7.808   2.933   1.559
 2409TIP3   OH2 7171   8.062   2.412   5.264
 2409TIP3    H1 7172   8.115   2.489   5.243
 2409TIP3    H2 7173   8.098   2.342   5.210
 2410TIP3   OH2 7174   2.751   7.033   0.023
 2410TIP3    H1 7175   2.798   7.075  -0.048
 2410TIP3    H2 7176   2.686   7.097   0.051
 2411TIP3   OH2 7177   7.902   2.168   3.537
 2411TIP3    H1 7178   7.944   2.128   3.461
 2411TIP3    H2 7179   7.927   2.112   3.610
 2412TIP3   OH2 7180   1.293   5.549   3.538
 2412TIP3    H1 7181   1.201   5.525   3.527
 2412TIP3    H2 7182   1.325   5.493   3.609
 2413TIP3   OH2 7183   4.555   7.695   3.153
 2413TIP3    H1 7184   4.517   7.767   3.202
 2413TIP3    H2 7185   4.488   7.670   3.090
 2414TIP3   OH2 7186   5.392   0.055   6.523
 2414TIP3    H1 7187   5.385  -0.029   6.568
 2414TIP3    H2 7188   5.478   0.089   6.548
 2415TIP3   OH2 7189   4.036   3.936   4.846
 2415TIP3    H1 7190   4.110   3.992   4.867
 2415TIP3    H2 7191   4.063   3.888   4.768
 2416TIP3   OH2 7192   2.259   5.611   6.742
 2416TIP3    H1 7193   2.323   5.565   6.687
 2416TIP3    H2 7194   2.253   5.559   6.821
 2417TIP3   OH2 7195   2.863   3.862   3.929
 2417TIP3    H1 7196   2.814   3.861   3.847
 2417TIP3    H2 7197   2.928   3.792   3.918
 2418TIP3   OH2 7198   0.734   4.491   4.513
 2418TIP3    H1 7199   0.726   4.535   4.429
 2418TIP3    H2 7200   0.771   4.558   4.571
 2419TIP3   OH2 7201   1.611   0.559   2.567
 2419TIP3    H1 7202   1.585   0.505   2.642
 2419TIP3    H2 7203   1.686   0.609   2.598
 2420TIP3   OH2 7204   6.305   5.727   2.789
 2420TIP3    H1 7205   6.365   5.659   2.821
 2420TIP3    H2 7206   6.254   5.683   2.721
 2421TIP3   OH2 7207   2.208   2.603   2.694
 2421TIP3    H1 7208   2.183   2.691   2.719
 2421TIP3    H2 7209   2.126   2.554   2.695
 2422TIP3   OH2 7210   5.959   1.942   0.007
 2422TIP3    H1 7211   5.995   1.883  -0.059
 2422TIP3    H2 7212   5.995   1.910   0.090
 2423TIP3   OH2 7213   7.682   1.206   6.295
 2423TIP3    H1 7214   7.713   1.267   6.362
 2423TIP3    H2 7215   7.589   1.229   6.283
 2424TIP3   OH2 7216   6.028   7.012   5.479
 2424TIP3    H1 7217   5.948   7.040   5.524
 2424TIP3    H2 7218   6.065   6.944   5.535
 2425TIP3   OH2 7219   4.879   7.349   0.227
 2425TIP3    H1 7220   4.925   7.268   0.206
 2425TIP3    H2 7221   4.817   7.360   0.155
 2426TIP3   OH2 7222   2.655   3.021   3.579
 2426TIP3    H1 7223   2.705   3.101   3.563
 2426TIP3    H2 7224   2.720   2.951   3.580
 2427TIP3   OH2 7225   3.576   2.966   3.401
 2427TIP3    H1 7226   3.521   3.024   3.452
 2427TIP3    H2 7227   3.522   2.941   3.326
 2428TIP3   OH2 7228   5.146   2.675   6.342
 2428TIP3    H1 7229   5.225   2.724   6.319
 2428TIP3    H2 7230   5.172   2.625   6.420
 2429TIP3   OH2 7231   4.815   3.702   3.550
 2429TIP3    H1 7232   4.746   3.730   3.609
 2429TIP3    H2 7233   4.793   3.741   3.466
 2430TIP3   OH2 7234   4.473   7.082   5.496
 2430TIP3    H1 7235   4.390   7.065   5.540
 2430TIP3    H2 7236   4.535   7.098   5.568
 2431TIP3   OH2 7237   8.057   5.108   4.738
 2431TIP3    H1 7238   7.982   5.066   4.779
 2431TIP3    H2 7239   8.117   5.127   4.811
 2432TIP3   OH2 7240   3.929   5.450   4.653
 2432TIP3    H1 7241   3.903   5.540   4.635
 2432TIP3    H2 7242   3.851   5.398   4.632
 2433TIP3   OH2 7243   5.234   7.506   6.065
 2433TIP3    H1 7244   5.227   7.535   6.156
 2433TIP3    H2 7245   5.196   7.578   6.014
 2434TIP3   OH2 7246   6.580   0.177   0.468
 2434TIP3    H1 7247   6.491   0.165   0.500
 2434TIP3    H2 7248   6.632   0.190   0.548
 2435TIP3   OH2 7249   4.544   1.608   0.715
 2435TIP3    H1 7250   4.627   1.582   0.756
 2435TIP3    H2 7251   4.482   1.613   0.788
 2436TIP3   OH2 7252   3.952   1.240   1.263
 2436TIP3    H1 7253   3.895   1.164   1.276
 2436TIP3    H2 7254   3.934   1.296   1.339
 2437TIP3   OH2 7255   1.254   4.517   5.064
 2437TIP3    H1 7256   1.170   4.474   5.054
 2437TIP3    H2 7257   1.310   4.451   5.105
 2438TIP3   OH2 7258   3.039   1.941   5.521
 2438TIP3    H1 7259   3.094   1.910   5.450
 2438TIP3    H2 7260   3.089   1.922   5.601
 2439TIP3   OH2 7261   1.375   1.801   3.287
 2439TIP3    H1 7262   1.382   1.778   3.194
 2439TIP3    H2 7263   1.434   1.740   3.331
 2440TIP3   OH2 7264   0.875   7.472   2.020
 2440TIP3    H1 7265   0.835   7.482   2.106
 2440TIP3    H2 7266   0.930   7.394   2.027
 2441TIP3   OH2 7267   4.952   3.694   6.382
 2441TIP3    H1 7268   4.998   3.769   6.344
 2441TIP3    H2 7269   5.008   3.619   6.365
 2442TIP3   OH2 7270   5.211   6.989   2.756
 2442TIP3    H1 7271   5.178   6.959   2.841
 2442TIP3    H2 7272   5.194   7.083   2.754
 2443TIP3   OH2 7273   0.147   6.792   5.147
 2443TIP3    H1 7274   0.121   6.824   5.061
 2443TIP3    H2 7275   0.210   6.857   5.179
 2444TIP3   OH2 7276   8.158   0.256   6.251
 2444TIP3    H1 7277   8.170   0.216   6.337
 2444TIP3    H2 7278   8.075   0.303   6.257
 2445TIP3   OH2 7279   5.948   4.787   0.636
 2445TIP3    H1 7280   6.002   4.741   0.571
 2445TIP3    H2 7281   6.010   4.839   0.686
 2446TIP3   OH2 7282   3.699   3.878   2.454
 2446TIP3    H1 7283   3.687   3.883   2.549
 2446TIP3    H2 7284   3.717   3.968   2.427
 2447TIP3   OH2 7285   4.650   5.343   3.282
 2447TIP3    H1 7286   4.620   5.361   3.193
 2447TIP3    H2 7287   4.728   5.397   3.293
 2448TIP3   OH2 7288   0.859   1.889   4.054
 2448TIP3    H1 7289   0.772   1.923   4.072
 2448TIP3    H2 7290   0.901   1.882   4.140
 2449TIP3   OH2 7291   3.432   7.740   3.536
 2449TIP3    H1 7292   3.492   7.682   3.583
 2449TIP3    H2 7293   3.419   7.697   3.451
 2450TIP3   OH2 7294   1.841   2.080   4.786
 2450TIP3    H1 7295   1.924   2.074   4.832
 2450TIP3    H2 7296   1.865   2.084   4.693
 2451TIP3   OH2 7297   4.270   4.394   6.057
 2451TIP3    H1 7298   4.346   4.338   6.074
 2451TIP3    H2 7299   4.296   4.444   5.979
 2452TIP3   OH2 7300   5.859   2.680   1.864
 2452TIP3    H1 7301   5.907   2.674   1.947
 2452TIP3    H2 7302   5.854   2.590   1.833
 2453TIP3   OH2 7303   3.672   4.817   0.468
 2453TIP3    H1 7304   3.668   4.860   0.383
 2453TIP3    H2 7305   3.711   4.883   0.526
 2454TIP3   OH2 7306   0.417   4.261   1.331
 2454TIP3    H1 7307   0.489   4.269   1.394
 2454TIP3    H2 7308   0.347   4.316   1.366
 2455TIP3   OH2 7309   5.833   5.519   0.464
 2455TIP3    H1 7310   5.866   5.487   0.380
 2455TIP3    H2 7311   5.904   5.503   0.526
 2456TIP3   OH2 7312   1.641   1.836   4.647
 2456TIP3    H1 7313   1.661   1.829   4.553
 2456TIP3    H2 7314   1.725   1.821   4.690
 2457TIP3   OH2 7315   2.611   6.490   5.799
 2457TIP3    H1 7316   2.556   6.567   5.814
 2457TIP3    H2 7317   2.575   6.450   5.721
 2458TIP3   OH2 7318   4.626   5.283   2.720
 2458TIP3    H1 7319   4.705   5.229   2.720
 2458TIP3    H2 7320   4.653   5.365   2.679
 2459TIP3   OH2 7321   7.361   3.677   6.062
 2459TIP3    H1 7322   7.266   3.682   6.076
 2459TIP3    H2 7323   7.373   3.596   6.014
 2460TIP3   OH2 7324   0.439   5.961   0.763
 2460TIP3    H1 7325   0.463   5.975   0.854
 2460TIP3    H2 7326   0.497   6.020   0.714
 2461TIP3   OH2 7327   7.407   1.434   5.652
 2461TIP3    H1 7328   7.465   1.482   5.711
 2461TIP3    H2 7329   7.403   1.488   5.573
 2462TIP3   OH2 7330   8.066   1.951   2.783
 2462TIP3    H1 7331   8.023   1.913   2.706
 2462TIP3    H2 7332   8.018   2.033   2.798
 2463TIP3   OH2 7333   3.694   3.491   3.514
 2463TIP3    H1 7334   3.653   3.421   3.464
 2463TIP3    H2 7335   3.774   3.453   3.549
 2464TIP3   OH2 7336   4.431   4.246   6.745
 2464TIP3    H1 7337   4.473   4.239   6.660
 2464TIP3    H2 7338   4.502   4.273   6.804
 2465TIP3   OH2 7339   6.946   6.702   0.911
 2465TIP3    H1 7340   6.952   6.705   0.816
 2465TIP3    H2 7341   6.956   6.610   0.933
 2466TIP3   OH2 7342   4.934   7.126   3.608
 2466TIP3    H1 7343   4.968   7.110   3.519
 2466TIP3    H2 7344   4.928   7.038   3.646
 2467TIP3   OH2 7345   6.960   2.092   3.379
 2467TIP3    H1 7346   7.052   2.114   3.367
 2467TIP3    H2 7347   6.956   2.043   3.460
 2468TIP3   OH2 7348   0.505   0.959   6.755
 2468TIP3    H1 7349   0.540   0.892   6.814
 2468TIP3    H2 7350   0.525   1.042   6.799
 2469TIP3   OH2 7351   6.427   2.264   2.499
 2469TIP3    H1 7352   6.491   2.286   2.567
 2469TIP3    H2 7353   6.397   2.348   2.465
 2470TIP3   OH2 7354   0.598   3.292   4.938
 2470TIP3    H1 7355   0.651   3.213   4.943
 2470TIP3    H2 7356   0.520   3.273   4.990
 2471TIP3   OH2 7357   6.095   3.216   1.225
 2471TIP3    H1 7358   6.156   3.161   1.175
 2471TIP3    H2 7359   6.149   3.260   1.290
 2472TIP3   OH2 7360   2.910   0.227   4.597
 2472TIP3    H1 7361   2.836   0.166   4.600
 2472TIP3    H2 7362   2.935   0.240   4.689
 2473TIP3   OH2 7363   5.540   7.482   4.827
 2473TIP3    H1 7364   5.538   7.458   4.920
 2473TIP3    H2 7365   5.620   7.442   4.793
 2474TIP3   OH2 7366   8.028   7.348   0.742
 2474TIP3    H1 7367   8.092   7.390   0.800
 2474TIP3    H2 7368   8.080   7.289   0.689
 2475TIP3   OH2 7369   5.056   6.756   1.290
 2475TIP3    H1 7370   5.049   6.730   1.198
 2475TIP3    H2 7371   5.071   6.674   1.337
 2476TIP3   OH2 7372   6.445   5.325   2.528
 2476TIP3    H1 7373   6.414   5.359   2.612
 2476TIP3    H2 7374   6.539   5.342   2.528
 2477TIP3   OH2 7375   6.328   5.941   6.192
 2477TIP3    H1 7376   6.395   6.005   6.215
 2477TIP3    H2 7377   6.245   5.988   6.201
 2478TIP3   OH2 7378   3.302   4.009   5.165
 2478TIP3    H1 7379   3.276   4.099   5.144
 2478TIP3    H2 7380   3.372   3.989   5.102
 2479TIP3   OH2 7381   0.208   1.723   1.986
 2479TIP3    H1 7382   0.253   1.716   1.902
 2479TIP3    H2 7383   0.250   1.797   2.030
 2480TIP3   OH2 7384   1.112   4.834   1.007
 2480TIP3    H1 7385   1.030   4.847   0.958
 2480TIP3    H2 7386   1.125   4.917   1.053
 2481TIP3   OH2 7387   1.726   0.633   4.871
 2481TIP3    H1 7388   1.785   0.638   4.946
 2481TIP3    H2 7389   1.677   0.552   4.885
 2482TIP3   OH2 7390   4.275   0.159   0.349
 2482TIP3    H1 7391   4.316   0.238   0.312
 2482TIP3    H2 7392   4.221   0.125   0.278
 2483TIP3   OH2 7393   4.679   6.289   4.507
 2483TIP3    H1 7394   4.735   6.223   4.467
 2483TIP3    H2 7395   4.665   6.354   4.437
 2484TIP3   OH2 7396   6.516   7.653   0.880
 2484TIP3    H1 7397   6.512   7.558   0.892
 2484TIP3    H2 7398   6.485   7.689   0.963
 2485TIP3   OH2 7399   6.748   5.582   3.474
 2485TIP3    H1 7400   6.797   5.577   3.556
 2485TIP3    H2 7401   6.703   5.498   3.468
 2486TIP3   OH2 7402   7.292   1.840   6.732
 2486TIP3    H1 7403   7.365   1.783   6.707
 2486TIP3    H2 7404   7.319   1.877   6.816
 2487TIP3   OH2 7405   0.715   1.276   4.753
 2487TIP3    H1 7406   0.811   1.274   4.756
 2487TIP3    H2 7407   0.689   1.186   4.733
 2488TIP3   OH2 7408   5.138   3.954   6.669
 2488TIP3    H1 7409   5.166   4.022   6.608
 2488TIP3    H2 7410   5.068   3.908   6.623
 2489TIP3   OH2 7411   3.022   1.363   5.555
 2489TIP3    H1 7412   3.060   1.428   5.495
 2489TIP3    H2 7413   2.991   1.293   5.497
 2490TIP3   OH2 7414   4.844   0.520   3.536
 2490TIP3    H1 7415   4.754   0.530   3.567
 2490TIP3    H2 7416   4.835   0.469   3.455
 2491TIP3   OH2 7417   7.827   4.985   4.828
 2491TIP3    H1 7418   7.756   5.008   4.768
 2491TIP3    H2 7419   7.799   5.021   4.912
 2492TIP3   OH2 7420   5.369   7.394   3.299
 2492TIP3    H1 7421   5.460   7.367   3.285
 2492TIP3    H2 7422   5.347   7.358   3.385
 2493TIP3   OH2 7423   4.504   2.550   3.133
 2493TIP3    H1 7424   4.537   2.517   3.217
 2493TIP3    H2 7425   4.569   2.521   3.069
 2494TIP3   OH2 7426   5.409   0.393   4.142
 2494TIP3    H1 7427   5.383   0.442   4.220
 2494TIP3    H2 7428   5.359   0.311   4.147
 2495TIP3   OH2 7429   2.222   5.371   5.950
 2495TIP3    H1 7430   2.264   5.319   5.881
 2495TIP3    H2 7431   2.155   5.313   5.986
 2496TIP3   OH2 7432   4.663   0.611   5.354
 2496TIP3    H1 7433   4.651   0.692   5.403
 2496TIP3    H2 7434   4.758   0.605   5.339
 2497TIP3   OH2 7435   0.476   1.512   1.838
 2497TIP3    H1 7436   0.504   1.511   1.929
 2497TIP3    H2 7437   0.545   1.466   1.791
 2498TIP3   OH2 7438   7.193   3.545   3.903
 2498TIP3    H1 7439   7.250   3.469   3.896
 2498TIP3    H2 7440   7.229   3.608   3.840
 2499TIP3   OH2 7441   7.961   2.759   0.070
 2499TIP3    H1 7442   7.991   2.848   0.086
 2499TIP3    H2 7443   7.927   2.729   0.154
 2500TIP3   OH2 7444   3.804   7.091   6.518
 2500TIP3    H1 7445   3.793   7.078   6.424
 2500TIP3    H2 7446   3.776   7.009   6.557
 2501TIP3   OH2 7447   4.286   0.309   3.650
 2501TIP3    H1 7448   4.333   0.246   3.594
 2501TIP3    H2 7449   4.318   0.395   3.622
 2502TIP3   OH2 7450   7.961   2.615   0.650
 2502TIP3    H1 7451   7.907   2.536   0.647
 2502TIP3    H2 7452   8.034   2.592   0.707
 2503TIP3   OH2 7453   2.061   4.861   1.603
 2503TIP3    H1 7454   2.032   4.792   1.542
 2503TIP3    H2 7455   1.993   4.928   1.595
 2504TIP3   OH2 7456   5.545   1.436   2.209
 2504TIP3    H1 7457   5.450   1.450   2.210
 2504TIP3    H2 7458   5.579   1.497   2.274
 2505TIP3   OH2 7459   2.031   4.708   4.821
 2505TIP3    H1 7460   2.060   4.643   4.885
 2505TIP3    H2 7461   1.941   4.728   4.847
 2506TIP3   OH2 7462   7.167   3.641   2.897
 2506TIP3    H1 7463   7.196   3.665   2.985
 2506TIP3    H2 7464   7.226   3.689   2.839
 2507TIP3   OH2 7465   3.965   1.904   0.640
 2507TIP3    H1 7466   4.006   1.948   0.566
 2507TIP3    H2 7467   3.910   1.836   0.599
 2508TIP3   OH2 7468   1.607   6.216   0.727
 2508TIP3    H1 7469   1.574   6.168   0.803
 2508TIP3    H2 7470   1.635   6.300   0.762
 2509TIP3   OH2 7471   5.781   3.397   6.030
 2509TIP3    H1 7472   5.752   3.428   5.945
 2509TIP3    H2 7473   5.739   3.456   6.093
 2510TIP3   OH2 7474   5.989   1.582   5.613
 2510TIP3    H1 7475   6.074   1.545   5.637
 2510TIP3    H2 7476   6.007   1.674   5.595
 2511TIP3   OH2 7477   8.138   7.159   0.079
 2511TIP3    H1 7478   8.067   7.099   0.104
 2511TIP3    H2 7479   8.147   7.147  -0.015
 2512TIP3   OH2 7480   7.175   3.112   2.789
 2512TIP3    H1 7481   7.109   3.079   2.851
 2512TIP3    H2 7482   7.249   3.052   2.799
 2513TIP3   OH2 7483   4.923   5.445   2.819
 2513TIP3    H1 7484   4.924   5.365   2.766
 2513TIP3    H2 7485   4.963   5.419   2.902
 2514TIP3   OH2 7486   7.395   7.723   0.327
 2514TIP3    H1 7487   7.333   7.652   0.310
 2514TIP3    H2 7488   7.412   7.760   0.241
 2515TIP3   OH2 7489   5.318   3.079   6.061
 2515TIP3    H1 7490   5.284   3.144   6.000
 2515TIP3    H2 7491   5.400   3.117   6.095
 2516TIP3   OH2 7492   2.131   0.887   1.140
 2516TIP3    H1 7493   2.085   0.904   1.222
 2516TIP3    H2 7494   2.156   0.795   1.146
 2517TIP3   OH2 7495   0.346   0.846   2.843
 2517TIP3    H1 7496   0.293   0.858   2.921
 2517TIP3    H2 7497   0.283   0.828   2.773
 2518TIP3   OH2 7498   0.970   2.051   6.499
 2518TIP3    H1 7499   0.985   2.138   6.461
 2518TIP3    H2 7500   0.890   2.061   6.550
 2519TIP3   OH2 7501   2.686   1.355   4.225
 2519TIP3    H1 7502   2.611   1.366   4.167
 2519TIP3    H2 7503   2.654   1.301   4.297
 2520TIP3   OH2 7504   5.230   5.685   1.768
 2520TIP3    H1 7505   5.140   5.656   1.785
 2520TIP3    H2 7506   5.232   5.702   1.674
 2521TIP3   OH2 7507   7.834   1.319   2.036
 2521TIP3    H1 7508   7.846   1.313   2.131
 2521TIP3    H2 7509   7.819   1.412   2.019
 2522TIP3   OH2 7510   0.245   2.861   4.538
 2522TIP3    H1 7511   0.266   2.822   4.453
 2522TIP3    H2 7512   0.214   2.950   4.517
 2523TIP3   OH2 7513   5.827   3.955   1.116
 2523TIP3    H1 7514   5.866   3.941   1.202
 2523TIP3    H2 7515   5.732   3.954   1.132
 2524TIP3   OH2 7516   7.441   4.420   6.662
 2524TIP3    H1 7517   7.365   4.478   6.653
 2524TIP3    H2 7518   7.506   4.473   6.708
 2525TIP3   OH2 7519   0.550   6.102   4.961
 2525TIP3    H1 7520   0.468   6.099   4.912
 2525TIP3    H2 7521   0.559   6.194   4.986
 2526TIP3   OH2 7522   3.250   2.683   6.245
 2526TIP3    H1 7523   3.196   2.617   6.200
 2526TIP3    H2 7524   3.337   2.645   6.247
 2527TIP3   OH2 7525   0.886   5.261   6.675
 2527TIP3    H1 7526   0.960   5.273   6.735
 2527TIP3    H2 7527   0.879   5.166   6.665
 2528TIP3   OH2 7528   6.024   7.090   2.162
 2528TIP3    H1 7529   6.015   6.995   2.166
 2528TIP3    H2 7530   6.046   7.115   2.251
 2529TIP3   OH2 7531   6.969   1.738   1.461
 2529TIP3    H1 7532   6.876   1.724   1.445
 2529TIP3    H2 7533   6.997   1.658   1.507
 2530TIP3   OH2 7534   4.696   5.173   4.319
 2530TIP3    H1 7535   4.786   5.159   4.288
 2530TIP3    H2 7536   4.687   5.268   4.325
 2531TIP3   OH2 7537   6.080   4.485   3.383
 2531TIP3    H1 7538   6.105   4.414   3.324
 2531TIP3    H2 7539   6.126   4.465   3.465
 2532TIP3   OH2 7540   4.144   1.771   5.736
 2532TIP3    H1 7541   4.146   1.823   5.817
 2532TIP3    H2 7542   4.141   1.680   5.766
 2533TIP3   OH2 7543   7.773   7.776   5.569
 2533TIP3    H1 7544   7.808   7.712   5.506
 2533TIP3    H2 7545   7.681   7.786   5.544
 2534TIP3   OH2 7546   4.246   2.309   5.881
 2534TIP3    H1 7547   4.181   2.261   5.830
 2534TIP3    H2 7548   4.319   2.321   5.821
 2535TIP3   OH2 7549   6.238   2.750   0.663
 2535TIP3    H1 7550   6.157   2.758   0.613
 2535TIP3    H2 7551   6.301   2.804   0.615
 2536TIP3   OH2 7552   4.504   1.034   4.819
 2536TIP3    H1 7553   4.482   1.077   4.736
 2536TIP3    H2 7554   4.596   1.056   4.834
 2537TIP3   OH2 7555   0.631   3.447   4.567
 2537TIP3    H1 7556   0.552   3.463   4.618
 2537TIP3    H2 7557   0.702   3.484   4.620
 2538TIP3   OH2 7558   7.862   5.166   3.614
 2538TIP3    H1 7559   7.954   5.150   3.635
 2538TIP3    H2 7560   7.820   5.183   3.698
 2539TIP3   OH2 7561   7.218   0.623   3.803
 2539TIP3    H1 7562   7.148   0.646   3.864
 2539TIP3    H2 7563   7.285   0.582   3.859
 2540TIP3   OH2 7564   6.986   4.712   1.153
 2540TIP3    H1 7565   6.936   4.673   1.081
 2540TIP3    H2 7566   6.919   4.746   1.213
 2541TIP3   OH2 7567   3.023   5.275   2.537
 2541TIP3    H1 7568   2.953   5.219   2.504
 2541TIP3    H2 7569   3.100   5.218   2.541
 2542TIP3   OH2 7570   2.963   0.317   5.396
 2542TIP3    H1 7571   2.886   0.331   5.341
 2542TIP3    H2 7572   3.010   0.401   5.393
 2543TIP3   OH2 7573   1.192   6.791   2.573
 2543TIP3    H1 7574   1.125   6.860   2.576
 2543TIP3    H2 7575   1.265   6.826   2.623
 2544TIP3   OH2 7576   4.617   3.740   0.549
 2544TIP3    H1 7577   4.698   3.775   0.586
 2544TIP3    H2 7578   4.642   3.658   0.508
 2545TIP3   OH2 7579   2.520   3.896   6.440
 2545TIP3    H1 7580   2.580   3.836   6.394
 2545TIP3    H2 7581   2.435   3.882   6.398
 2546TIP3   OH2 7582   0.938   5.817   3.820
 2546TIP3    H1 7583   0.986   5.735   3.834
 2546TIP3    H2 7584   0.886   5.801   3.741
 2547TIP3   OH2 7585   4.603   6.331   3.442
 2547TIP3    H1 7586   4.614   6.249   3.490
 2547TIP3    H2 7587   4.639   6.312   3.355
 2548TIP3   OH2 7588   6.634   0.784   4.723
 2548TIP3    H1 7589   6.672   0.701   4.695
 2548TIP3    H2 7590   6.693   0.851   4.688
 2549TIP3   OH2 7591   2.590   0.754   1.406
 2549TIP3    H1 7592   2.658   0.819   1.391
 2549TIP3    H2 7593   2.511   0.793   1.369
 2550TIP3   OH2 7594   5.755   1.148   0.281
 2550TIP3    H1 7595   5.786   1.082   0.220
 2550TIP3    H2 7596   5.821   1.150   0.350
 2551TIP3   OH2 7597   0.039   5.802   0.945
 2551TIP3    H1 7598  -0.044   5.848   0.935
 2551TIP3    H2 7599   0.027   5.748   1.023
 2552TIP3   OH2 7600   0.880   4.472   0.695
 2552TIP3    H1 7601   0.892   4.419   0.774
 2552TIP3    H2 7602   0.857   4.408   0.627
 2553TIP3   OH2 7603   5.657   1.992   1.178
 2553TIP3    H1 7604   5.656   2.053   1.252
 2553TIP3    H2 7605   5.600   2.032   1.113
 2554TIP3   OH2 7606   6.298   1.399   1.170
 2554TIP3    H1 7607   6.243   1.475   1.152
 2554TIP3    H2 7608   6.238   1.324   1.164
 2555TIP3   OH2 7609   0.283   2.699   0.786
 2555TIP3    H1 7610   0.301   2.646   0.708
 2555TIP3    H2 7611   0.227   2.644   0.840
 2556TIP3   OH2 7612   4.920   6.854   4.956
 2556TIP3    H1 7613   4.915   6.849   5.051
 2556TIP3    H2 7614   4.829   6.850   4.926
 2557TIP3   OH2 7615   4.713   6.673   1.885
 2557TIP3    H1 7616   4.757   6.635   1.809
 2557TIP3    H2 7617   4.778   6.730   1.924
 2558TIP3   OH2 7618   5.976   6.464   1.676
 2558TIP3    H1 7619   6.053   6.430   1.631
 2558TIP3    H2 7620   5.966   6.553   1.643
 2559TIP3   OH2 7621   5.388   3.326   0.590
 2559TIP3    H1 7622   5.297   3.315   0.616
 2559TIP3    H2 7623   5.437   3.332   0.672
 2560TIP3   OH2 7624   1.342   4.106   2.607
 2560TIP3    H1 7625   1.405   4.177   2.600
 2560TIP3    H2 7626   1.259   4.145   2.579
 2561TIP3   OH2 7627   4.340   6.869   0.454
 2561TIP3    H1 7628   4.284   6.816   0.512
 2561TIP3    H2 7629   4.398   6.916   0.513
 2562TIP3   OH2 7630   6.460   0.801   2.301
 2562TIP3    H1 7631   6.425   0.886   2.277
 2562TIP3    H2 7632   6.402   0.769   2.370
 2563TIP3   OH2 7633   8.115   5.871   4.699
 2563TIP3    H1 7634   8.077   5.812   4.634
 2563TIP3    H2 7635   8.039   5.916   4.738
 2564TIP3   OH2 7636   3.988   7.332   5.964
 2564TIP3    H1 7637   3.911   7.291   5.925
 2564TIP3    H2 7638   4.063   7.294   5.918
 2565TIP3   OH2 7639   4.580   7.821   2.559
 2565TIP3    H1 7640   4.659   7.787   2.601
 2565TIP3    H2 7641   4.515   7.753   2.571
 2566TIP3   OH2 7642   2.123   5.254   1.818
 2566TIP3    H1 7643   2.127   5.227   1.726
 2566TIP3    H2 7644   2.164   5.340   1.820
 2567TIP3   OH2 7645   2.577   1.622   5.247
 2567TIP3    H1 7646   2.521   1.676   5.191
 2567TIP3    H2 7647   2.666   1.648   5.224
 2568TIP3   OH2 7648   2.457   6.191   6.202
 2568TIP3    H1 7649   2.376   6.230   6.169
 2568TIP3    H2 7650   2.507   6.265   6.238
 2569TIP3   OH2 7651   4.597   7.230   2.159
 2569TIP3    H1 7652   4.594   7.195   2.070
 2569TIP3    H2 7653   4.657   7.304   2.153
 2570TIP3   OH2 7654   6.684   3.763   3.636
 2570TIP3    H1 7655   6.752   3.726   3.693
 2570TIP3    H2 7656   6.727   3.836   3.591
 2571TIP3   OH2 7657   0.760   6.817   3.656
 2571TIP3    H1 7658   0.671   6.852   3.659
 2571TIP3    H2 7659   0.750   6.730   3.619
 2572TIP3   OH2 7660   6.779   1.669   2.760
 2572TIP3    H1 7661   6.776   1.629   2.673
 2572TIP3    H2 7662   6.812   1.757   2.744
 2573TIP3   OH2 7663   8.074   2.702   4.234
 2573TIP3    H1 7664   8.069   2.672   4.325
 2573TIP3    H2 7665   8.120   2.785   4.238
 2574TIP3   OH2 7666   6.407   3.990   0.605
 2574TIP3    H1 7667   6.447   3.914   0.647
 2574TIP3    H2 7668   6.442   3.989   0.516
 2575TIP3   OH2 7669   5.931   0.273   3.721
 2575TIP3    H1 7670   5.893   0.357   3.695
 2575TIP3    H2 7671   5.922   0.217   3.643
 2576TIP3   OH2 7672   7.721   7.611   5.813
 2576TIP3    H1 7673   7.666   7.628   5.890
 2576TIP3    H2 7674   7.735   7.697   5.774
 2577TIP3   OH2 7675   7.992   1.515   4.278
 2577TIP3    H1 7676   7.960   1.446   4.220
 2577TIP3    H2 7677   7.932   1.589   4.262
 2578TIP3   OH2 7678   2.259   3.858   2.442
 2578TIP3    H1 7679   2.349   3.881   2.420
 2578TIP3    H2 7680   2.241   3.905   2.524
 2579TIP3   OH2 7681   3.228   0.426   4.529
 2579TIP3    H1 7682   3.216   0.521   4.526
 2579TIP3    H2 7683   3.204   0.402   4.619
 2580TIP3   OH2 7684   5.916   3.087   4.460
 2580TIP3    H1 7685   5.820   3.080   4.467
 2580TIP3    H2 7686   5.939   3.026   4.389
 2581TIP3   OH2 7687   5.929   0.951   0.136
 2581TIP3    H1 7688   5.956   0.873   0.088
 2581TIP3    H2 7689   6.002   1.012   0.127
 2582TIP3   OH2 7690   0.339   4.696   0.812
 2582TIP3    H1 7691   0.423   4.730   0.781
 2582TIP3    H2 7692   0.324   4.617   0.759
 2583TIP3   OH2 7693   4.479   4.211   6.106
 2583TIP3    H1 7694   4.523   4.182   6.026
 2583TIP3    H2 7695   4.484   4.136   6.165
 2584TIP3   OH2 7696   5.185   3.779   6.005
 2584TIP3    H1 7697   5.160   3.863   5.965
 2584TIP3    H2 7698   5.281   3.778   6.001
 2585TIP3   OH2 7699   1.739   0.203   3.798
 2585TIP3    H1 7700   1.699   0.274   3.748
 2585TIP3    H2 7701   1.711   0.123   3.753
 2586TIP3   OH2 7702   1.054   3.574   0.518
 2586TIP3    H1 7703   1.021   3.519   0.447
 2586TIP3    H2 7704   1.105   3.515   0.573
 2587TIP3   OH2 7705   3.490   3.069   0.760
 2587TIP3    H1 7706   3.429   3.003   0.726
 2587TIP3    H2 7707   3.528   3.029   0.838
 2588TIP3   OH2 7708   4.349   2.628   1.154
 2588TIP3    H1 7709   4.281   2.572   1.193
 2588TIP3    H2 7710   4.332   2.715   1.190
 2589TIP3   OH2 7711   4.723   2.692   1.305
 2589TIP3    H1 7712   4.749   2.782   1.285
 2589TIP3    H2 7713   4.656   2.672   1.239
 2590TIP3   OH2 7714   0.666   5.890   0.011
 2590TIP3    H1 7715   0.685   5.796   0.010
 2590TIP3    H2 7716   0.713   5.923   0.088
 2591TIP3   OH2 7717   6.674   3.896   5.954
 2591TIP3    H1 7718   6.586   3.888   5.990
 2591TIP3    H2 7719   6.660   3.909   5.860
 2592TIP3   OH2 7720   3.808   1.567   0.811
 2592TIP3    H1 7721   3.805   1.569   0.907
 2592TIP3    H2 7722   3.874   1.632   0.788
 2593TIP3   OH2 7723   2.865   3.208   6.200
 2593TIP3    H1 7724   2.792   3.151   6.226
 2593TIP3    H2 7725   2.886   3.258   6.280
 2594TIP3   OH2 7726   2.095   5.889   1.480
 2594TIP3    H1 7727   2.061   5.925   1.398
 2594TIP3    H2 7728   2.055   5.943   1.548
 2595TIP3   OH2 7729   1.667   0.899   4.751
 2595TIP3    H1 7730   1.721   0.965   4.707
 2595TIP3    H2 7731   1.724   0.861   4.817
 2596TIP3   OH2 7732   6.605   3.269   4.941
 2596TIP3    H1 7733   6.638   3.344   4.989
 2596TIP3    H2 7734   6.599   3.199   5.006
 2597TIP3   OH2 7735   5.562   5.476   0.458
 2597TIP3    H1 7736   5.541   5.567   0.437
 2597TIP3    H2 7737   5.658   5.474   0.461
 2598TIP3   OH2 7738   1.390   1.534   2.011
 2598TIP3    H1 7739   1.312   1.482   1.991
 2598TIP3    H2 7740   1.455   1.469   2.037
 2599TIP3   OH2 7741   1.746   1.059   3.477
 2599TIP3    H1 7742   1.690   1.059   3.555
 2599TIP3    H2 7743   1.784   0.971   3.476
 2600TIP3   OH2 7744   4.492   7.374   0.872
 2600TIP3    H1 7745   4.433   7.438   0.912
 2600TIP3    H2 7746   4.451   7.354   0.787
 2601TIP3   OH2 7747   1.763   6.170   1.163
 2601TIP3    H1 7748   1.712   6.151   1.084
 2601TIP3    H2 7749   1.852   6.184   1.131
 2602TIP3   OH2 7750   3.489   5.244   5.425
 2602TIP3    H1 7751   3.583   5.232   5.409
 2602TIP3    H2 7752   3.484   5.317   5.487
 2603TIP3   OH2 7753   8.278   1.415   1.004
 2603TIP3    H1 7754   8.266   1.502   1.041
 2603TIP3    H2 7755   8.189   1.386   0.983
 2604TIP3   OH2 7756   0.426   5.210   4.334
 2604TIP3    H1 7757   0.354   5.267   4.359
 2604TIP3    H2 7758   0.457   5.245   4.251
 2605TIP3   OH2 7759   7.953   2.694   0.390
 2605TIP3    H1 7760   7.995   2.779   0.402
 2605TIP3    H2 7761   7.942   2.660   0.479
 2606TIP3   OH2 7762   3.178   4.337   2.117
 2606TIP3    H1 7763   3.172   4.432   2.104
 2606TIP3    H2 7764   3.248   4.326   2.181
 2607TIP3   OH2 7765   1.584   0.397   2.792
 2607TIP3    H1 7766   1.674   0.375   2.814
 2607TIP3    H2 7767   1.531   0.352   2.858
 2608TIP3   OH2 7768   5.231   6.191   3.703
 2608TIP3    H1 7769   5.209   6.278   3.669
 2608TIP3    H2 7770   5.326   6.191   3.711
 2609TIP3   OH2 7771   6.232   5.804   4.661
 2609TIP3    H1 7772   6.304   5.865   4.680
 2609TIP3    H2 7773   6.194   5.838   4.580
 2610TIP3   OH2 7774   6.257   5.816   2.278
 2610TIP3    H1 7775   6.254   5.866   2.196
 2610TIP3    H2 7776   6.308   5.738   2.256
 2611TIP3   OH2 7777   8.214   0.335   4.776
 2611TIP3    H1 7778   8.244   0.244   4.768
 2611TIP3    H2 7779   8.128   0.335   4.734
 2612TIP3   OH2 7780   4.982   5.802   0.012
 2612TIP3    H1 7781   4.889   5.822   0.002
 2612TIP3    H2 7782   5.028   5.882  -0.013
 2613TIP3   OH2 7783   4.909   7.540   1.381
 2613TIP3    H1 7784   4.886   7.560   1.290
 2613TIP3    H2 7785   5.004   7.532   1.380
 2614TIP3   OH2 7786   3.943   0.629   6.159
 2614TIP3    H1 7787   3.956   0.629   6.064
 2614TIP3    H2 7788   3.848   0.621   6.170
 2615TIP3   OH2 7789   6.579   4.733   3.037
 2615TIP3    H1 7790   6.565   4.794   3.110
 2615TIP3    H2 7791   6.670   4.749   3.011
 2616TIP3   OH2 7792   5.672   3.836   3.969
 2616TIP3    H1 7793   5.737   3.905   3.980
 2616TIP3    H2 7794   5.654   3.805   4.057
 2617TIP3   OH2 7795   3.890   5.154   5.072
 2617TIP3    H1 7796   3.968   5.115   5.111
 2617TIP3    H2 7797   3.890   5.245   5.103
 2618TIP3   OH2 7798   3.650   6.285   3.839
 2618TIP3    H1 7799   3.635   6.367   3.792
 2618TIP3    H2 7800   3.644   6.309   3.931
 2619TIP3   OH2 7801   5.798   4.615   5.689
 2619TIP3    H1 7802   5.819   4.678   5.620
 2619TIP3    H2 7803   5.757   4.667   5.758
 2620TIP3   OH2 7804   7.722   2.786   3.124
 2620TIP3    H1 7805   7.628   2.769   3.124
 2620TIP3    H2 7806   7.755   2.738   3.200
 2621TIP3   OH2 7807   3.181   4.992   1.136
 2621TIP3    H1 7808   3.116   5.061   1.128
 2621TIP3    H2 7809   3.202   4.989   1.230
 2622TIP3   OH2 7810   4.016   2.252   5.585
 2622TIP3    H1 7811   4.000   2.254   5.491
 2622TIP3    H2 7812   4.073   2.177   5.598
 2623TIP3   OH2 7813   1.131   6.601   3.837
 2623TIP3    H1 7814   1.227   6.605   3.842
 2623TIP3    H2 7815   1.110   6.508   3.845
 2624TIP3   OH2 7816   7.819   0.497   4.978
 2624TIP3    H1 7817   7.888   0.498   5.044
 2624TIP3    H2 7818   7.866   0.483   4.895
 2625TIP3   OH2 7819   4.403   6.074   4.417
 2625TIP3    H1 7820   4.446   5.998   4.378
 2625TIP3    H2 7821   4.384   6.132   4.343
 2626TIP3   OH2 7822   1.807   1.153   5.273
 2626TIP3    H1 7823   1.794   1.066   5.311
 2626TIP3    H2 7824   1.864   1.139   5.198
 2627TIP3   OH2 7825   4.979   1.472   1.801
 2627TIP3    H1 7826   4.993   1.393   1.853
 2627TIP3    H2 7827   4.901   1.513   1.839
 2628TIP3   OH2 7828   5.425   5.876   1.846
 2628TIP3    H1 7829   5.354   5.828   1.802
 2628TIP3    H2 7830   5.384   5.957   1.875
 2629TIP3   OH2 7831   4.030   4.501   2.812
 2629TIP3    H1 7832   4.054   4.408   2.819
 2629TIP3    H2 7833   3.971   4.516   2.886
 2630TIP3   OH2 7834   6.053   0.139   6.637
 2630TIP3    H1 7835   6.145   0.148   6.662
 2630TIP3    H2 7836   6.004   0.170   6.713
 2631TIP3   OH2 7837   3.733   7.397   0.510
 2631TIP3    H1 7838   3.776   7.480   0.531
 2631TIP3    H2 7839   3.697   7.410   0.423
 2632TIP3   OH2 7840   8.259   7.023   6.689
 2632TIP3    H1 7841   8.348   6.988   6.693
 2632TIP3    H2 7842   8.212   6.962   6.632
 2633TIP3   OH2 7843   5.700   2.320   0.747
 2633TIP3    H1 7844   5.702   2.350   0.656
 2633TIP3    H2 7845   5.790   2.331   0.777
 2634TIP3   OH2 7846   1.412   3.976   0.162
 2634TIP3    H1 7847   1.427   3.898   0.110
 2634TIP3    H2 7848   1.316   3.985   0.165
 2635TIP3   OH2 7849   1.826   2.839   3.061
 2635TIP3    H1 7850   1.800   2.775   2.995
 2635TIP3    H2 7851   1.747   2.854   3.113
 2636TIP3   OH2 7852   1.549   4.225   3.607
 2636TIP3    H1 7853   1.461   4.263   3.612
 2636TIP3    H2 7854   1.540   4.137   3.642
 2637TIP3   OH2 7855   3.666   5.816   2.609
 2637TIP3    H1 7856   3.587   5.820   2.664
 2637TIP3    H2 7857   3.737   5.842   2.667
 2638TIP3   OH2 7858   6.710   1.977   2.581
 2638TIP3    H1 7859   6.800   1.965   2.551
 2638TIP3    H2 7860   6.695   2.071   2.574
 2639TIP3   OH2 7861   5.846   4.054   4.054
 2639TIP3    H1 7862   5.845   4.035   4.148
 2639TIP3    H2 7863   5.937   4.076   4.034
 2640TIP3   OH2 7864   2.182   7.073   3.404
 2640TIP3    H1 7865   2.158   7.138   3.339
 2640TIP3    H2 7866   2.107   7.072   3.465
 2641TIP3   OH2 7867   0.507   0.910   3.764
 2641TIP3    H1 7868   0.496   0.855   3.687
 2641TIP3    H2 7869   0.575   0.867   3.815
 2642TIP3   OH2 7870   4.002   4.748   3.258
 2642TIP3    H1 7871   4.011   4.761   3.352
 2642TIP3    H2 7872   3.939   4.815   3.231
 2643TIP3   OH2 7873   1.348   5.121   2.016
 2643TIP3    H1 7874   1.420   5.180   2.036
 2643TIP3    H2 7875   1.311   5.097   2.101
 2644TIP3   OH2 7876   3.748   1.146   1.031
 2644TIP3    H1 7877   3.748   1.105   1.117
 2644TIP3    H2 7878   3.678   1.101   0.983
 2645TIP3   OH2 7879   3.271   0.982   2.992
 2645TIP3    H1 7880   3.221   1.021   3.063
 2645TIP3    H2 7881   3.361   0.980   3.023
 2646TIP3   OH2 7882   4.846   5.411   1.103
 2646TIP3    H1 7883   4.875   5.322   1.081
 2646TIP3    H2 7884   4.901   5.468   1.049
 2647TIP3   OH2 7885   5.984   3.040   0.341
 2647TIP3    H1 7886   5.911   3.088   0.302
 2647TIP3    H2 7887   6.060   3.064   0.288
 2648TIP3   OH2 7888   3.383   2.905   3.210
 2648TIP3    H1 7889   3.304   2.957   3.221
 2648TIP3    H2 7890   3.366   2.825   3.261
 2649TIP3   OH2 7891   7.242   5.531   0.521
 2649TIP3    H1 7892   7.198   5.527   0.606
 2649TIP3    H2 7893   7.199   5.464   0.469
 2650TIP3   OH2 7894   4.513   7.085   4.712
 2650TIP3    H1 7895   4.539   7.141   4.638
 2650TIP3    H2 7896   4.493   7.146   4.783
 2651TIP3   OH2 7897   0.548   2.928   3.472
 2651TIP3    H1 7898   0.509   2.842   3.484
 2651TIP3    H2 7899   0.602   2.943   3.550
 2652TIP3   OH2 7900   4.512   6.575   2.477
 2652TIP3    H1 7901   4.442   6.529   2.523
 2652TIP3    H2 7902   4.531   6.521   2.401
 2653TIP3   OH2 7903   2.210   5.266   6.765
 2653TIP3    H1 7904   2.215   5.173   6.742
 2653TIP3    H2 7905   2.268   5.309   6.702
 2654TIP3   OH2 7906   5.067   5.969   1.463
 2654TIP3    H1 7907   5.074   6.019   1.382
 2654TIP3    H2 7908   5.025   5.887   1.437
 2655TIP3   OH2 7909   5.025   6.185   4.247
 2655TIP3    H1 7910   4.937   6.172   4.281
 2655TIP3    H2 7911   5.062   6.097   4.241
 2656TIP3   OH2 7912   2.354   0.872   6.116
 2656TIP3    H1 7913   2.388   0.794   6.072
 2656TIP3    H2 7914   2.265   0.848   6.142
 2657TIP3   OH2 7915   1.667   2.353   2.964
 2657TIP3    H1 7916   1.613   2.418   3.009
 2657TIP3    H2 7917   1.728   2.323   3.031
 2658TIP3   OH2 7918   4.603   1.828   4.853
 2658TIP3    H1 7919   4.691   1.817   4.889
 2658TIP3    H2 7920   4.605   1.915   4.812
 2659TIP3   OH2 7921   6.182   2.647   6.408
 2659TIP3    H1 7922   6.162   2.593   6.484
 2659TIP3    H2 7923   6.239   2.593   6.353
 2660TIP3   OH2 7924   6.346   3.313   1.337
 2660TIP3    H1 7925   6.383   3.244   1.392
 2660TIP3    H2 7926   6.417   3.338   1.278
 2661TIP3   OH2 7927   0.873   4.897   0.913
 2661TIP3    H1 7928   0.840   4.815   0.876
 2661TIP3    H2 7929   0.831   4.966   0.861
 2662TIP3   OH2 7930   6.113   5.996   1.156
 2662TIP3    H1 7931   6.165   6.076   1.161
 2662TIP3    H2 7932   6.025   6.026   1.134
 2663TIP3   OH2 7933   1.972   6.696   4.396
 2663TIP3    H1 7934   1.886   6.679   4.434
 2663TIP3    H2 7935   1.957   6.766   4.332
 2664TIP3   OH2 7936   3.679   4.083   5.181
 2664TIP3    H1 7937   3.665   4.110   5.272
 2664TIP3    H2 7938   3.671   3.988   5.182
 2665TIP3   OH2 7939   0.349   6.791   2.700
 2665TIP3    H1 7940   0.381   6.722   2.759
 2665TIP3    H2 7941   0.429   6.828   2.661
 2666TIP3   OH2 7942   1.665   6.354   1.696
 2666TIP3    H1 7943   1.599   6.406   1.742
 2666TIP3    H2 7944   1.615   6.302   1.634
 2667TIP3   OH2 7945   7.329   6.088   3.561
 2667TIP3    H1 7946   7.355   6.103   3.470
 2667TIP3    H2 7947   7.320   5.993   3.568
 2668TIP3   OH2 7948   5.183   2.647   2.895
 2668TIP3    H1 7949   5.138   2.570   2.861
 2668TIP3    H2 7950   5.212   2.621   2.982
 2669TIP3   OH2 7951   4.737   6.761   0.442
 2669TIP3    H1 7952   4.654   6.728   0.476
 2669TIP3    H2 7953   4.785   6.791   0.520
 2670TIP3   OH2 7954   2.876   3.670   6.306
 2670TIP3    H1 7955   2.800   3.618   6.331
 2670TIP3    H2 7956   2.950   3.624   6.345
 2671TIP3   OH2 7957   0.870   3.718   4.565
 2671TIP3    H1 7958   0.894   3.634   4.525
 2671TIP3    H2 7959   0.953   3.762   4.580
 2672TIP3   OH2 7960   3.176   4.326   4.142
 2672TIP3    H1 7961   3.162   4.232   4.132
 2672TIP3    H2 7962   3.117   4.366   4.078
 2673TIP3   OH2 7963   8.204   0.457   1.443
 2673TIP3    H1 7964   8.192   0.365   1.418
 2673TIP3    H2 7965   8.286   0.482   1.401
 2674TIP3   OH2 7966   3.942   4.144   2.958
 2674TIP3    H1 7967   4.005   4.213   2.938
 2674TIP3    H2 7968   3.857   4.189   2.961
 2675TIP3   OH2 7969   0.881   3.129   6.475
 2675TIP3    H1 7970   0.935   3.133   6.397
 2675TIP3    H2 7971   0.860   3.220   6.495
 2676TIP3   OH2 7972   3.213   2.459   5.858
 2676TIP3    H1 7973   3.247   2.393   5.919
 2676TIP3    H2 7974   3.287   2.478   5.800
 2677TIP3   OH2 7975   5.102   7.036   6.634
 2677TIP3    H1 7976   5.030   7.042   6.572
 2677TIP3    H2 7977   5.180   7.025   6.580
 2678TIP3   OH2 7978   4.372   2.350   6.562
 2678TIP3    H1 7979   4.361   2.301   6.644
 2678TIP3    H2 7980   4.465   2.375   6.563
 2679TIP3   OH2 7981   4.768   4.212   0.961
 2679TIP3    H1 7982   4.851   4.253   0.937
 2679TIP3    H2 7983   4.702   4.276   0.934
 2680TIP3   OH2 7984   7.929   4.026   6.600
 2680TIP3    H1 7985   8.006   4.082   6.605
 2680TIP3    H2 7986   7.962   3.938   6.621
 2681TIP3   OH2 7987   1.854   3.814   6.375
 2681TIP3    H1 7988   1.876   3.866   6.453
 2681TIP3    H2 7989   1.805   3.739   6.410
 2682TIP3   OH2 7990   1.166   0.019   4.347
 2682TIP3    H1 7991   1.173  -0.070   4.313
 2682TIP3    H2 7992   1.172   0.076   4.270
 2683TIP3   OH2 7993   3.740   5.173   4.360
 2683TIP3    H1 7994   3.828   5.149   4.390
 2683TIP3    H2 7995   3.698   5.211   4.437
 2684TIP3   OH2 7996   6.260   1.215   5.557
 2684TIP3    H1 7997   6.333   1.193   5.498
 2684TIP3    H2 7998   6.303   1.240   5.639
 2685TIP3   OH2 7999   7.318   3.479   5.177
 2685TIP3    H1 8000   7.343   3.572   5.176
 2685TIP3    H2 8001   7.397   3.434   5.207
 2686TIP3   OH2 8002   4.408   2.346   1.461
 2686TIP3    H1 8003   4.502   2.324   1.463
 2686TIP3    H2 8004   4.364   2.261   1.455
 2687TIP3   OH2 8005   5.823   0.461   5.688
 2687TIP3    H1 8006   5.814   0.386   5.747
 2687TIP3    H2 8007   5.822   0.537   5.746
 2688TIP3   OH2 8008   5.873   2.420   6.275
 2688TIP3    H1 8009   5.778   2.422   6.267
 2688TIP3    H2 8010   5.904   2.399   6.187
 2689TIP3   OH2 8011   6.808   3.618   1.204
 2689TIP3    H1 8012   6.730   3.672   1.214
 2689TIP3    H2 8013   6.878   3.681   1.186
 2690TIP3   OH2 8014   7.566   4.063   5.704
 2690TIP3    H1 8015   7.658   4.090   5.704
 2690TIP3    H2 8016   7.563   3.988   5.764
 2691TIP3   OH2 8017   7.770   4.204   2.449
 2691TIP3    H1 8018   7.736   4.270   2.508
 2691TIP3    H2 8019   7.696   4.183   2.391
 2692TIP3   OH2 8020   4.232   6.164   5.167
 2692TIP3    H1 8021   4.284   6.243   5.155
 2692TIP3    H2 8022   4.147   6.195   5.199
 2693TIP3   OH2 8023   6.353   2.962   0.530
 2693TIP3    H1 8024   6.407   3.020   0.585
 2693TIP3    H2 8025   6.280   3.017   0.502
 2694TIP3   OH2 8026   7.933   5.135   6.747
 2694TIP3    H1 8027   8.023   5.102   6.749
 2694TIP3    H2 8028   7.942   5.229   6.764
 2695TIP3   OH2 8029   3.975   0.111   1.052
 2695TIP3    H1 8030   3.993   0.204   1.037
 2695TIP3    H2 8031   4.000   0.096   1.143
 2696TIP3   OH2 8032   3.765   3.254   5.533
 2696TIP3    H1 8033   3.838   3.276   5.590
 2696TIP3    H2 8034   3.802   3.193   5.468
 2697TIP3   OH2 8035   4.083   3.821   4.604
 2697TIP3    H1 8036   4.027   3.771   4.544
 2697TIP3    H2 8037   4.170   3.782   4.593
 2698TIP3   OH2 8038   5.025   6.460   1.490
 2698TIP3    H1 8039   5.093   6.515   1.530
 2698TIP3    H2 8040   5.062   6.433   1.406
 2699TIP3   OH2 8041   6.963   3.945   4.925
 2699TIP3    H1 8042   6.902   3.872   4.932
 2699TIP3    H2 8043   7.025   3.932   4.996
 2700TIP3   OH2 8044   5.722   7.108   3.943
 2700TIP3    H1 8045   5.673   7.029   3.965
 2700TIP3    H2 8046   5.720   7.112   3.847
 2701TIP3   OH2 8047   5.732   6.171   2.004
 2701TIP3    H1 8048   5.763   6.255   2.039
 2701TIP3    H2 8049   5.716   6.117   2.082
 2702TIP3   OH2 8050   1.812   1.644   4.468
 2702TIP3    H1 8051   1.800   1.557   4.430
 2702TIP3    H2 8052   1.742   1.697   4.429
 2703TIP3   OH2 8053   6.945   6.245   6.376
 2703TIP3    H1 8054   6.983   6.324   6.414
 2703TIP3    H2 8055   6.890   6.209   6.446
 2704TIP3   OH2 8056   3.624   4.116   3.494
 2704TIP3    H1 8057   3.643   4.206   3.470
 2704TIP3    H2 8058   3.706   4.082   3.529
 2705TIP3   OH2 8059   4.351   3.633   2.427
 2705TIP3    H1 8060   4.318   3.603   2.512
 2705TIP3    H2 8061   4.444   3.647   2.441
 2706TIP3   OH2 8062   3.187   5.447   2.408
 2706TIP3    H1 8063   3.112   5.393   2.433
 2706TIP3    H2 8064   3.178   5.526   2.461
 2707TIP3   OH2 8065   8.280   6.277   0.763
 2707TIP3    H1 8066   8.348   6.224   0.721
 2707TIP3    H2 8067   8.309   6.285   0.854
 2708TIP3   OH2 8068   3.383   5.143   0.622
 2708TIP3    H1 8069   3.366   5.119   0.713
 2708TIP3    H2 8070   3.359   5.236   0.617
 2709TIP3   OH2 8071   7.413   0.200   4.874
 2709TIP3    H1 8072   7.468   0.279   4.872
 2709TIP3    H2 8073   7.465   0.137   4.926
 2710TIP3   OH2 8074   0.914   4.867   5.742
 2710TIP3    H1 8075   0.891   4.959   5.736
 2710TIP3    H2 8076   0.870   4.826   5.667
 2711TIP3   OH2 8077   2.256   6.245   4.690
 2711TIP3    H1 8078   2.222   6.332   4.670
 2711TIP3    H2 8079   2.181   6.186   4.677
 2712TIP3   OH2 8080   0.440   6.048   0.081
 2712TIP3    H1 8081   0.481   5.976   0.034
 2712TIP3    H2 8082   0.511   6.086   0.132
 2713TIP3   OH2 8083   5.865   5.181   0.841
 2713TIP3    H1 8084   5.826   5.211   0.923
 2713TIP3    H2 8085   5.905   5.097   0.862
 2714TIP3   OH2 8086   4.491   0.686   2.191
 2714TIP3    H1 8087   4.407   0.663   2.229
 2714TIP3    H2 8088   4.543   0.718   2.265
 2715TIP3   OH2 8089   6.038   1.587   4.987
 2715TIP3    H1 8090   6.021   1.670   4.944
 2715TIP3    H2 8091   6.086   1.535   4.922
 2716TIP3   OH2 8092   1.816   4.472   1.530
 2716TIP3    H1 8093   1.883   4.425   1.480
 2716TIP3    H2 8094   1.865   4.535   1.582
 2717TIP3   OH2 8095   2.728   0.807   4.559
 2717TIP3    H1 8096   2.802   0.841   4.510
 2717TIP3    H2 8097   2.665   0.780   4.493
 2718TIP3   OH2 8098   1.290   2.461   0.901
 2718TIP3    H1 8099   1.236   2.531   0.863
 2718TIP3    H2 8100   1.272   2.385   0.846
 2719TIP3   OH2 8101   3.933   3.760   3.930
 2719TIP3    H1 8102   4.023   3.782   3.906
 2719TIP3    H2 8103   3.894   3.729   3.849
 2720TIP3   OH2 8104   7.880   4.433   5.058
 2720TIP3    H1 8105   7.950   4.399   5.002
 2720TIP3    H2 8106   7.926   4.484   5.125
 2721TIP3   OH2 8107   4.228   6.458   0.284
 2721TIP3    H1 8108   4.295   6.497   0.227
 2721TIP3    H2 8109   4.248   6.494   0.371
 2722TIP3   OH2 8110   5.815   5.851   0.834
 2722TIP3    H1 8111   5.785   5.940   0.815
 2722TIP3    H2 8112   5.792   5.837   0.926
 2723TIP3   OH2 8113   7.919   2.689   4.549
 2723TIP3    H1 8114   7.914   2.711   4.642
 2723TIP3    H2 8115   7.858   2.749   4.507
 2724TIP3   OH2 8116   7.692   3.602   2.803
 2724TIP3    H1 8117   7.735   3.687   2.812
 2724TIP3    H2 8118   7.707   3.577   2.712
 2725TIP3   OH2 8119   2.711   3.725   1.509
 2725TIP3    H1 8120   2.786   3.782   1.524
 2725TIP3    H2 8121   2.750   3.642   1.480
 2726TIP3   OH2 8122   2.644   1.901   0.218
 2726TIP3    H1 8123   2.602   1.817   0.201
 2726TIP3    H2 8124   2.615   1.925   0.306
 2727TIP3   OH2 8125   7.506   2.507   3.272
 2727TIP3    H1 8126   7.456   2.539   3.197
 2727TIP3    H2 8127   7.456   2.430   3.302
 2728TIP3   OH2 8128   6.749   7.109   4.423
 2728TIP3    H1 8129   6.736   7.197   4.459
 2728TIP3    H2 8130   6.815   7.120   4.355
 2729TIP3   OH2 8131   6.615   5.542   6.209
 2729TIP3    H1 8132   6.684   5.481   6.235
 2729TIP3    H2 8133   6.601   5.597   6.286
 2730TIP3   OH2 8134   4.120   5.911   0.805
 2730TIP3    H1 8135   4.025   5.906   0.798
 2730TIP3    H2 8136   4.144   5.992   0.760
 2731TIP3   OH2 8137   3.776   5.020   2.134
 2731TIP3    H1 8138   3.711   5.049   2.197
 2731TIP3    H2 8139   3.773   4.925   2.138
 2732TIP3   OH2 8140   1.890   6.581   6.694
 2732TIP3    H1 8141   1.942   6.601   6.615
 2732TIP3    H2 8142   1.882   6.665   6.739
 2733TIP3   OH2 8143   6.408   3.714   2.113
 2733TIP3    H1 8144   6.327   3.664   2.112
 2733TIP3    H2 8145   6.381   3.804   2.094
 2734TIP3   OH2 8146   5.898   6.480   0.799
 2734TIP3    H1 8147   5.852   6.450   0.877
 2734TIP3    H2 8148   5.848   6.556   0.769
 2735TIP3   OH2 8149   5.494   4.959   4.428
 2735TIP3    H1 8150   5.503   4.864   4.428
 2735TIP3    H2 8151   5.418   4.976   4.373
 2736TIP3   OH2 8152   2.665   7.450   2.585
 2736TIP3    H1 8153   2.596   7.430   2.522
 2736TIP3    H2 8154   2.727   7.377   2.576
 2737TIP3   OH2 8155   3.367   4.896   3.802
 2737TIP3    H1 8156   3.457   4.925   3.815
 2737TIP3    H2 8157   3.322   4.973   3.766
 2738TIP3   OH2 8158   7.498   5.088   4.272
 2738TIP3    H1 8159   7.588   5.102   4.240
 2738TIP3    H2 8160   7.451   5.168   4.248
 2739TIP3   OH2 8161   5.336   1.132   2.534
 2739TIP3    H1 8162   5.352   1.226   2.526
 2739TIP3    H2 8163   5.246   1.120   2.506
 2740TIP3   OH2 8164   0.043   2.694   6.338
 2740TIP3    H1 8165   0.103   2.623   6.313
 2740TIP3    H2 8166   0.062   2.764   6.276
 2741TIP3   OH2 8167   5.728   4.776   4.205
 2741TIP3    H1 8168   5.637   4.774   4.174
 2741TIP3    H2 8169   5.759   4.863   4.183
 2742TIP3   OH2 8170   6.248   4.613   4.009
 2742TIP3    H1 8171   6.209   4.695   3.977
 2742TIP3    H2 8172   6.173   4.559   4.034
 2743TIP3   OH2 8173   1.289   2.485   4.716
 2743TIP3    H1 8174   1.346   2.427   4.766
 2743TIP3    H2 8175   1.308   2.463   4.625
 2744TIP3   OH2 8176   2.983   6.309   0.519
 2744TIP3    H1 8177   3.022   6.320   0.432
 2744TIP3    H2 8178   2.894   6.278   0.503
 2745TIP3   OH2 8179   1.478   7.263   2.956
 2745TIP3    H1 8180   1.444   7.326   2.893
 2745TIP3    H2 8181   1.543   7.313   3.006
 2746TIP3   OH2 8182   7.675   1.469   4.876
 2746TIP3    H1 8183   7.767   1.498   4.877
 2746TIP3    H2 8184   7.664   1.422   4.959
 2747TIP3   OH2 8185   5.183   4.540   0.057
 2747TIP3    H1 8186   5.156   4.623   0.018
 2747TIP3    H2 8187   5.104   4.487   0.059
 2748TIP3   OH2 8188   7.581   7.666   0.822
 2748TIP3    H1 8189   7.587   7.575   0.792
 2748TIP3    H2 8190   7.547   7.714   0.747
 2749TIP3   OH2 8191   1.763   7.165   5.029
 2749TIP3    H1 8192   1.679   7.205   5.004
 2749TIP3    H2 8193   1.804   7.144   4.945
 2750TIP3   OH2 8194   4.585   2.493   5.077
 2750TIP3    H1 8195   4.676   2.495   5.106
 2750TIP3    H2 8196   4.537   2.536   5.149
 2751TIP3   OH2 8197   7.920   3.901   5.707
 2751TIP3    H1 8198   7.919   3.835   5.638
 2751TIP3    H2 8199   7.889   3.981   5.664
 2752TIP3   OH2 8200   8.014   6.782   1.841
 2752TIP3    H1 8201   8.105   6.758   1.861
 2752TIP3    H2 8202   8.010   6.780   1.745
 2753TIP3   OH2 8203   0.489   4.672   6.734
 2753TIP3    H1 8204   0.484   4.746   6.675
 2753TIP3    H2 8205   0.497   4.596   6.677
 2754TIP3   OH2 8206   0.023   2.357   0.188
 2754TIP3    H1 8207  -0.039   2.330   0.120
 2754TIP3    H2 8208   0.051   2.445   0.162
 2755TIP3   OH2 8209   3.206   3.745   3.699
 2755TIP3    H1 8210   3.296   3.739   3.732
 2755TIP3    H2 8211   3.182   3.837   3.712
 2756TIP3   OH2 8212   3.401   4.886   0.533
 2756TIP3    H1 8213   3.495   4.871   0.529
 2756TIP3    H2 8214   3.391   4.981   0.542
 2757TIP3   OH2 8215   8.244   0.256   1.867
 2757TIP3    H1 8216   8.263   0.282   1.957
 2757TIP3    H2 8217   8.276   0.328   1.813
 2758TIP3   OH2 8218   6.656   1.664   1.433
 2758TIP3    H1 8219   6.694   1.654   1.521
 2758TIP3    H2 8220   6.644   1.574   1.402
 2759TIP3   OH2 8221   0.005   1.521   6.081
 2759TIP3    H1 8222  -0.003   1.610   6.116
 2759TIP3    H2 8223   0.092   1.520   6.039
 2760TIP3   OH2 8224   0.365   7.652   4.399
 2760TIP3    H1 8225   0.370   7.741   4.366
 2760TIP3    H2 8226   0.295   7.654   4.465
 2761TIP3   OH2 8227   3.154   6.831   1.973
 2761TIP3    H1 8228   3.248   6.813   1.964
 2761TIP3    H2 8229   3.115   6.784   1.899
 2762TIP3   OH2 8230   2.508   2.599   2.162
 2762TIP3    H1 8231   2.506   2.565   2.252
 2762TIP3    H2 8232   2.594   2.640   2.154
 2763TIP3   OH2 8233   0.554   0.503   3.013
 2763TIP3    H1 8234   0.503   0.426   2.986
 2763TIP3    H2 8235   0.503   0.541   3.085
 2764TIP3   OH2 8236   1.404   0.831   4.867
 2764TIP3    H1 8237   1.494   0.863   4.868
 2764TIP3    H2 8238   1.412   0.736   4.874
 2765TIP3   OH2 8239   2.666   7.403   2.929
 2765TIP3    H1 8240   2.760   7.405   2.946
 2765TIP3    H2 8241   2.657   7.349   2.851
 2766TIP3   OH2 8242   5.276   4.614   5.145
 2766TIP3    H1 8243   5.230   4.664   5.077
 2766TIP3    H2 8244   5.259   4.522   5.123
 2767TIP3   OH2 8245   5.508   4.425   3.162
 2767TIP3    H1 8246   5.528   4.504   3.112
 2767TIP3    H2 8247   5.426   4.445   3.207
 2768TIP3   OH2 8248   8.004   1.845   0.156
 2768TIP3    H1 8249   7.965   1.870   0.072
 2768TIP3    H2 8250   8.097   1.865   0.146
 2769TIP3   OH2 8251   5.170   0.280   3.848
 2769TIP3    H1 8252   5.122   0.233   3.780
 2769TIP3    H2 8253   5.108   0.346   3.879
 2770TIP3   OH2 8254   7.768   1.675   2.286
 2770TIP3    H1 8255   7.780   1.716   2.201
 2770TIP3    H2 8256   7.794   1.743   2.349
 2771TIP3   OH2 8257   6.218   2.785   6.653
 2771TIP3    H1 8258   6.135   2.745   6.677
 2771TIP3    H2 8259   6.242   2.742   6.571
 2772TIP3   OH2 8260   3.499   1.822   5.952
 2772TIP3    H1 8261   3.404   1.811   5.956
 2772TIP3    H2 8262   3.521   1.874   6.030
 2773TIP3   OH2 8263   8.257   7.738   2.240
 2773TIP3    H1 8264   8.293   7.732   2.328
 2773TIP3    H2 8265   8.284   7.658   2.197
 2774TIP3   OH2 8266   0.728   6.785   0.276
 2774TIP3    H1 8267   0.739   6.763   0.183
 2774TIP3    H2 8268   0.743   6.880   0.279
 2775TIP3   OH2 8269   6.768   2.805   5.751
 2775TIP3    H1 8270   6.683   2.762   5.739
 2775TIP3    H2 8271   6.803   2.768   5.832
 2776TIP3   OH2 8272   5.097   1.241   6.392
 2776TIP3    H1 8273   5.075   1.155   6.357
 2776TIP3    H2 8274   5.027   1.261   6.454
 2777TIP3   OH2 8275   2.827   0.670   3.063
 2777TIP3    H1 8276   2.897   0.717   3.017
 2777TIP3    H2 8277   2.748   0.722   3.045
 2778TIP3   OH2 8278   2.887   2.200   3.720
 2778TIP3    H1 8279   2.901   2.111   3.689
 2778TIP3    H2 8280   2.928   2.255   3.653
 2779TIP3   OH2 8281   7.558   2.026   3.255
 2779TIP3    H1 8282   7.639   1.981   3.279
 2779TIP3    H2 8283   7.500   1.956   3.226
 2780TIP3   OH2 8284   6.163   1.775   4.578
 2780TIP3    H1 8285   6.110   1.855   4.582
 2780TIP3    H2 8286   6.235   1.791   4.639
 2781TIP3   OH2 8287   8.053   2.626   2.602
 2781TIP3    H1 8288   8.091   2.605   2.687
 2781TIP3    H2 8289   7.997   2.702   2.618
 2782TIP3   OH2 8290   1.375   5.029   1.360
 2782TIP3    H1 8291   1.314   5.045   1.432
 2782TIP3    H2 8292   1.462   5.027   1.401
 2783TIP3   OH2 8293   0.424   1.597   5.371
 2783TIP3    H1 8294   0.445   1.635   5.456
 2783TIP3    H2 8295   0.483   1.641   5.310
 2784TIP3   OH2 8296   4.193   1.275   4.414
 2784TIP3    H1 8297   4.197   1.369   4.400
 2784TIP3    H2 8298   4.145   1.241   4.338
 2785TIP3   OH2 8299   5.166   2.694   1.950
 2785TIP3    H1 8300   5.178   2.655   2.036
 2785TIP3    H2 8301   5.168   2.620   1.889
 2786TIP3   OH2 8302   6.888   5.870   6.318
 2786TIP3    H1 8303   6.808   5.893   6.270
 2786TIP3    H2 8304   6.879   5.776   6.335
 2787TIP3   OH2 8305   6.866   0.249   4.771
 2787TIP3    H1 8306   6.956   0.243   4.741
 2787TIP3    H2 8307   6.813   0.238   4.691
 2788TIP3   OH2 8308   1.300   7.091   4.077
 2788TIP3    H1 8309   1.272   7.049   3.996
 2788TIP3    H2 8310   1.220   7.130   4.113
 2789TIP3   OH2 8311   6.993   0.500   5.896
 2789TIP3    H1 8312   6.935   0.558   5.945
 2789TIP3    H2 8313   6.934   0.433   5.860
 2790TIP3   OH2 8314   4.674   7.053   6.680
 2790TIP3    H1 8315   4.758   7.037   6.723
 2790TIP3    H2 8316   4.633   7.121   6.733
 2791TIP3   OH2 8317   3.016   7.461   1.402
 2791TIP3    H1 8318   2.995   7.551   1.377
 2791TIP3    H2 8319   3.012   7.460   1.497
 2792TIP3   OH2 8320   0.429   7.316   5.575
 2792TIP3    H1 8321   0.412   7.358   5.490
 2792TIP3    H2 8322   0.363   7.247   5.582
 2793TIP3   OH2 8323   3.520   6.731   5.477
 2793TIP3    H1 8324   3.429   6.747   5.500
 2793TIP3    H2 8325   3.518   6.709   5.384
 2794TIP3   OH2 8326   1.820   4.641   3.471
 2794TIP3    H1 8327   1.761   4.653   3.546
 2794TIP3    H2 8328   1.833   4.729   3.437
 2795TIP3   OH2 8329   1.619   2.604   6.007
 2795TIP3    H1 8330   1.608   2.510   6.019
 2795TIP3    H2 8331   1.677   2.631   6.077
 2796TIP3   OH2 8332   0.790   2.189   0.947
 2796TIP3    H1 8333   0.816   2.140   0.869
 2796TIP3    H2 8334   0.864   2.247   0.965
 2797TIP3   OH2 8335   7.610   2.650   5.022
 2797TIP3    H1 8336   7.598   2.568   5.072
 2797TIP3    H2 8337   7.574   2.718   5.079
 2798TIP3   OH2 8338   6.263   2.159   0.622
 2798TIP3    H1 8339   6.313   2.204   0.553
 2798TIP3    H2 8340   6.243   2.074   0.584
 2799TIP3   OH2 8341   4.349   4.114   0.419
 2799TIP3    H1 8342   4.429   4.087   0.462
 2799TIP3    H2 8343   4.300   4.161   0.487
 2800TIP3   OH2 8344   7.763   3.898   0.147
 2800TIP3    H1 8345   7.688   3.957   0.148
 2800TIP3    H2 8346   7.831   3.944   0.196
 2801TIP3   OH2 8347   6.296   0.311   5.506
 2801TIP3    H1 8348   6.297   0.317   5.602
 2801TIP3    H2 8349   6.377   0.354   5.479
 2802TIP3   OH2 8350   4.769   0.158   6.523
 2802TIP3    H1 8351   4.743   0.066   6.514
 2802TIP3    H2 8352   4.864   0.155   6.528
 2803TIP3   OH2 8353   4.653   5.028   3.672
 2803TIP3    H1 8354   4.641   5.121   3.651
 2803TIP3    H2 8355   4.621   5.019   3.761
 2804TIP3   OH2 8356   3.504   5.656   6.336
 2804TIP3    H1 8357   3.545   5.736   6.305
 2804TIP3    H2 8358   3.468   5.615   6.257
 2805TIP3   OH2 8359   3.565   6.732   4.505
 2805TIP3    H1 8360   3.588   6.812   4.551
 2805TIP3    H2 8361   3.514   6.761   4.430
 2806TIP3   OH2 8362   5.566   1.549   3.422
 2806TIP3    H1 8363   5.640   1.545   3.482
 2806TIP3    H2 8364   5.541   1.641   3.421
 2807TIP3   OH2 8365   3.605   5.267   2.624
 2807TIP3    H1 8366   3.693   5.250   2.589
 2807TIP3    H2 8367   3.618   5.334   2.691
 2808TIP3   OH2 8368   3.385   1.531   1.400
 2808TIP3    H1 8369   3.378   1.490   1.314
 2808TIP3    H2 8370   3.461   1.589   1.393
 2809TIP3   OH2 8371   4.693   7.246   3.520
 2809TIP3    H1 8372   4.774   7.233   3.571
 2809TIP3    H2 8373   4.699   7.337   3.490
 2810TIP3   OH2 8374   5.628   6.564   1.403
 2810TIP3    H1 8375   5.704   6.506   1.400
 2810TIP3    H2 8376   5.623   6.593   1.494
 2811TIP3   OH2 8377   5.638   3.081   4.121
 2811TIP3    H1 8378   5.672   3.025   4.190
 2811TIP3    H2 8379   5.550   3.048   4.103
 2812TIP3   OH2 8380   4.332   1.940   3.865
 2812TIP3    H1 8381   4.334   2.034   3.885
 2812TIP3    H2 8382   4.274   1.903   3.932
 2813TIP3   OH2 8383   2.791   0.698   4.792
 2813TIP3    H1 8384   2.885   0.712   4.802
 2813TIP3    H2 8385   2.769   0.740   4.709
 2814TIP3   OH2 8386   4.771   5.051   2.634
 2814TIP3    H1 8387   4.797   4.965   2.601
 2814TIP3    H2 8388   4.726   5.033   2.717
 2815TIP3   OH2 8389   4.375   4.965   0.224
 2815TIP3    H1 8390   4.357   4.871   0.228
 2815TIP3    H2 8391   4.408   4.986   0.311
 2816TIP3   OH2 8392   5.506   4.702   0.050
 2816TIP3    H1 8393   5.566   4.772   0.026
 2816TIP3    H2 8394   5.429   4.716  -0.005
 2817TIP3   OH2 8395   6.041   4.793   3.923
 2817TIP3    H1 8396   5.963   4.815   3.873
 2817TIP3    H2 8397   6.018   4.815   4.014
 2818TIP3   OH2 8398   1.089   7.104   2.334
 2818TIP3    H1 8399   1.066   7.011   2.346
 2818TIP3    H2 8400   1.007   7.150   2.352
 2819TIP3   OH2 8401   2.882   1.523   4.335
 2819TIP3    H1 8402   2.836   1.603   4.362
 2819TIP3    H2 8403   2.820   1.479   4.277
 2820TIP3   OH2 8404   5.970   6.316   0.401
 2820TIP3    H1 8405   5.969   6.294   0.308
 2820TIP3    H2 8406   6.010   6.403   0.405
 2821TIP3   OH2 8407   3.414   3.126   1.706
 2821TIP3    H1 8408   3.435   3.179   1.629
 2821TIP3    H2 8409   3.331   3.162   1.738
 2822TIP3   OH2 8410   7.646   3.532   5.242
 2822TIP3    H1 8411   7.626   3.538   5.336
 2822TIP3    H2 8412   7.661   3.439   5.226
 2823TIP3   OH2 8413   1.246   3.522   4.505
 2823TIP3    H1 8414   1.177   3.531   4.571
 2823TIP3    H2 8415   1.200   3.492   4.426
 2824TIP3   OH2 8416   2.450   4.532   2.479
 2824TIP3    H1 8417   2.395   4.553   2.554
 2824TIP3    H2 8418   2.526   4.487   2.517
 2825TIP3   OH2 8419   0.691   6.373   1.825
 2825TIP3    H1 8420   0.673   6.460   1.792
 2825TIP3    H2 8421   0.765   6.384   1.885
 2826TIP3   OH2 8422   0.747   2.296   6.339
 2826TIP3    H1 8423   0.823   2.329   6.291
 2826TIP3    H2 8424   0.729   2.363   6.404
 2827TIP3   OH2 8425   0.328   4.294   1.642
 2827TIP3    H1 8426   0.278   4.222   1.679
 2827TIP3    H2 8427   0.415   4.258   1.628
 2828TIP3   OH2 8428   5.198   7.588   2.895
 2828TIP3    H1 8429   5.122   7.561   2.842
 2828TIP3    H2 8430   5.192   7.684   2.897
 2829TIP3   OH2 8431   3.188   0.360   2.812
 2829TIP3    H1 8432   3.200   0.327   2.901
 2829TIP3    H2 8433   3.119   0.306   2.775
 2830TIP3   OH2 8434   7.105   0.283   3.049
 2830TIP3    H1 8435   7.099   0.336   2.970
 2830TIP3    H2 8436   7.109   0.193   3.017
 2831TIP3   OH2 8437   3.448   2.813   2.537
 2831TIP3    H1 8438   3.410   2.790   2.622
 2831TIP3    H2 8439   3.397   2.887   2.506
 2832TIP3   OH2 8440   8.058   1.161   3.758
 2832TIP3    H1 8441   8.031   1.150   3.666
 2832TIP3    H2 8442   8.137   1.214   3.753
 2833TIP3   OH2 8443   6.248   4.658   2.450
 2833TIP3    H1 8444   6.283   4.725   2.508
 2833TIP3    H2 8445   6.324   4.605   2.426
 2834TIP3   OH2 8446   0.925   4.118   0.120
 2834TIP3    H1 8447   0.875   4.184   0.167
 2834TIP3    H2 8448   0.904   4.133   0.028
 2835TIP3   OH2 8449   6.796   1.091   3.558
 2835TIP3    H1 8450   6.750   1.016   3.597
 2835TIP3    H2 8451   6.851   1.052   3.490
 2836TIP3   OH2 8452   4.230   3.756   3.283
 2836TIP3    H1 8453   4.292   3.815   3.238
 2836TIP3    H2 8454   4.148   3.805   3.286
 2837TIP3   OH2 8455   6.319   2.248   5.848
 2837TIP3    H1 8456   6.235   2.253   5.802
 2837TIP3    H2 8457   6.341   2.155   5.847
 2838TIP3   OH2 8458   3.042   1.553   1.944
 2838TIP3    H1 8459   3.087   1.468   1.944
 2838TIP3    H2 8460   2.963   1.538   1.996
 2839TIP3   OH2 8461   7.155   5.409   1.100
 2839TIP3    H1 8462   7.091   5.417   1.171
 2839TIP3    H2 8463   7.231   5.366   1.141
 2840TIP3   OH2 8464   1.893   1.317   4.524
 2840TIP3    H1 8465   1.825   1.357   4.471
 2840TIP3    H2 8466   1.905   1.377   4.597
 2841TIP3   OH2 8467   2.806   1.613   1.504
 2841TIP3    H1 8468   2.808   1.608   1.599
 2841TIP3    H2 8469   2.845   1.698   1.483
 2842TIP3   OH2 8470   5.000   0.765   6.761
 2842TIP3    H1 8471   5.063   0.794   6.695
 2842TIP3    H2 8472   5.042   0.786   6.845
 2843TIP3   OH2 8473   1.347   3.545   2.043
 2843TIP3    H1 8474   1.291   3.605   1.994
 2843TIP3    H2 8475   1.420   3.600   2.072
 2844TIP3   OH2 8476   1.467   2.506   3.799
 2844TIP3    H1 8477   1.451   2.534   3.889
 2844TIP3    H2 8478   1.392   2.539   3.750
 2845TIP3   OH2 8479   2.363   0.202   0.881
 2845TIP3    H1 8480   2.442   0.255   0.889
 2845TIP3    H2 8481   2.364   0.170   0.791
 2846TIP3   OH2 8482   5.160   5.188   2.318
 2846TIP3    H1 8483   5.238   5.149   2.356
 2846TIP3    H2 8484   5.120   5.117   2.267
 2847TIP3   OH2 8485   8.146   1.528   6.504
 2847TIP3    H1 8486   8.139   1.432   6.511
 2847TIP3    H2 8487   8.063   1.555   6.464
 2848TIP3   OH2 8488   5.845   5.255   4.619
 2848TIP3    H1 8489   5.797   5.265   4.537
 2848TIP3    H2 8490   5.854   5.344   4.653
 2849TIP3   OH2 8491   7.485   4.333   3.996
 2849TIP3    H1 8492   7.490   4.428   3.997
 2849TIP3    H2 8493   7.454   4.309   4.083
 2850TIP3   OH2 8494   3.543   3.067   3.058
 2850TIP3    H1 8495   3.475   3.026   3.110
 2850TIP3    H2 8496   3.545   3.016   2.977
 2851TIP3   OH2 8497   0.935   6.815   1.237
 2851TIP3    H1 8498   0.948   6.886   1.300
 2851TIP3    H2 8499   0.921   6.859   1.154
 2852TIP3   OH2 8500   0.836   5.788   6.104
 2852TIP3    H1 8501   0.782   5.864   6.081
 2852TIP3    H2 8502   0.890   5.773   6.027
 2853TIP3   OH2 8503   3.272   4.446   0.400
 2853TIP3    H1 8504   3.220   4.366   0.391
 2853TIP3    H2 8505   3.355   4.425   0.358
 2854TIP3   OH2 8506   5.130   3.328   1.232
 2854TIP3    H1 8507   5.201   3.295   1.177
 2854TIP3    H2 8508   5.122   3.263   1.302
 2855TIP3   OH2 8509   4.926   3.131   2.690
 2855TIP3    H1 8510   4.878   3.108   2.610
 2855TIP3    H2 8511   4.858   3.137   2.758
 2856TIP3   OH2 8512   7.111   5.069   2.097
 2856TIP3    H1 8513   7.018   5.091   2.096
 2856TIP3    H2 8514   7.120   5.000   2.031
 2857TIP3   OH2 8515   1.698   3.616   5.113
 2857TIP3    H1 8516   1.634   3.687   5.113
 2857TIP3    H2 8517   1.781   3.658   5.091
 2858TIP3   OH2 8518   0.110   3.288   1.488
 2858TIP3    H1 8519   0.044   3.219   1.473
 2858TIP3    H2 8520   0.179   3.269   1.425
 2859TIP3   OH2 8521   6.776   1.036   0.812
 2859TIP3    H1 8522   6.827   1.036   0.731
 2859TIP3    H2 8523   6.833   0.992   0.875
 2860TIP3   OH2 8524   4.075   3.379   1.015
 2860TIP3    H1 8525   4.065   3.423   1.100
 2860TIP3    H2 8526   4.032   3.437   0.952
 2861TIP3   OH2 8527   3.493   7.469   1.773
 2861TIP3    H1 8528   3.563   7.449   1.836
 2861TIP3    H2 8529   3.505   7.562   1.753
 2862TIP3   OH2 8530   4.241   0.300   2.680
 2862TIP3    H1 8531   4.174   0.361   2.712
 2862TIP3    H2 8532   4.196   0.250   2.612
 2863TIP3   OH2 8533   1.054   2.389   1.542
 2863TIP3    H1 8534   1.007   2.416   1.621
 2863TIP3    H2 8535   0.991   2.335   1.494
 2864TIP3   OH2 8536   5.845   6.004   1.194
 2864TIP3    H1 8537   5.808   5.939   1.134
 2864TIP3    H2 8538   5.773   6.026   1.253
 2865TIP3   OH2 8539   6.703   4.171   5.574
 2865TIP3    H1 8540   6.676   4.190   5.663
 2865TIP3    H2 8541   6.784   4.220   5.562
 2866TIP3   OH2 8542   8.173   1.753   4.102
 2866TIP3    H1 8543   8.116   1.682   4.131
 2866TIP3    H2 8544   8.114   1.821   4.071
 2867TIP3   OH2 8545   7.205   6.968   6.679
 2867TIP3    H1 8546   7.277   6.986   6.619
 2867TIP3    H2 8547   7.126   6.973   6.625
 2868TIP3   OH2 8548   5.355   3.289   3.114
 2868TIP3    H1 8549   5.368   3.289   3.019
 2868TIP3    H2 8550   5.311   3.371   3.133
 2869TIP3   OH2 8551   5.403   3.253   2.841
 2869TIP3    H1 8552   5.310   3.239   2.820
 2869TIP3    H2 8553   5.435   3.306   2.769
 2870TIP3   OH2 8554   0.019   2.237   2.737
 2870TIP3    H1 8555   0.000   2.287   2.816
 2870TIP3    H2 8556  -0.061   2.241   2.686
 2871TIP3   OH2 8557   1.411   7.145   4.442
 2871TIP3    H1 8558   1.460   7.169   4.521
 2871TIP3    H2 8559   1.401   7.050   4.447
 2872TIP3   OH2 8560   0.676   0.256   0.529
 2872TIP3    H1 8561   0.752   0.312   0.517
 2872TIP3    H2 8562   0.647   0.275   0.618
 2873TIP3   OH2 8563   6.849   5.802   4.588
 2873TIP3    H1 8564   6.864   5.865   4.659
 2873TIP3    H2 8565   6.933   5.755   4.581
 2874TIP3   OH2 8566   4.051   5.359   3.375
 2874TIP3    H1 8567   3.965   5.400   3.371
 2874TIP3    H2 8568   4.074   5.359   3.468
 2875TIP3   OH2 8569   4.113   1.442   3.499
 2875TIP3    H1 8570   4.164   1.376   3.546
 2875TIP3    H2 8571   4.032   1.451   3.550
 2876TIP3   OH2 8572   0.333   0.218   0.706
 2876TIP3    H1 8573   0.328   0.306   0.667
 2876TIP3    H2 8574   0.306   0.159   0.636
 2877TIP3   OH2 8575   0.432   5.968   4.200
 2877TIP3    H1 8576   0.367   5.940   4.264
 2877TIP3    H2 8577   0.516   5.942   4.239
 2878TIP3   OH2 8578   1.691   7.426   1.743
 2878TIP3    H1 8579   1.673   7.435   1.837
 2878TIP3    H2 8580   1.660   7.338   1.722
 2879TIP3   OH2 8581   0.839   3.052   5.430
 2879TIP3    H1 8582   0.935   3.044   5.433
 2879TIP3    H2 8583   0.818   3.114   5.499
 2880TIP3   OH2 8584   6.783   7.334   4.556
 2880TIP3    H1 8585   6.786   7.427   4.534
 2880TIP3    H2 8586   6.857   7.321   4.615
 2881TIP3   OH2 8587   7.073   2.532   4.455
 2881TIP3    H1 8588   7.036   2.609   4.498
 2881TIP3    H2 8589   7.003   2.467   4.459
 2882TIP3   OH2 8590   7.961   4.370   4.579
 2882TIP3    H1 8591   7.984   4.389   4.488
 2882TIP3    H2 8592   7.866   4.381   4.582
 2883TIP3   OH2 8593   7.495   1.798   1.330
 2883TIP3    H1 8594   7.492   1.741   1.407
 2883TIP3    H2 8595   7.444   1.875   1.355
 2884TIP3   OH2 8596   0.264   3.094   0.437
 2884TIP3    H1 8597   0.173   3.071   0.460
 2884TIP3    H2 8598   0.317   3.044   0.500
 2885TIP3   OH2 8599   6.531   2.360   5.747
 2885TIP3    H1 8600   6.578   2.405   5.817
 2885TIP3    H2 8601   6.455   2.321   5.790
 2886TIP3   OH2 8602   3.569   0.238   0.127
 2886TIP3    H1 8603   3.600   0.155   0.165
 2886TIP3    H2 8604   3.649   0.282   0.099
 2887TIP3   OH2 8605   2.638   7.678   4.480
 2887TIP3    H1 8606   2.582   7.659   4.555
 2887TIP3    H2 8607   2.707   7.611   4.485
 2888TIP3   OH2 8608   6.123   0.007   4.309
 2888TIP3    H1 8609   6.171   0.054   4.378
 2888TIP3    H2 8610   6.048  -0.032   4.354
 2889TIP3   OH2 8611   0.794   3.957   6.413
 2889TIP3    H1 8612   0.757   3.877   6.375
 2889TIP3    H2 8613   0.863   3.927   6.471
 2890TIP3   OH2 8614   0.688   5.926   5.355
 2890TIP3    H1 8615   0.683   5.922   5.259
 2890TIP3    H2 8616   0.607   5.885   5.385
 2891TIP3   OH2 8617   4.574   4.333   5.457
 2891TIP3    H1 8618   4.543   4.256   5.409
 2891TIP3    H2 8619   4.627   4.298   5.528
 2892TIP3   OH2 8620   0.893   4.251   2.041
 2892TIP3    H1 8621   0.896   4.327   1.983
 2892TIP3    H2 8622   0.864   4.179   1.986
 2893TIP3   OH2 8623   7.489   5.635   2.584
 2893TIP3    H1 8624   7.524   5.640   2.672
 2893TIP3    H2 8625   7.480   5.542   2.566
 2894TIP3   OH2 8626   5.434   0.042   1.709
 2894TIP3    H1 8627   5.471  -0.046   1.697
 2894TIP3    H2 8628   5.487   0.098   1.654
 2895TIP3   OH2 8629   1.137   7.750   5.071
 2895TIP3    H1 8630   1.119   7.813   5.002
 2895TIP3    H2 8631   1.158   7.804   5.148
 2896TIP3   OH2 8632   2.506   4.798   6.280
 2896TIP3    H1 8633   2.455   4.778   6.359
 2896TIP3    H2 8634   2.585   4.746   6.290
 2897TIP3   OH2 8635   2.322   5.630   3.494
 2897TIP3    H1 8636   2.228   5.641   3.482
 2897TIP3    H2 8637   2.338   5.661   3.583
 2898TIP3   OH2 8638   5.249   6.972   0.214
 2898TIP3    H1 8639   5.272   6.916   0.140
 2898TIP3    H2 8640   5.307   6.944   0.285
 2899TIP3   OH2 8641   4.635   7.044   0.246
 2899TIP3    H1 8642   4.729   7.059   0.234
 2899TIP3    H2 8643   4.623   7.046   0.341
 2900TIP3   OH2 8644   5.671   0.087   6.552
 2900TIP3    H1 8645   5.697  -0.003   6.531
 2900TIP3    H2 8646   5.644   0.124   6.469
 2901TIP3   OH2 8647   7.965   1.375   5.554
 2901TIP3    H1 8648   7.887   1.396   5.606
 2901TIP3    H2 8649   7.937   1.302   5.498
 2902TIP3   OH2 8650   3.748   1.777   5.320
 2902TIP3    H1 8651   3.764   1.785   5.226
 2902TIP3    H2 8652   3.815   1.716   5.351
 2903TIP3   OH2 8653   3.122   2.829   4.822
 2903TIP3    H1 8654   3.193   2.766   4.836
 2903TIP3    H2 8655   3.066   2.788   4.756
 2904TIP3   OH2 8656   2.439   3.004   4.400
 2904TIP3    H1 8657   2.479   3.006   4.487
 2904TIP3    H2 8658   2.368   2.940   4.407
 2905TIP3   OH2 8659   4.999   5.613   0.552
 2905TIP3    H1 8660   4.906   5.630   0.557
 2905TIP3    H2 8661   5.017   5.605   0.458
 2906TIP3   OH2 8662   7.903   4.075   5.298
 2906TIP3    H1 8663   7.900   4.018   5.222
 2906TIP3    H2 8664   7.984   4.125   5.288
 2907TIP3   OH2 8665   3.132   4.255   5.599
 2907TIP3    H1 8666   3.145   4.167   5.636
 2907TIP3    H2 8667   3.078   4.300   5.663
 2908TIP3   OH2 8668   5.592   2.734   6.473
 2908TIP3    H1 8669   5.605   2.693   6.387
 2908TIP3    H2 8670   5.592   2.828   6.454
 2909TIP3   OH2 8671   7.688   6.047   2.094
 2909TIP3    H1 8672   7.612   6.098   2.123
 2909TIP3    H2 8673   7.728   6.015   2.175
 2910TIP3   OH2 8674   1.610   2.699   4.656
 2910TIP3    H1 8675   1.523   2.720   4.690
 2910TIP3    H2 8676   1.624   2.762   4.585
 2911TIP3   OH2 8677   6.157   2.639   3.753
 2911TIP3    H1 8678   6.154   2.601   3.666
 2911TIP3    H2 8679   6.250   2.651   3.771
 2912TIP3   OH2 8680   5.946   1.860   4.883
 2912TIP3    H1 8681   5.906   1.939   4.919
 2912TIP3    H2 8682   6.040   1.879   4.882
 2913TIP3   OH2 8683   2.757   0.118   3.212
 2913TIP3    H1 8684   2.777   0.026   3.233
 2913TIP3    H2 8685   2.840   0.164   3.220
 2914TIP3   OH2 8686   0.126   4.561   2.468
 2914TIP3    H1 8687   0.047   4.606   2.436
 2914TIP3    H2 8688   0.112   4.469   2.445
 2915TIP3   OH2 8689   2.114   0.850   3.919
 2915TIP3    H1 8690   2.132   0.875   3.828
 2915TIP3    H2 8691   2.038   0.792   3.914
 2916TIP3   OH2 8692   0.066   1.012   1.105
 2916TIP3    H1 8693   0.059   0.917   1.120
 2916TIP3    H2 8694  -0.023   1.039   1.086
 2917TIP3   OH2 8695   5.893   5.099   1.463
 2917TIP3    H1 8696   5.934   5.183   1.442
 2917TIP3    H2 8697   5.966   5.040   1.480
 2918TIP3   OH2 8698   5.222   2.022   2.645
 2918TIP3    H1 8699   5.173   1.958   2.696
 2918TIP3    H2 8700   5.281   1.969   2.591
 2919TIP3   OH2 8701   6.444   2.807   5.088
 2919TIP3    H1 8702   6.405   2.880   5.040
 2919TIP3    H2 8703   6.410   2.817   5.177
 2920TIP3   OH2 8704   7.281   2.922   4.895
 2920TIP3    H1 8705   7.197   2.968   4.893
 2920TIP3    H2 8706   7.311   2.923   4.805
 2921TIP3   OH2 8707   4.219   7.232   2.248
 2921TIP3    H1 8708   4.165   7.274   2.315
 2921TIP3    H2 8709   4.238   7.146   2.285
 2922TIP3   OH2 8710   2.878   7.166   2.017
 2922TIP3    H1 8711   2.790   7.202   2.029
 2922TIP3    H2 8712   2.869   7.073   2.037
 2923TIP3   OH2 8713   4.109   3.378   1.964
 2923TIP3    H1 8714   4.031   3.377   1.910
 2923TIP3    H2 8715   4.080   3.413   2.048
 2924TIP3   OH2 8716   7.315   4.006   5.516
 2924TIP3    H1 8717   7.220   4.002   5.518
 2924TIP3    H2 8718   7.344   3.937   5.577
 2925TIP3   OH2 8719   8.197   6.133   5.741
 2925TIP3    H1 8720   8.212   6.043   5.712
 2925TIP3    H2 8721   8.129   6.126   5.808
 2926TIP3   OH2 8722   2.009   0.598   0.824
 2926TIP3    H1 8723   2.087   0.544   0.812
 2926TIP3    H2 8724   1.960   0.556   0.894
 2927TIP3   OH2 8725   5.702   2.871   2.701
 2927TIP3    H1 8726   5.632   2.806   2.702
 2927TIP3    H2 8727   5.741   2.867   2.788
 2928TIP3   OH2 8728   4.729   5.779   6.514
 2928TIP3    H1 8729   4.810   5.727   6.517
 2928TIP3    H2 8730   4.748   5.857   6.565
 2929TIP3   OH2 8731   1.164   3.264   4.085
 2929TIP3    H1 8732   1.140   3.177   4.116
 2929TIP3    H2 8733   1.257   3.271   4.105
 2930TIP3   OH2 8734   3.209   6.366   2.798
 2930TIP3    H1 8735   3.212   6.280   2.756
 2930TIP3    H2 8736   3.116   6.389   2.801
 2931TIP3   OH2 8737   5.159   1.038   1.045
 2931TIP3    H1 8738   5.103   1.073   1.114
 2931TIP3    H2 8739   5.236   1.094   1.045
 2932TIP3   OH2 8740   0.289   4.113   4.265
 2932TIP3    H1 8741   0.369   4.062   4.272
 2932TIP3    H2 8742   0.267   4.109   4.172
 2933TIP3   OH2 8743   5.370   1.585   0.541
 2933TIP3    H1 8744   5.276   1.602   0.537
 2933TIP3    H2 8745   5.386   1.557   0.632
 2934TIP3   OH2 8746   3.466   0.016   1.394
 2934TIP3    H1 8747   3.406  -0.040   1.345
 2934TIP3    H2 8748   3.545  -0.036   1.406
 2935TIP3   OH2 8749   2.654   5.276   4.867
 2935TIP3    H1 8750   2.696   5.213   4.925
 2935TIP3    H2 8751   2.724   5.303   4.807
 2936TIP3   OH2 8752   2.074   6.609   6.483
 2936TIP3    H1 8753   2.144   6.657   6.527
 2936TIP3    H2 8754   2.109   6.520   6.471
 2937TIP3   OH2 8755   5.306   5.217   1.936
 2937TIP3    H1 8756   5.333   5.188   2.023
 2937TIP3    H2 8757   5.295   5.312   1.945
 2938TIP3   OH2 8758   5.851   6.057   2.616
 2938TIP3    H1 8759   5.765   6.019   2.630
 2938TIP3    H2 8760   5.893   5.998   2.553
 2939TIP3   OH2 8761   4.894   3.919   3.145
 2939TIP3    H1 8762   4.893   3.827   3.117
 2939TIP3    H2 8763   4.875   3.969   3.065
 2940TIP3   OH2 8764   6.142   6.406   0.080
 2940TIP3    H1 8765   6.118   6.469   0.149
 2940TIP3    H2 8766   6.226   6.438   0.047
 2941TIP3   OH2 8767   7.153   3.340   1.682
 2941TIP3    H1 8768   7.104   3.277   1.735
 2941TIP3    H2 8769   7.100   3.420   1.685
 2942TIP3   OH2 8770   7.818   1.832   1.537
 2942TIP3    H1 8771   7.866   1.904   1.496
 2942TIP3    H2 8772   7.842   1.755   1.486
 2943TIP3   OH2 8773   6.339   4.152   4.943
 2943TIP3    H1 8774   6.362   4.080   5.001
 2943TIP3    H2 8775   6.287   4.211   4.997
 2944TIP3   OH2 8776   0.893   0.850   1.546
 2944TIP3    H1 8777   0.930   0.767   1.514
 2944TIP3    H2 8778   0.859   0.893   1.467
 2945TIP3   OH2 8779   3.696   3.782   1.939
 2945TIP3    H1 8780   3.712   3.870   1.973
 2945TIP3    H2 8781   3.704   3.724   2.015
 2946TIP3   OH2 8782   5.046   6.657   6.744
 2946TIP3    H1 8783   4.968   6.664   6.689
 2946TIP3    H2 8784   5.015   6.612   6.823
 2947TIP3   OH2 8785   6.002   6.879   6.407
 2947TIP3    H1 8786   5.915   6.878   6.449
 2947TIP3    H2 8787   6.003   6.961   6.358
 2948TIP3   OH2 8788   5.175   2.304   4.041
 2948TIP3    H1 8789   5.240   2.253   4.089
 2948TIP3    H2 8790   5.161   2.255   3.960
 2949TIP3   OH2 8791   2.003   4.035   2.218
 2949TIP3    H1 8792   2.018   4.101   2.287
 2949TIP3    H2 8793   2.017   3.951   2.261
 2950TIP3   OH2 8794   8.278   0.507   6.446
 2950TIP3    H1 8795   8.314   0.596   6.451
 2950TIP3    H2 8796   8.229   0.506   6.364
 2951TIP3   OH2 8797   3.733   5.155   3.380
 2951TIP3    H1 8798   3.693   5.068   3.380
 2951TIP3    H2 8799   3.743   5.177   3.287
 2952TIP3   OH2 8800   4.226   7.102   1.223
 2952TIP3    H1 8801   4.145   7.142   1.191
 2952TIP3    H2 8802   4.286   7.175   1.234
 2953TIP3   OH2 8803   7.590   2.177   4.468
 2953TIP3    H1 8804   7.549   2.251   4.423
 2953TIP3    H2 8805   7.643   2.217   4.537
 2954TIP3   OH2 8806   6.605   1.691   6.281
 2954TIP3    H1 8807   6.584   1.767   6.336
 2954TIP3    H2 8808   6.524   1.640   6.278
 2955TIP3   OH2 8809   1.637   5.633   3.626
 2955TIP3    H1 8810   1.567   5.682   3.669
 2955TIP3    H2 8811   1.615   5.636   3.533
 2956TIP3   OH2 8812   5.949   3.943   2.697
 2956TIP3    H1 8813   5.894   3.963   2.774
 2956TIP3    H2 8814   5.991   3.860   2.719
 2957TIP3   OH2 8815   4.059   7.085   0.158
 2957TIP3    H1 8816   3.964   7.091   0.143
 2957TIP3    H2 8817   4.083   6.999   0.125
 2958TIP3   OH2 8818   4.474   6.331   4.711
 2958TIP3    H1 8819   4.508   6.306   4.625
 2958TIP3    H2 8820   4.512   6.418   4.727
 2959TIP3   OH2 8821   0.062   6.391   3.348
 2959TIP3    H1 8822   0.056   6.350   3.434
 2959TIP3    H2 8823   0.156   6.405   3.335
 2960TIP3   OH2 8824   8.192   4.100   6.560
 2960TIP3    H1 8825   8.243   4.032   6.602
 2960TIP3    H2 8826   8.251   4.175   6.555
 2961TIP3   OH2 8827   4.720   3.504   0.448
 2961TIP3    H1 8828   4.761   3.564   0.386
 2961TIP3    H2 8829   4.695   3.428   0.396
 2962TIP3   OH2 8830   2.779   1.966   1.975
 2962TIP3    H1 8831   2.708   2.029   1.986
 2962TIP3    H2 8832   2.743   1.884   2.008
 2963TIP3   OH2 8833   2.392   3.202   3.423
 2963TIP3    H1 8834   2.462   3.268   3.427
 2963TIP3    H2 8835   2.313   3.253   3.406
 2964TIP3   OH2 8836   5.602   4.795   2.257
 2964TIP3    H1 8837   5.659   4.830   2.325
 2964TIP3    H2 8838   5.573   4.711   2.292
 2965TIP3   OH2 8839   6.644   1.969   1.048
 2965TIP3    H1 8840   6.625   1.943   1.138
 2965TIP3    H2 8841   6.739   1.959   1.039
 2966TIP3   OH2 8842   1.307   2.709   3.642
 2966TIP3    H1 8843   1.249   2.767   3.593
 2966TIP3    H2 8844   1.395   2.741   3.622
 2967TIP3   OH2 8845   3.675   3.965   0.432
 2967TIP3    H1 8846   3.599   3.907   0.436
 2967TIP3    H2 8847   3.739   3.919   0.378
 2968TIP3   OH2 8848   5.782   3.824   0.331
 2968TIP3    H1 8849   5.701   3.871   0.352
 2968TIP3    H2 8850   5.811   3.862   0.248
 2969TIP3   OH2 8851   6.680   2.528   5.547
 2969TIP3    H1 8852   6.602   2.534   5.603
 2969TIP3    H2 8853   6.752   2.511   5.608
 2970TIP3   OH2 8854   6.768   3.145   6.460
 2970TIP3    H1 8855   6.830   3.215   6.440
 2970TIP3    H2 8856   6.822   3.067   6.472
 2971TIP3   OH2 8857   7.861   6.713   6.605
 2971TIP3    H1 8858   7.955   6.701   6.622
 2971TIP3    H2 8859   7.834   6.782   6.666
 2972TIP3   OH2 8860   3.773   1.531   6.600
 2972TIP3    H1 8861   3.815   1.446   6.609
 2972TIP3    H2 8862   3.814   1.585   6.667
 2973TIP3   OH2 8863   7.866   6.385   3.245
 2973TIP3    H1 8864   7.889   6.390   3.153
 2973TIP3    H2 8865   7.771   6.389   3.247
 2974TIP3   OH2 8866   6.412   0.700   0.200
 2974TIP3    H1 8867   6.461   0.729   0.123
 2974TIP3    H2 8868   6.454   0.743   0.274
 2975TIP3   OH2 8869   2.991   7.298   1.709
 2975TIP3    H1 8870   3.041   7.339   1.780
 2975TIP3    H2 8871   3.000   7.204   1.724
 2976TIP3   OH2 8872   2.959   3.261   6.452
 2976TIP3    H1 8873   3.047   3.230   6.475
 2976TIP3    H2 8874   2.905   3.238   6.527
 2977TIP3   OH2 8875   4.532   0.942   6.173
 2977TIP3    H1 8876   4.609   0.918   6.224
 2977TIP3    H2 8877   4.565   1.000   6.105
 2978TIP3   OH2 8878   7.950   5.585   4.882
 2978TIP3    H1 8879   7.904   5.522   4.826
 2978TIP3    H2 8880   8.039   5.587   4.848
 2979TIP3   OH2 8881   7.946   6.924   2.226
 2979TIP3    H1 8882   7.954   7.008   2.270
 2979TIP3    H2 8883   7.899   6.944   2.145
 2980TIP3   OH2 8884   3.850   7.245   2.200
 2980TIP3    H1 8885   3.766   7.254   2.246
 2980TIP3    H2 8886   3.916   7.260   2.268
 2981TIP3   OH2 8887   0.825   3.424   2.934
 2981TIP3    H1 8888   0.798   3.374   3.011
 2981TIP3    H2 8889   0.906   3.467   2.961
 2982TIP3   OH2 8890   3.977   3.448   3.556
 2982TIP3    H1 8891   4.058   3.491   3.582
 2982TIP3    H2 8892   3.982   3.443   3.461
 2983TIP3   OH2 8893   7.983   3.287   0.253
 2983TIP3    H1 8894   7.938   3.367   0.227
 2983TIP3    H2 8895   8.017   3.306   0.340
 2984TIP3   OH2 8896   6.714   6.929   1.491
 2984TIP3    H1 8897   6.642   6.948   1.430
 2984TIP3    H2 8898   6.671   6.909   1.574
 2985TIP3   OH2 8899   7.144   3.773   5.856
 2985TIP3    H1 8900   7.124   3.767   5.949
 2985TIP3    H2 8901   7.062   3.748   5.813
 2986TIP3   OH2 8902   1.912   5.619   6.089
 2986TIP3    H1 8903   2.006   5.634   6.086
 2986TIP3    H2 8904   1.900   5.529   6.060
 2987TIP3   OH2 8905   3.025   0.907   4.980
 2987TIP3    H1 8906   3.033   0.812   4.992
 2987TIP3    H2 8907   3.103   0.943   5.021
 2988TIP3   OH2 8908   1.593   3.275   4.537
 2988TIP3    H1 8909   1.686   3.292   4.556
 2988TIP3    H2 8910   1.595   3.207   4.471
 2989TIP3   OH2 8911   0.989   2.740   4.149
 2989TIP3    H1 8912   0.954   2.797   4.218
 2989TIP3    H2 8913   1.004   2.656   4.193
 2990TIP3   OH2 8914   6.614   4.292   0.211
 2990TIP3    H1 8915   6.602   4.214   0.157
 2990TIP3    H2 8916   6.659   4.354   0.153
 2991TIP3   OH2 8917   0.725   5.684   0.481
 2991TIP3    H1 8918   0.791   5.740   0.521
 2991TIP3    H2 8919   0.652   5.685   0.543
 2992TIP3   OH2 8920   0.915   3.042   2.742
 2992TIP3    H1 8921   0.907   2.981   2.669
 2992TIP3    H2 8922   0.825   3.056   2.772
 2993TIP3   OH2 8923   0.988   6.364   1.056
 2993TIP3    H1 8924   1.027   6.306   0.990
 2993TIP3    H2 8925   0.952   6.437   1.006
 2994TIP3   OH2 8926   1.101   1.800   6.438
 2994TIP3    H1 8927   1.041   1.726   6.433
 2994TIP3    H2 8928   1.046   1.873   6.467
 2995TIP3   OH2 8929   2.414   7.186   4.641
 2995TIP3    H1 8930   2.427   7.244   4.716
 2995TIP3    H2 8931   2.492   7.132   4.639
 2996TIP3   OH2 8932   8.289   3.407   2.134
 2996TIP3    H1 8933   8.310   3.327   2.086
 2996TIP3    H2 8934   8.193   3.408   2.137
 2997TIP3   OH2 8935   3.549   0.658   5.315
 2997TIP3    H1 8936   3.567   0.680   5.224
 2997TIP3    H2 8937   3.576   0.567   5.324
 2998TIP3   OH2 8938   3.189   1.519   1.595
 2998TIP3    H1 8939   3.249   1.528   1.521
 2998TIP3    H2 8940   3.243   1.488   1.667
 2999TIP3   OH2 8941   6.754   4.664   1.378
 2999TIP3    H1 8942   6.711   4.582   1.356
 2999TIP3    H2 8943   6.723   4.685   1.466
 3000TIP3   OH2 8944   4.215   3.585   0.767
 3000TIP3    H1 8945   4.144   3.612   0.825
 3000TIP3    H2 8946   4.292   3.631   0.799
 3001TIP3   OH2 8947   4.240   5.571   1.119
 3001TIP3    H1 8948   4.313   5.583   1.179
 3001TIP3    H2 8949   4.213   5.660   1.096
 3002TIP3   OH2 8950   6.951   1.815   0.051
 3002TIP3    H1 8951   6.917   1.904   0.039
 3002TIP3    H2 8952   6.995   1.794  -0.031
 3003TIP3   OH2 8953   7.396   1.126   2.582
 3003TIP3    H1 8954   7.333   1.183   2.539
 3003TIP3    H2 8955   7.453   1.096   2.511
 3004TIP3   OH2 8956   2.294   7.079   2.388
 3004TIP3    H1 8957   2.274   6.990   2.358
 3004TIP3    H2 8958   2.303   7.129   2.307
 3005TIP3   OH2 8959   3.885   1.313   4.731
 3005TIP3    H1 8960   3.874   1.403   4.699
 3005TIP3    H2 8961   3.828   1.261   4.676
 3006TIP3   OH2 8962   5.732   6.930   6.494
 3006TIP3    H1 8963   5.724   7.007   6.551
 3006TIP3    H2 8964   5.656   6.876   6.515
 3007TIP3   OH2 8965   7.250   5.352   1.550
 3007TIP3    H1 8966   7.293   5.402   1.481
 3007TIP3    H2 8967   7.298   5.375   1.629
 3008TIP3   OH2 8968   7.996   1.503   3.750
 3008TIP3    H1 8969   8.036   1.547   3.675
 3008TIP3    H2 8970   7.949   1.572   3.796
 3009TIP3   OH2 8971   1.087   3.231   1.852
 3009TIP3    H1 8972   1.021   3.294   1.823
 3009TIP3    H2 8973   1.091   3.165   1.783
 3010TIP3   OH2 8974   0.648   1.645   5.600
 3010TIP3    H1 8975   0.638   1.730   5.642
 3010TIP3    H2 8976   0.728   1.653   5.548
 3011TIP3   OH2 8977   7.708   2.548   1.533
 3011TIP3    H1 8978   7.716   2.456   1.557
 3011TIP3    H2 8979   7.618   2.572   1.556
 3012TIP3   OH2 8980   0.256   3.623   5.943
 3012TIP3    H1 8981   0.238   3.713   5.968
 3012TIP3    H2 8982   0.179   3.574   5.974
 3013TIP3   OH2 8983   6.808   1.413   2.833
 3013TIP3    H1 8984   6.830   1.387   2.923
 3013TIP3    H2 8985   6.805   1.508   2.835
 3014TIP3   OH2 8986   1.035   1.287   0.666
 3014TIP3    H1 8987   0.986   1.207   0.681
 3014TIP3    H2 8988   1.099   1.289   0.737
 3015TIP3   OH2 8989   6.468   0.845   1.671
 3015TIP3    H1 8990   6.515   0.761   1.672
 3015TIP3    H2 8991   6.531   0.907   1.708
 3016TIP3   OH2 8992   2.178   1.521   0.766
 3016TIP3    H1 8993   2.235   1.460   0.719
 3016TIP3    H2 8994   2.231   1.600   0.778
 3017TIP3   OH2 8995   7.208   6.959   1.224
 3017TIP3    H1 8996   7.288   6.991   1.180
 3017TIP3    H2 8997   7.226   6.970   1.317
 3018TIP3   OH2 8998   6.999   4.151   4.750
 3018TIP3    H1 8999   6.971   4.073   4.797
 3018TIP3    H2 9000   7.085   4.172   4.785
 3019TIP3   OH2 9001   5.211   3.046   3.635
 3019TIP3    H1 9002   5.177   2.959   3.614
 3019TIP3    H2 9003   5.305   3.040   3.616
 3020TIP3   OH2 9004   2.866   6.660   1.636
 3020TIP3    H1 9005   2.955   6.659   1.671
 3020TIP3    H2 9006   2.865   6.587   1.573
 3021TIP3   OH2 9007   2.831   7.362   5.059
 3021TIP3    H1 9008   2.795   7.378   5.146
 3021TIP3    H2 9009   2.919   7.400   5.061
 3022TIP3   OH2 9010   5.240   5.600   5.518
 3022TIP3    H1 9011   5.188   5.598   5.437
 3022TIP3    H2 9012   5.193   5.660   5.575
 3023TIP3   OH2 9013   2.847   1.652   6.397
 3023TIP3    H1 9014   2.876   1.677   6.485
 3023TIP3    H2 9015   2.928   1.637   6.348
 3024TIP3   OH2 9016   3.104   2.132   4.678
 3024TIP3    H1 9017   3.102   2.052   4.730
 3024TIP3    H2 9018   3.014   2.144   4.648
 3025TIP3   OH2 9019   1.823   2.967   5.372
 3025TIP3    H1 9020   1.803   2.903   5.440
 3025TIP3    H2 9021   1.828   3.051   5.418
 3026TIP3   OH2 9022   2.061   3.478   3.825
 3026TIP3    H1 9023   2.009   3.492   3.746
 3026TIP3    H2 9024   2.057   3.561   3.871
 3027TIP3   OH2 9025   3.998   5.590   3.893
 3027TIP3    H1 9026   3.979   5.500   3.919
 3027TIP3    H2 9027   3.953   5.601   3.809
 3028TIP3   OH2 9028   3.140   4.872   4.694
 3028TIP3    H1 9029   3.216   4.913   4.736
 3028TIP3    H2 9030   3.173   4.789   4.659
 3029TIP3   OH2 9031   5.025   6.276   6.564
 3029TIP3    H1 9032   4.933   6.250   6.569
 3029TIP3    H2 9033   5.026   6.352   6.506
 3030TIP3   OH2 9034   0.242   0.250   1.109
 3030TIP3    H1 9035   0.207   0.339   1.094
 3030TIP3    H2 9036   0.164   0.194   1.107
 3031TIP3   OH2 9037   2.143   3.794   2.048
 3031TIP3    H1 9038   2.111   3.764   2.133
 3031TIP3    H2 9039   2.100   3.737   1.985
 3032TIP3   OH2 9040   4.992   2.202   3.608
 3032TIP3    H1 9041   5.031   2.282   3.574
 3032TIP3    H2 9042   4.973   2.150   3.530
 3033TIP3   OH2 9043   2.723   0.576   5.072
 3033TIP3    H1 9044   2.751   0.587   4.982
 3033TIP3    H2 9045   2.634   0.610   5.074
 3034TIP3   OH2 9046   3.189   0.755   6.528
 3034TIP3    H1 9047   3.144   0.672   6.512
 3034TIP3    H2 9048   3.278   0.740   6.498
 3035TIP3   OH2 9049   5.678   1.540   4.173
 3035TIP3    H1 9050   5.647   1.449   4.178
 3035TIP3    H2 9051   5.741   1.539   4.102
 3036TIP3   OH2 9052   6.609   0.614   1.690
 3036TIP3    H1 9053   6.692   0.578   1.720
 3036TIP3    H2 9054   6.542   0.561   1.733
 3037TIP3   OH2 9055   7.593   1.678   2.712
 3037TIP3    H1 9056   7.668   1.706   2.764
 3037TIP3    H2 9057   7.520   1.678   2.774
 3038TIP3   OH2 9058   6.332   5.602   1.344
 3038TIP3    H1 9059   6.267   5.625   1.278
 3038TIP3    H2 9060   6.306   5.654   1.421
 3039TIP3   OH2 9061   6.410   2.587   0.490
 3039TIP3    H1 9062   6.333   2.606   0.543
 3039TIP3    H2 9063   6.463   2.666   0.496
 3040TIP3   OH2 9064   4.191   3.785   4.300
 3040TIP3    H1 9065   4.242   3.755   4.376
 3040TIP3    H2 9066   4.101   3.757   4.319
 3041TIP3   OH2 9067   4.660   6.460   4.303
 3041TIP3    H1 9068   4.724   6.443   4.234
 3041TIP3    H2 9069   4.583   6.495   4.257
 3042TIP3   OH2 9070   1.092   6.805   4.523
 3042TIP3    H1 9071   1.004   6.774   4.546
 3042TIP3    H2 9072   1.150   6.733   4.545
 3043TIP3   OH2 9073   4.191   2.273   1.045
 3043TIP3    H1 9074   4.111   2.261   0.994
 3043TIP3    H2 9075   4.231   2.186   1.047
 3044TIP3   OH2 9076   1.091   3.666   4.038
 3044TIP3    H1 9077   1.103   3.665   3.943
 3044TIP3    H2 9078   1.172   3.630   4.073
 3045TIP3   OH2 9079   2.867   2.135   0.799
 3045TIP3    H1 9080   2.934   2.203   0.794
 3045TIP3    H2 9081   2.786   2.182   0.820
 3046TIP3   OH2 9082   1.815   3.249   1.213
 3046TIP3    H1 9083   1.809   3.226   1.306
 3046TIP3    H2 9084   1.900   3.293   1.205
 3047TIP3   OH2 9085   1.707   2.615   1.003
 3047TIP3    H1 9086   1.708   2.532   0.956
 3047TIP3    H2 9087   1.638   2.666   0.960
 3048TIP3   OH2 9088   1.195   7.732   3.969
 3048TIP3    H1 9089   1.195   7.638   3.989
 3048TIP3    H2 9090   1.114   7.765   4.006
 3049TIP3   OH2 9091   3.279   5.880   5.642
 3049TIP3    H1 9092   3.344   5.948   5.625
 3049TIP3    H2 9093   3.224   5.880   5.563
 3050TIP3   OH2 9094   4.535   0.431   3.266
 3050TIP3    H1 9095   4.571   0.517   3.289
 3050TIP3    H2 9096   4.611   0.377   3.246
 3051TIP3   OH2 9097   3.357   3.015   6.552
 3051TIP3    H1 9098   3.329   2.935   6.507
 3051TIP3    H2 9099   3.402   3.066   6.484
 3052TIP3   OH2 9100   7.017   6.331   2.870
 3052TIP3    H1 9101   6.935   6.370   2.899
 3052TIP3    H2 9102   6.991   6.252   2.822
 3053TIP3   OH2 9103   7.785   7.199   0.292
 3053TIP3    H1 9104   7.842   7.140   0.341
 3053TIP3    H2 9105   7.845   7.260   0.249
 3054TIP3   OH2 9106   3.572   2.712   6.007
 3054TIP3    H1 9107   3.563   2.665   5.924
 3054TIP3    H2 9108   3.544   2.649   6.074
 3055TIP3   OH2 9109   6.332   2.955   3.512
 3055TIP3    H1 9110   6.394   2.931   3.580
 3055TIP3    H2 9111   6.343   2.888   3.444
 3056TIP3   OH2 9112   5.198   1.822   3.874
 3056TIP3    H1 9113   5.197   1.824   3.970
 3056TIP3    H2 9114   5.159   1.906   3.849
 3057TIP3   OH2 9115   3.063   7.796   2.261
 3057TIP3    H1 9116   3.051   7.744   2.340
 3057TIP3    H2 9117   3.102   7.735   2.198
 3058TIP3   OH2 9118   2.641   1.806   5.521
 3058TIP3    H1 9119   2.571   1.745   5.546
 3058TIP3    H2 9120   2.611   1.846   5.440
 3059TIP3   OH2 9121   1.319   5.720   0.339
 3059TIP3    H1 9122   1.291   5.665   0.266
 3059TIP3    H2 9123   1.284   5.675   0.417
 3060TIP3   OH2 9124   2.747   5.895   1.112
 3060TIP3    H1 9125   2.776   5.808   1.084
 3060TIP3    H2 9126   2.805   5.955   1.066
 3061TIP3   OH2 9127   4.374   4.428   0.533
 3061TIP3    H1 9128   4.449   4.371   0.550
 3061TIP3    H2 9129   4.408   4.495   0.474
 3062TIP3   OH2 9130   6.309   0.426   2.892
 3062TIP3    H1 9131   6.307   0.404   2.985
 3062TIP3    H2 9132   6.341   0.346   2.849
 3063TIP3   OH2 9133   7.352   5.955   0.343
 3063TIP3    H1 9134   7.399   5.922   0.419
 3063TIP3    H2 9135   7.280   5.893   0.330
 3064TIP3   OH2 9136   0.039   7.764   1.128
 3064TIP3    H1 9137   0.041   7.856   1.102
 3064TIP3    H2 9138   0.072   7.716   1.052
 3065TIP3   OH2 9139   4.951   7.198   5.042
 3065TIP3    H1 9140   4.895   7.160   4.975
 3065TIP3    H2 9141   4.979   7.124   5.096
 3066TIP3   OH2 9142   5.872   2.881   2.452
 3066TIP3    H1 9143   5.906   2.853   2.367
 3066TIP3    H2 9144   5.777   2.870   2.445
 3067TIP3   OH2 9145   2.693   2.393   3.794
 3067TIP3    H1 9146   2.703   2.473   3.743
 3067TIP3    H2 9147   2.761   2.335   3.761
 3068TIP3   OH2 9148   7.960   3.440   5.647
 3068TIP3    H1 9149   7.955   3.357   5.695
 3068TIP3    H2 9150   8.036   3.430   5.590
 3069TIP3   OH2 9151   2.836   1.294   1.043
 3069TIP3    H1 9152   2.806   1.218   0.992
 3069TIP3    H2 9153   2.896   1.340   0.985
 3070TIP3   OH2 9154   4.650   0.828   5.811
 3070TIP3    H1 9155   4.555   0.830   5.822
 3070TIP3    H2 9156   4.681   0.771   5.881
 3071TIP3   OH2 9157   5.290   5.338   5.887
 3071TIP3    H1 9158   5.317   5.356   5.797
 3071TIP3    H2 9159   5.196   5.352   5.888
 3072TIP3   OH2 9160   6.973   4.271   2.088
 3072TIP3    H1 9161   6.955   4.188   2.044
 3072TIP3    H2 9162   6.939   4.338   2.028
 3073TIP3   OH2 9163   3.029   3.400   0.151
 3073TIP3    H1 9164   3.017   3.306   0.158
 3073TIP3    H2 9165   2.972   3.437   0.218
 3074TIP3   OH2 9166   1.419   7.259   0.441
 3074TIP3    H1 9167   1.512   7.249   0.423
 3074TIP3    H2 9168   1.375   7.218   0.366
 3075TIP3   OH2 9169   5.719   0.761   4.380
 3075TIP3    H1 9170   5.761   0.758   4.294
 3075TIP3    H2 9171   5.782   0.809   4.435
 3076TIP3   OH2 9172   6.130   5.453   5.283
 3076TIP3    H1 9173   6.048   5.476   5.326
 3076TIP3    H2 9174   6.187   5.528   5.300
 3077TIP3   OH2 9175   7.816   7.265   1.610
 3077TIP3    H1 9176   7.756   7.340   1.615
 3077TIP3    H2 9177   7.836   7.243   1.701
 3078TIP3   OH2 9178   3.937   6.994   4.369
 3078TIP3    H1 9179   3.910   6.903   4.374
 3078TIP3    H2 9180   3.870   7.036   4.315
 3079TIP3   OH2 9181   3.352   1.382   4.227
 3079TIP3    H1 9182   3.413   1.361   4.298
 3079TIP3    H2 9183   3.366   1.313   4.162
 3080TIP3   OH2 9184   1.638   4.862   0.935
 3080TIP3    H1 9185   1.657   4.955   0.924
 3080TIP3    H2 9186   1.543   4.856   0.934
 3081TIP3   OH2 9187   2.919   4.941   0.415
 3081TIP3    H1 9188   2.939   4.891   0.494
 3081TIP3    H2 9189   2.856   5.007   0.444
 3082TIP3   OH2 9190   2.248   2.468   1.688
 3082TIP3    H1 9191   2.295   2.549   1.710
 3082TIP3    H2 9192   2.259   2.459   1.594
 3083TIP3   OH2 9193   7.067   5.474   5.704
 3083TIP3    H1 9194   7.025   5.560   5.706
 3083TIP3    H2 9195   7.037   5.435   5.623
 3084TIP3   OH2 9196   5.822   5.685   4.867
 3084TIP3    H1 9197   5.779   5.724   4.791
 3084TIP3    H2 9198   5.762   5.703   4.939
 3085TIP3   OH2 9199   6.612   3.465   0.677
 3085TIP3    H1 9200   6.658   3.549   0.674
 3085TIP3    H2 9201   6.562   3.468   0.759
 3086TIP3   OH2 9202   0.533   3.536   3.509
 3086TIP3    H1 9203   0.541   3.555   3.603
 3086TIP3    H2 9204   0.584   3.606   3.467
 3087TIP3   OH2 9205   4.225   0.356   0.026
 3087TIP3    H1 9206   4.309   0.315   0.045
 3087TIP3    H2 9207   4.203   0.327  -0.062
 3088TIP3   OH2 9208   7.141   5.470   3.272
 3088TIP3    H1 9209   7.086   5.395   3.296
 3088TIP3    H2 9210   7.188   5.491   3.353
 3089TIP3   OH2 9211   2.410   6.477   6.204
 3089TIP3    H1 9212   2.500   6.502   6.222
 3089TIP3    H2 9213   2.368   6.557   6.172
 3090TIP3   OH2 9214   3.965   0.703   2.819
 3090TIP3    H1 9215   3.917   0.776   2.780
 3090TIP3    H2 9216   4.051   0.738   2.839
 3091TIP3   OH2 9217   0.017   1.305   1.490
 3091TIP3    H1 9218   0.068   1.376   1.528
 3091TIP3    H2 9219   0.038   1.308   1.397
 3092TIP3   OH2 9220   1.187   7.023   6.284
 3092TIP3    H1 9221   1.234   7.091   6.237
 3092TIP3    H2 9222   1.243   7.004   6.360
 3093TIP3   OH2 9223   1.637   0.376   4.907
 3093TIP3    H1 9224   1.691   0.303   4.937
 3093TIP3    H2 9225   1.578   0.337   4.842
 3094TIP3   OH2 9226   0.045   6.594   0.655
 3094TIP3    H1 9227   0.068   6.687   0.657
 3094TIP3    H2 9228  -0.025   6.589   0.590
 3095TIP3   OH2 9229   3.986   1.853   4.595
 3095TIP3    H1 9230   3.974   1.836   4.501
 3095TIP3    H2 9231   3.897   1.855   4.630
 3096TIP3   OH2 9232   1.375   5.612   4.980
 3096TIP3    H1 9233   1.351   5.618   5.072
 3096TIP3    H2 9234   1.457   5.563   4.979
 3097TIP3   OH2 9235   2.381   1.851   3.653
 3097TIP3    H1 9236   2.367   1.772   3.705
 3097TIP3    H2 9237   2.432   1.908   3.710
 3098TIP3   OH2 9238   1.350   2.249   3.392
 3098TIP3    H1 9239   1.295   2.278   3.319
 3098TIP3    H2 9240   1.418   2.195   3.351
 3099TIP3   OH2 9241   7.046   0.031   6.079
 3099TIP3    H1 9242   7.097   0.079   6.014
 3099TIP3    H2 9243   6.968   0.084   6.092
 3100TIP3   OH2 9244   5.561   5.486   2.119
 3100TIP3    H1 9245   5.511   5.407   2.141
 3100TIP3    H2 9246   5.531   5.552   2.182
 3101TIP3   OH2 9247   4.831   0.111   3.843
 3101TIP3    H1 9248   4.871   0.131   3.759
 3101TIP3    H2 9249   4.830   0.015   3.846
 3102TIP3   OH2 9250   7.740   0.066   3.080
 3102TIP3    H1 9251   7.695   0.064   3.165
 3102TIP3    H2 9252   7.689   0.007   3.025
 3103TIP3   OH2 9253   1.152   4.119   4.549
 3103TIP3    H1 9254   1.062   4.149   4.558
 3103TIP3    H2 9255   1.194   4.145   4.631
 3104TIP3   OH2 9256   7.587   0.004   3.281
 3104TIP3    H1 9257   7.498   0.013   3.314
 3104TIP3    H2 9258   7.579  -0.057   3.207
 3105TIP3   OH2 9259   1.440   5.340   6.752
 3105TIP3    H1 9260   1.534   5.357   6.743
 3105TIP3    H2 9261   1.436   5.248   6.779
 3106TIP3   OH2 9262   4.798   6.287   2.661
 3106TIP3    H1 9263   4.782   6.193   2.667
 3106TIP3    H2 9264   4.892   6.297   2.674
 3107TIP3   OH2 9265   0.927   6.538   2.902
 3107TIP3    H1 9266   0.920   6.612   2.841
 3107TIP3    H2 9267   0.849   6.486   2.885
 3108TIP3   OH2 9268   3.277   4.055   5.717
 3108TIP3    H1 9269   3.266   3.987   5.783
 3108TIP3    H2 9270   3.299   4.007   5.637
 3109TIP3   OH2 9271   5.387   4.392   1.399
 3109TIP3    H1 9272   5.482   4.399   1.410
 3109TIP3    H2 9273   5.355   4.481   1.413
 3110TIP3   OH2 9274   5.958   3.956   5.207
 3110TIP3    H1 9275   5.991   3.984   5.293
 3110TIP3    H2 9276   5.888   3.894   5.227
 3111TIP3   OH2 9277   6.317   4.307   1.666
 3111TIP3    H1 9278   6.375   4.249   1.616
 3111TIP3    H2 9279   6.282   4.251   1.735
 3112TIP3   OH2 9280   6.262   3.590   1.872
 3112TIP3    H1 9281   6.321   3.641   1.816
 3112TIP3    H2 9282   6.178   3.635   1.865
 3113TIP3   OH2 9283   5.489   7.675   1.916
 3113TIP3    H1 9284   5.428   7.622   1.968
 3113TIP3    H2 9285   5.576   7.641   1.938
 3114TIP3   OH2 9286   1.741   3.867   0.018
 3114TIP3    H1 9287   1.770   3.930  -0.047
 3114TIP3    H2 9288   1.810   3.800   0.018
 3115TIP3   OH2 9289   4.122   6.309   2.989
 3115TIP3    H1 9290   4.197   6.259   3.022
 3115TIP3    H2 9291   4.145   6.329   2.898
 3116TIP3   OH2 9292   7.019   0.720   4.681
 3116TIP3    H1 9293   7.022   0.638   4.630
 3116TIP3    H2 9294   6.971   0.780   4.625
 3117TIP3   OH2 9295   6.988   5.602   1.495
 3117TIP3    H1 9296   7.080   5.597   1.522
 3117TIP3    H2 9297   6.981   5.685   1.449
 3118TIP3   OH2 9298   0.016   1.407   5.332
 3118TIP3    H1 9299  -0.053   1.463   5.364
 3118TIP3    H2 9300   0.070   1.388   5.408
 3119TIP3   OH2 9301   2.395   7.203   5.858
 3119TIP3    H1 9302   2.361   7.272   5.916
 3119TIP3    H2 9303   2.359   7.224   5.772
 3120TIP3   OH2 9304   5.654   4.146   2.084
 3120TIP3    H1 9305   5.587   4.214   2.076
 3120TIP3    H2 9306   5.730   4.192   2.119
 3121TIP3   OH2 9307   4.951   3.906   4.144
 3121TIP3    H1 9308   5.035   3.869   4.175
 3121TIP3    H2 9309   4.888   3.879   4.211
 3122TIP3   OH2 9310   6.598   7.661   3.330
 3122TIP3    H1 9311   6.564   7.706   3.407
 3122TIP3    H2 9312   6.524   7.610   3.297
 3123TIP3   OH2 9313   3.900   3.393   2.159
 3123TIP3    H1 9314   3.880   3.461   2.223
 3123TIP3    H2 9315   3.814   3.360   2.131
 3124TIP3   OH2 9316   1.462   5.002   0.445
 3124TIP3    H1 9317   1.435   5.020   0.535
 3124TIP3    H2 9318   1.492   4.912   0.446
 3125TIP3   OH2 9319   4.601   4.254   3.734
 3125TIP3    H1 9320   4.650   4.177   3.702
 3125TIP3    H2 9321   4.544   4.278   3.661
 3126TIP3   OH2 9322   4.806   1.658   3.417
 3126TIP3    H1 9323   4.810   1.612   3.501
 3126TIP3    H2 9324   4.814   1.589   3.351
 3127TIP3   OH2 9325   4.983   0.651   1.343
 3127TIP3    H1 9326   4.918   0.637   1.274
 3127TIP3    H2 9327   4.948   0.604   1.418
 3128TIP3   OH2 9328   0.574   4.815   4.699
 3128TIP3    H1 9329   0.549   4.840   4.610
 3128TIP3    H2 9330   0.532   4.880   4.755
 3129TIP3   OH2 9331   2.149   0.028   4.747
 3129TIP3    H1 9332   2.235   0.071   4.747
 3129TIP3    H2 9333   2.168  -0.065   4.742
 3130TIP3   OH2 9334   8.096   1.569   5.395
 3130TIP3    H1 9335   8.097   1.603   5.484
 3130TIP3    H2 9336   8.026   1.503   5.395
 3131TIP3   OH2 9337   6.627   2.836   2.352
 3131TIP3    H1 9338   6.687   2.830   2.277
 3131TIP3    H2 9339   6.580   2.918   2.338
 3132TIP3   OH2 9340   2.085   6.946   5.697
 3132TIP3    H1 9341   2.082   7.041   5.704
 3132TIP3    H2 9342   2.061   6.915   5.785
 3133TIP3   OH2 9343   1.295   5.483   6.565
 3133TIP3    H1 9344   1.363   5.541   6.532
 3133TIP3    H2 9345   1.333   5.441   6.642
 3134TIP3   OH2 9346   5.349   2.859   6.273
 3134TIP3    H1 9347   5.332   2.938   6.221
 3134TIP3    H2 9348   5.424   2.817   6.230
 3135TIP3   OH2 9349   6.317   4.972   3.856
 3135TIP3    H1 9350   6.384   5.025   3.901
 3135TIP3    H2 9351   6.293   4.904   3.919
 3136TIP3   OH2 9352   6.865   4.183   5.256
 3136TIP3    H1 9353   6.932   4.207   5.319
 3136TIP3    H2 9354   6.911   4.178   5.172
 3137TIP3   OH2 9355   3.830   5.405   6.531
 3137TIP3    H1 9356   3.754   5.394   6.474
 3137TIP3    H2 9357   3.877   5.322   6.524
 3138TIP3   OH2 9358   0.914   3.744   3.327
 3138TIP3    H1 9359   0.908   3.717   3.236
 3138TIP3    H2 9360   0.824   3.751   3.357
 3139TIP3   OH2 9361   0.880   0.612   3.715
 3139TIP3    H1 9362   0.863   0.569   3.632
 3139TIP3    H2 9363   0.967   0.581   3.742
 3140TIP3   OH2 9364   1.517   6.274   2.039
 3140TIP3    H1 9365   1.513   6.363   2.005
 3140TIP3    H2 9366   1.610   6.258   2.055
 3141TIP3   OH2 9367   1.501   3.959   2.425
 3141TIP3    H1 9368   1.576   3.969   2.368
 3141TIP3    H2 9369   1.493   4.044   2.470
 3142TIP3   OH2 9370   0.211   6.175   2.472
 3142TIP3    H1 9371   0.245   6.121   2.401
 3142TIP3    H2 9372   0.279   6.172   2.539
 3143TIP3   OH2 9373   7.298   7.538   5.533
 3143TIP3    H1 9374   7.271   7.467   5.590
 3143TIP3    H2 9375   7.258   7.616   5.572
 3144TIP3   OH2 9376   5.089   0.530   3.230
 3144TIP3    H1 9377   5.060   0.454   3.180
 3144TIP3    H2 9378   5.179   0.509   3.256
 3145TIP3   OH2 9379   3.168   1.516   0.395
 3145TIP3    H1 9380   3.121   1.539   0.475
 3145TIP3    H2 9381   3.260   1.517   0.420
 3146TIP3   OH2 9382   0.335   6.233   4.173
 3146TIP3    H1 9383   0.245   6.230   4.206
 3146TIP3    H2 9384   0.384   6.179   4.235
 3147TIP3   OH2 9385   2.936   6.035   5.018
 3147TIP3    H1 9386   2.872   5.996   4.960
 3147TIP3    H2 9387   3.014   6.046   4.964
 3148TIP3   OH2 9388   7.216   4.673   3.207
 3148TIP3    H1 9389   7.179   4.759   3.225
 3148TIP3    H2 9390   7.236   4.637   3.294
 3149TIP3   OH2 9391   7.271   4.132   6.504
 3149TIP3    H1 9392   7.310   4.122   6.590
 3149TIP3    H2 9393   7.341   4.111   6.443
 3150TIP3   OH2 9394   4.437   6.005   5.040
 3150TIP3    H1 9395   4.394   5.936   4.989
 3150TIP3    H2 9396   4.364   6.054   5.079
 3151TIP3   OH2 9397   0.673   3.575   0.053
 3151TIP3    H1 9398   0.729   3.605  -0.018
 3151TIP3    H2 9399   0.645   3.487   0.027
 3152TIP3   OH2 9400   6.621   3.087   1.251
 3152TIP3    H1 9401   6.608   2.993   1.264
 3152TIP3    H2 9402   6.610   3.125   1.338
 3153TIP3   OH2 9403   3.706   2.736   2.451
 3153TIP3    H1 9404   3.617   2.769   2.464
 3153TIP3    H2 9405   3.732   2.770   2.365
 3154TIP3   OH2 9406   5.986   5.694   6.476
 3154TIP3    H1 9407   5.903   5.742   6.487
 3154TIP3    H2 9408   6.019   5.683   6.565
 3155TIP3   OH2 9409   4.498   4.992   0.817
 3155TIP3    H1 9410   4.489   4.898   0.800
 3155TIP3    H2 9411   4.504   4.999   0.912
 3156TIP3   OH2 9412   1.574   7.174   1.926
 3156TIP3    H1 9413   1.575   7.260   1.969
 3156TIP3    H2 9414   1.509   7.124   1.974
 3157TIP3   OH2 9415   7.428   7.137   2.518
 3157TIP3    H1 9416   7.348   7.171   2.478
 3157TIP3    H2 9417   7.404   7.120   2.609
 3158TIP3   OH2 9418   0.938   1.549   0.018
 3158TIP3    H1 9419   0.904   1.460   0.028
 3158TIP3    H2 9420   0.884   1.587  -0.052
 3159TIP3   OH2 9421   7.759   7.779   0.337
 3159TIP3    H1 9422   7.727   7.689   0.326
 3159TIP3    H2 9423   7.809   7.796   0.257
 3160TIP3   OH2 9424   6.165   4.108   0.629
 3160TIP3    H1 9425   6.097   4.056   0.587
 3160TIP3    H2 9426   6.241   4.051   0.632
 3161TIP3   OH2 9427   1.769   1.607   2.192
 3161TIP3    H1 9428   1.851   1.617   2.241
 3161TIP3    H2 9429   1.711   1.674   2.228
 3162TIP3   OH2 9430   1.186   1.274   3.312
 3162TIP3    H1 9431   1.165   1.323   3.391
 3162TIP3    H2 9432   1.116   1.209   3.305
 3163TIP3   OH2 9433   4.014   5.734   6.056
 3163TIP3    H1 9434   3.999   5.822   6.089
 3163TIP3    H2 9435   4.057   5.688   6.128
 3164TIP3   OH2 9436   2.099   6.845   1.663
 3164TIP3    H1 9437   2.160   6.917   1.651
 3164TIP3    H2 9438   2.080   6.815   1.574
 3165TIP3   OH2 9439   0.545   5.639   6.631
 3165TIP3    H1 9440   0.635   5.654   6.602
 3165TIP3    H2 9441   0.495   5.630   6.549
 3166TIP3   OH2 9442   0.805   5.641   5.313
 3166TIP3    H1 9443   0.802   5.573   5.381
 3166TIP3    H2 9444   0.897   5.644   5.286
 3167TIP3   OH2 9445   7.393   2.047   3.657
 3167TIP3    H1 9446   7.430   2.105   3.724
 3167TIP3    H2 9447   7.464   2.036   3.594
 3168TIP3   OH2 9448   1.893   6.262   4.166
 3168TIP3    H1 9449   1.900   6.186   4.225
 3168TIP3    H2 9450   1.951   6.241   4.093
 3169TIP3   OH2 9451   0.237   4.544   2.991
 3169TIP3    H1 9452   0.156   4.492   2.992
 3169TIP3    H2 9453   0.214   4.626   3.035
 3170TIP3   OH2 9454   5.816   4.293   4.716
 3170TIP3    H1 9455   5.778   4.296   4.804
 3170TIP3    H2 9456   5.764   4.355   4.665
 3171TIP3   OH2 9457   4.371   7.245   3.529
 3171TIP3    H1 9458   4.464   7.224   3.530
 3171TIP3    H2 9459   4.338   7.209   3.611
 3172TIP3   OH2 9460   3.042   5.151   4.200
 3172TIP3    H1 9461   3.018   5.101   4.277
 3172TIP3    H2 9462   3.111   5.099   4.157
 3173TIP3   OH2 9463   7.128   3.774   0.785
 3173TIP3    H1 9464   7.124   3.857   0.832
 3173TIP3    H2 9465   7.126   3.707   0.853
 3174TIP3   OH2 9466   5.391   3.290   1.488
 3174TIP3    H1 9467   5.423   3.293   1.578
 3174TIP3    H2 9468   5.301   3.257   1.495
 3175TIP3   OH2 9469   3.754   2.318   3.036
 3175TIP3    H1 9470   3.743   2.225   3.018
 3175TIP3    H2 9471   3.677   2.342   3.087
 3176TIP3   OH2 9472   6.406   0.322   6.030
 3176TIP3    H1 9473   6.438   0.236   6.003
 3176TIP3    H2 9474   6.434   0.330   6.121
 3177TIP3   OH2 9475   2.559   5.712   3.394
 3177TIP3    H1 9476   2.622   5.652   3.436
 3177TIP3    H2 9477   2.475   5.688   3.433
 3178TIP3   OH2 9478   7.225   7.395   3.553
 3178TIP3    H1 9479   7.241   7.332   3.483
 3178TIP3    H2 9480   7.304   7.391   3.607
 3179TIP3   OH2 9481   4.427   0.645   1.799
 3179TIP3    H1 9482   4.436   0.713   1.733
 3179TIP3    H2 9483   4.407   0.566   1.750
 3180TIP3   OH2 9484   3.778   3.371   1.386
 3180TIP3    H1 9485   3.859   3.421   1.379
 3180TIP3    H2 9486   3.755   3.350   1.295
 3181TIP3   OH2 9487   2.177   7.454   2.473
 3181TIP3    H1 9488   2.118   7.442   2.399
 3181TIP3    H2 9489   2.229   7.531   2.450
 3182TIP3   OH2 9490   4.328   3.496   1.844
 3182TIP3    H1 9491   4.389   3.423   1.844
 3182TIP3    H2 9492   4.243   3.458   1.867
 3183TIP3   OH2 9493   1.662   5.488   4.405
 3183TIP3    H1 9494   1.675   5.471   4.312
 3183TIP3    H2 9495   1.642   5.402   4.442
 3184TIP3   OH2 9496   3.298   6.035   1.138
 3184TIP3    H1 9497   3.366   6.103   1.143
 3184TIP3    H2 9498   3.344   5.956   1.112
 3185TIP3   OH2 9499   7.827   4.774   0.260
 3185TIP3    H1 9500   7.736   4.800   0.275
 3185TIP3    H2 9501   7.878   4.851   0.282
 3186TIP3   OH2 9502   5.893   0.944   2.267
 3186TIP3    H1 9503   5.987   0.965   2.263
 3186TIP3    H2 9504   5.850   1.029   2.269
 3187TIP3   OH2 9505   4.763   4.268   3.996
 3187TIP3    H1 9506   4.674   4.231   3.999
 3187TIP3    H2 9507   4.781   4.276   3.902
 3188TIP3   OH2 9508   3.298   4.390   0.703
 3188TIP3    H1 9509   3.368   4.445   0.667
 3188TIP3    H2 9510   3.314   4.304   0.666
 3189TIP3   OH2 9511   7.182   2.061   1.967
 3189TIP3    H1 9512   7.269   2.030   1.944
 3189TIP3    H2 9513   7.195   2.153   1.992
 3190TIP3   OH2 9514   7.341   6.183   4.820
 3190TIP3    H1 9515   7.345   6.228   4.736
 3190TIP3    H2 9516   7.419   6.214   4.867
 3191TIP3   OH2 9517   7.896   3.998   2.646
 3191TIP3    H1 9518   7.950   4.057   2.594
 3191TIP3    H2 9519   7.813   4.045   2.657
 3192TIP3   OH2 9520   1.975   2.097   1.859
 3192TIP3    H1 9521   2.058   2.124   1.819
 3192TIP3    H2 9522   1.951   2.170   1.915
 3193TIP3   OH2 9523   7.590   3.379   4.909
 3193TIP3    H1 9524   7.520   3.343   4.855
 3193TIP3    H2 9525   7.564   3.358   4.999
 3194TIP3   OH2 9526   4.816   1.457   5.639
 3194TIP3    H1 9527   4.726   1.434   5.663
 3194TIP3    H2 9528   4.815   1.461   5.544
 3195TIP3   OH2 9529   0.180   5.486   3.765
 3195TIP3    H1 9530   0.208   5.433   3.690
 3195TIP3    H2 9531   0.102   5.442   3.798
 3196TIP3   OH2 9532   7.402   6.762   5.755
 3196TIP3    H1 9533   7.310   6.770   5.729
 3196TIP3    H2 9534   7.443   6.843   5.723
 3197TIP3   OH2 9535   2.829   5.551   1.789
 3197TIP3    H1 9536   2.779   5.594   1.720
 3197TIP3    H2 9537   2.827   5.458   1.766
 3198TIP3   OH2 9538   6.727   4.333   2.328
 3198TIP3    H1 9539   6.745   4.274   2.401
 3198TIP3    H2 9540   6.811   4.375   2.310
 3199TIP3   OH2 9541   1.768   0.984   1.264
 3199TIP3    H1 9542   1.774   1.070   1.306
 3199TIP3    H2 9543   1.688   0.988   1.212
 3200TIP3   OH2 9544   1.382   6.394   6.331
 3200TIP3    H1 9545   1.360   6.440   6.412
 3200TIP3    H2 9546   1.338   6.444   6.262
 3201TIP3   OH2 9547   0.146   5.449   5.477
 3201TIP3    H1 9548   0.112   5.434   5.566
 3201TIP3    H2 9549   0.232   5.490   5.491
 3202TIP3   OH2 9550   1.215   3.979   1.847
 3202TIP3    H1 9551   1.149   3.923   1.807
 3202TIP3    H2 9552   1.251   3.926   1.919
 3203TIP3   OH2 9553   2.941   5.844   5.809
 3203TIP3    H1 9554   2.867   5.822   5.867
 3203TIP3    H2 9555   3.001   5.894   5.864
 3204TIP3   OH2 9556   1.630   0.838   5.951
 3204TIP3    H1 9557   1.556   0.891   5.981
 3204TIP3    H2 9558   1.599   0.796   5.871
 3205TIP3   OH2 9559   2.196   0.803   1.575
 3205TIP3    H1 9560   2.111   0.761   1.582
 3205TIP3    H2 9561   2.245   0.748   1.514
 3206TIP3   OH2 9562   2.079   3.722   4.319
 3206TIP3    H1 9563   2.164   3.680   4.335
 3206TIP3    H2 9564   2.101   3.798   4.265
 3207TIP3   OH2 9565   4.817   0.836   1.621
 3207TIP3    H1 9566   4.787   0.847   1.531
 3207TIP3    H2 9567   4.906   0.871   1.621
 3208TIP3   OH2 9568   3.116   4.657   2.964
 3208TIP3    H1 9569   3.111   4.739   3.012
 3208TIP3    H2 9570   3.140   4.683   2.875
 3209TIP3   OH2 9571   5.426   0.395   6.091
 3209TIP3    H1 9572   5.508   0.420   6.050
 3209TIP3    H2 9573   5.364   0.462   6.062
 3210TIP3   OH2 9574   6.103   6.556   0.388
 3210TIP3    H1 9575   6.100   6.621   0.318
 3210TIP3    H2 9576   6.124   6.607   0.466
 3211TIP3   OH2 9577   5.594   2.711   1.054
 3211TIP3    H1 9578   5.590   2.788   1.111
 3211TIP3    H2 9579   5.505   2.703   1.019
 3212TIP3   OH2 9580   4.923   4.857   5.212
 3212TIP3    H1 9581   4.854   4.851   5.278
 3212TIP3    H2 9582   4.892   4.924   5.151
 3213TIP3   OH2 9583   1.918   6.756   0.009
 3213TIP3    H1 9584   2.010   6.770  -0.011
 3213TIP3    H2 9585   1.911   6.768   0.103
 3214TIP3   OH2 9586   0.948   0.326   6.037
 3214TIP3    H1 9587   0.980   0.373   6.114
 3214TIP3    H2 9588   0.980   0.377   5.963
 3215TIP3   OH2 9589   3.720   5.457   5.991
 3215TIP3    H1 9590   3.814   5.447   6.008
 3215TIP3    H2 9591   3.714   5.461   5.895
 3216TIP3   OH2 9592   3.160   0.847   3.350
 3216TIP3    H1 9593   3.245   0.848   3.394
 3216TIP3    H2 9594   3.124   0.934   3.366
 3217TIP3   OH2 9595   4.192   1.181   5.766
 3217TIP3    H1 9596   4.151   1.161   5.682
 3217TIP3    H2 9597   4.118   1.193   5.826
 3218TIP3   OH2 9598   3.759   3.179   3.179
 3218TIP3    H1 9599   3.697   3.152   3.111
 3218TIP3    H2 9600   3.832   3.218   3.131
 3219TIP3   OH2 9601   1.526   6.143   2.409
 3219TIP3    H1 9602   1.475   6.181   2.338
 3219TIP3    H2 9603   1.461   6.107   2.469
 3220TIP3   OH2 9604   7.838   7.233   4.996
 3220TIP3    H1 9605   7.905   7.193   5.051
 3220TIP3    H2 9606   7.755   7.202   5.034
 3221TIP3   OH2 9607   4.145   1.002   3.006
 3221TIP3    H1 9608   4.104   1.083   3.037
 3221TIP3    H2 9609   4.096   0.932   3.048
 3222TIP3   OH2 9610   5.955   5.707   6.089
 3222TIP3    H1 9611   6.048   5.696   6.110
 3222TIP3    H2 9612   5.911   5.708   6.174
 3223TIP3   OH2 9613   5.848   7.768   6.424
 3223TIP3    H1 9614   5.784   7.704   6.394
 3223TIP3    H2 9615   5.924   7.716   6.451
 3224TIP3   OH2 9616   2.027   4.017   3.415
 3224TIP3    H1 9617   2.088   3.943   3.411
 3224TIP3    H2 9618   2.026   4.053   3.327
 3225TIP3   OH2 9619   6.568   4.893   5.795
 3225TIP3    H1 9620   6.659   4.917   5.810
 3225TIP3    H2 9621   6.572   4.804   5.759
 3226TIP3   OH2 9622   2.132   6.917   0.317
 3226TIP3    H1 9623   2.104   6.968   0.393
 3226TIP3    H2 9624   2.220   6.886   0.339
 3227TIP3   OH2 9625   7.933   3.327   6.644
 3227TIP3    H1 9626   7.844   3.358   6.624
 3227TIP3    H2 9627   7.929   3.301   6.736
 3228TIP3   OH2 9628   0.575   4.886   0.585
 3228TIP3    H1 9629   0.528   4.969   0.594
 3228TIP3    H2 9630   0.651   4.895   0.642
 3229TIP3   OH2 9631   7.381   7.098   3.138
 3229TIP3    H1 9632   7.370   7.186   3.104
 3229TIP3    H2 9633   7.472   7.075   3.118
 3230TIP3   OH2 9634   7.269   4.835   5.893
 3230TIP3    H1 9635   7.333   4.818   5.824
 3230TIP3    H2 9636   7.321   4.852   5.971
 3231TIP3   OH2 9637   7.029   0.142   1.294
 3231TIP3    H1 9638   7.002   0.226   1.332
 3231TIP3    H2 9639   7.052   0.089   1.370
 3232TIP3   OH2 9640   7.679   5.041   6.562
 3232TIP3    H1 9641   7.715   4.974   6.504
 3232TIP3    H2 9642   7.680   5.121   6.508
 3233TIP3   OH2 9643   4.521   6.651   0.552
 3233TIP3    H1 9644   4.503   6.586   0.620
 3233TIP3    H2 9645   4.439   6.657   0.503
 3234TIP3   OH2 9646   0.610   5.744   3.118
 3234TIP3    H1 9647   0.670   5.779   3.183
 3234TIP3    H2 9648   0.626   5.649   3.118
 3235TIP3   OH2 9649   0.694   0.514   4.479
 3235TIP3    H1 9650   0.709   0.486   4.569
 3235TIP3    H2 9651   0.778   0.499   4.435
 3236TIP3   OH2 9652   2.914   6.809   5.377
 3236TIP3    H1 9653   2.880   6.897   5.360
 3236TIP3    H2 9654   2.992   6.802   5.322
 3237TIP3   OH2 9655   4.226   0.270   0.790
 3237TIP3    H1 9656   4.284   0.339   0.757
 3237TIP3    H2 9657   4.271   0.238   0.869
 3238TIP3   OH2 9658   6.027   3.083   0.015
 3238TIP3    H1 9659   6.104   3.045  -0.027
 3238TIP3    H2 9660   6.033   3.177  -0.005
 3239TIP3   OH2 9661   2.338   0.529   4.109
 3239TIP3    H1 9662   2.274   0.483   4.054
 3239TIP3    H2 9663   2.286   0.595   4.156
 3240TIP3   OH2 9664   1.953   3.714   0.029
 3240TIP3    H1 9665   2.013   3.701  -0.045
 3240TIP3    H2 9666   1.996   3.781   0.082
 3241TIP3   OH2 9667   4.000   3.092   0.972
 3241TIP3    H1 9668   4.040   3.167   0.928
 3241TIP3    H2 9669   3.995   3.118   1.064
 3242TIP3   OH2 9670   5.487   5.637   3.398
 3242TIP3    H1 9671   5.490   5.593   3.483
 3242TIP3    H2 9672   5.404   5.685   3.400
 3243TIP3   OH2 9673   6.371   6.795   2.444
 3243TIP3    H1 9674   6.458   6.756   2.432
 3243TIP3    H2 9675   6.317   6.723   2.476
 3244TIP3   OH2 9676   4.335   5.967   2.086
 3244TIP3    H1 9677   4.426   5.937   2.091
 3244TIP3    H2 9678   4.291   5.924   2.159
 3245TIP3   OH2 9679   5.346   6.944   1.395
 3245TIP3    H1 9680   5.362   7.038   1.403
 3245TIP3    H2 9681   5.251   6.937   1.384
 3246TIP3   OH2 9682   5.528   4.784   5.084
 3246TIP3    H1 9683   5.556   4.843   5.014
 3246TIP3    H2 9684   5.437   4.763   5.063
 3247TIP3   OH2 9685   3.345   0.409   0.476
 3247TIP3    H1 9686   3.428   0.396   0.521
 3247TIP3    H2 9687   3.284   0.350   0.522
 3248TIP3   OH2 9688   5.666   3.221   0.508
 3248TIP3    H1 9689   5.576   3.227   0.542
 3248TIP3    H2 9690   5.670   3.288   0.439
 3249TIP3   OH2 9691   5.551   0.593   6.317
 3249TIP3    H1 9692   5.457   0.601   6.301
 3249TIP3    H2 9693   5.557   0.556   6.405
 3250TIP3   OH2 9694   4.093   3.801   6.695
 3250TIP3    H1 9695   4.022   3.864   6.709
 3250TIP3    H2 9696   4.053   3.732   6.642
 3251TIP3   OH2 9697   4.012   6.256   3.716
 3251TIP3    H1 9698   3.956   6.250   3.638
 3251TIP3    H2 9699   3.988   6.181   3.769
 3252TIP3   OH2 9700   2.822   5.356   0.339
 3252TIP3    H1 9701   2.887   5.416   0.375
 3252TIP3    H2 9702   2.741   5.377   0.385
 3253TIP3   OH2 9703   1.705   7.210   2.382
 3253TIP3    H1 9704   1.754   7.162   2.449
 3253TIP3    H2 9705   1.677   7.144   2.320
 3254TIP3   OH2 9706   1.233   7.474   0.343
 3254TIP3    H1 9707   1.312   7.523   0.321
 3254TIP3    H2 9708   1.211   7.500   0.432
 3255TIP3   OH2 9709   4.809   4.543   5.728
 3255TIP3    H1 9710   4.841   4.623   5.686
 3255TIP3    H2 9711   4.833   4.553   5.820
 3256TIP3   OH2 9712   5.784   2.934   1.800
 3256TIP3    H1 9713   5.724   2.918   1.727
 3256TIP3    H2 9714   5.821   2.848   1.820
 3257TIP3   OH2 9715   4.535   2.611   2.029
 3257TIP3    H1 9716   4.451   2.632   2.071
 3257TIP3    H2 9717   4.521   2.525   1.990
 3258TIP3   OH2 9718   3.564   2.071   3.820
 3258TIP3    H1 9719   3.542   1.980   3.842
 3258TIP3    H2 9720   3.627   2.097   3.888
 3259TIP3   OH2 9721   7.984   4.177   1.598
 3259TIP3    H1 9722   7.975   4.120   1.674
 3259TIP3    H2 9723   7.896   4.181   1.560
 3260TIP3   OH2 9724   1.324   7.081   2.149
 3260TIP3    H1 9725   1.381   7.026   2.201
 3260TIP3    H2 9726   1.241   7.081   2.196
 3261TIP3   OH2 9727   3.617   0.386   0.576
 3261TIP3    H1 9728   3.695   0.440   0.566
 3261TIP3    H2 9729   3.648   0.296   0.569
 3262TIP3   OH2 9730   4.300   3.906   1.800
 3262TIP3    H1 9731   4.309   3.982   1.742
 3262TIP3    H2 9732   4.374   3.913   1.861
 3263TIP3   OH2 9733   1.689   2.922   0.382
 3263TIP3    H1 9734   1.727   2.877   0.457
 3263TIP3    H2 9735   1.732   3.008   0.381
 3264TIP3   OH2 9736   5.186   2.692   4.207
 3264TIP3    H1 9737   5.227   2.770   4.170
 3264TIP3    H2 9738   5.126   2.662   4.139
 3265TIP3   OH2 9739   3.316   5.129   0.893
 3265TIP3    H1 9740   3.325   5.219   0.924
 3265TIP3    H2 9741   3.291   5.079   0.971
 3266TIP3   OH2 9742   0.443   4.458   2.823
 3266TIP3    H1 9743   0.489   4.405   2.888
 3266TIP3    H2 9744   0.375   4.503   2.873
 3267TIP3   OH2 9745   1.007   3.990   5.288
 3267TIP3    H1 9746   0.936   4.053   5.300
 3267TIP3    H2 9747   0.994   3.926   5.358
 3268TIP3   OH2 9748   1.953   0.120   1.555
 3268TIP3    H1 9749   2.032   0.144   1.506
 3268TIP3    H2 9750   1.911   0.204   1.576
 3269TIP3   OH2 9751   5.390   3.023   0.931
 3269TIP3    H1 9752   5.406   3.085   1.002
 3269TIP3    H2 9753   5.301   3.042   0.901
 3270TIP3   OH2 9754   2.811   5.470   5.031
 3270TIP3    H1 9755   2.808   5.387   5.078
 3270TIP3    H2 9756   2.776   5.451   4.944
 3271TIP3   OH2 9757   2.013   3.808   6.146
 3271TIP3    H1 9758   1.986   3.840   6.231
 3271TIP3    H2 9759   1.939   3.828   6.088
 3272TIP3   OH2 9760   5.933   1.162   1.645
 3272TIP3    H1 9761   5.993   1.095   1.677
 3272TIP3    H2 9762   5.989   1.227   1.603
 3273TIP3   OH2 9763   4.951   0.115   0.019
 3273TIP3    H1 9764   4.999   0.175   0.077
 3273TIP3    H2 9765   5.009   0.102  -0.056
 3274TIP3   OH2 9766   7.117   6.616   5.180
 3274TIP3    H1 9767   7.071   6.565   5.113
 3274TIP3    H2 9768   7.208   6.617   5.151
 3275TIP3   OH2 9769   7.549   2.483   4.299
 3275TIP3    H1 9770   7.628   2.537   4.297
 3275TIP3    H2 9771   7.515   2.486   4.210
 3276TIP3   OH2 9772   5.867   4.264   5.920
 3276TIP3    H1 9773   5.869   4.230   6.009
 3276TIP3    H2 9774   5.918   4.345   5.924
 3277TIP3   OH2 9775   7.966   0.521   6.023
 3277TIP3    H1 9776   8.024   0.497   5.951
 3277TIP3    H2 9777   8.023   0.530   6.099
 3278TIP3   OH2 9778   3.352   7.400   6.050
 3278TIP3    H1 9779   3.389   7.430   5.967
 3278TIP3    H2 9780   3.257   7.405   6.038
 3279TIP3   OH2 9781   5.167   3.692   5.616
 3279TIP3    H1 9782   5.084   3.701   5.570
 3279TIP3    H2 9783   5.162   3.752   5.690
 3280TIP3   OH2 9784   6.840   1.331   4.241
 3280TIP3    H1 9785   6.808   1.241   4.236
 3280TIP3    H2 9786   6.801   1.375   4.165
 3281TIP3   OH2 9787   3.515   0.774   1.669
 3281TIP3    H1 9788   3.497   0.690   1.626
 3281TIP3    H2 9789   3.603   0.798   1.638
 3282TIP3   OH2 9790   7.375   6.876   2.499
 3282TIP3    H1 9791   7.389   6.967   2.473
 3282TIP3    H2 9792   7.289   6.876   2.540
 3283TIP3   OH2 9793   3.635   2.319   1.687
 3283TIP3    H1 9794   3.603   2.409   1.693
 3283TIP3    H2 9795   3.727   2.328   1.663
 3284TIP3   OH2 9796   3.136   4.075   4.345
 3284TIP3    H1 9797   3.084   4.045   4.270
 3284TIP3    H2 9798   3.087   4.044   4.421
 3285TIP3   OH2 9799   0.802   2.441   0.763
 3285TIP3    H1 9800   0.764   2.465   0.847
 3285TIP3    H2 9801   0.888   2.404   0.785
 3286TIP3   OH2 9802   4.070   4.317   1.850
 3286TIP3    H1 9803   3.975   4.326   1.846
 3286TIP3    H2 9804   4.085   4.238   1.901
 3287TIP3   OH2 9805   5.909   7.263   4.442
 3287TIP3    H1 9806   5.827   7.303   4.472
 3287TIP3    H2 9807   5.889   7.231   4.355
 3288TIP3   OH2 9808   3.095   4.645   6.652
 3288TIP3    H1 9809   3.145   4.594   6.716
 3288TIP3    H2 9810   3.017   4.674   6.701
 3289TIP3   OH2 9811   3.250   2.799   2.260
 3289TIP3    H1 9812   3.277   2.873   2.313
 3289TIP3    H2 9813   3.320   2.790   2.195
 3290TIP3   OH2 9814   0.409   1.441   0.500
 3290TIP3    H1 9815   0.342   1.509   0.492
 3290TIP3    H2 9816   0.370   1.375   0.556
 3291TIP3   OH2 9817   1.395   4.027   3.771
 3291TIP3    H1 9818   1.334   3.981   3.713
 3291TIP3    H2 9819   1.467   3.965   3.784
 3292TIP3   OH2 9820   3.990   6.270   1.798
 3292TIP3    H1 9821   4.036   6.257   1.881
 3292TIP3    H2 9822   3.928   6.197   1.794
 3293TIP3   OH2 9823   3.581   6.406   6.547
 3293TIP3    H1 9824   3.613   6.384   6.634
 3293TIP3    H2 9825   3.658   6.400   6.490
 3294TIP3   OH2 9826   5.830   5.993   3.515
 3294TIP3    H1 9827   5.865   6.082   3.519
 3294TIP3    H2 9828   5.903   5.939   3.486
 3295TIP3   OH2 9829   1.601   0.990   3.698
 3295TIP3    H1 9830   1.580   0.899   3.717
 3295TIP3    H2 9831   1.655   1.019   3.771
 3296TIP3   OH2 9832   1.073   3.167   4.986
 3296TIP3    H1 9833   1.059   3.136   4.897
 3296TIP3    H2 9834   1.056   3.091   5.041
 3297TIP3   OH2 9835   2.733   0.211   1.003
 3297TIP3    H1 9836   2.787   0.270   1.057
 3297TIP3    H2 9837   2.679   0.270   0.951
 3298TIP3   OH2 9838   1.139   7.338   4.851
 3298TIP3    H1 9839   1.226   7.323   4.814
 3298TIP3    H2 9840   1.079   7.323   4.778
 3299TIP3   OH2 9841   7.291   1.376   4.449
 3299TIP3    H1 9842   7.247   1.328   4.379
 3299TIP3    H2 9843   7.282   1.468   4.424
 3300TIP3   OH2 9844   5.215   5.120   3.994
 3300TIP3    H1 9845   5.188   5.045   3.940
 3300TIP3    H2 9846   5.144   5.131   4.057
 3301TIP3   OH2 9847   0.809   1.762   2.385
 3301TIP3    H1 9848   0.805   1.677   2.341
 3301TIP3    H2 9849   0.734   1.811   2.352
 3302TIP3   OH2 9850   5.947   1.748   3.307
 3302TIP3    H1 9851   5.946   1.819   3.371
 3302TIP3    H2 9852   5.855   1.736   3.283
 3303TIP3   OH2 9853   1.172   3.502   3.219
 3303TIP3    H1 9854   1.129   3.516   3.303
 3303TIP3    H2 9855   1.247   3.562   3.220
 3304TIP3   OH2 9856   7.035   6.422   1.879
 3304TIP3    H1 9857   7.090   6.386   1.949
 3304TIP3    H2 9858   7.049   6.516   1.884
 3305TIP3   OH2 9859   4.119   7.780   1.772
 3305TIP3    H1 9860   4.196   7.833   1.792
 3305TIP3    H2 9861   4.147   7.690   1.788
 3306TIP3   OH2 9862   7.921   3.326   3.087
 3306TIP3    H1 9863   7.885   3.315   2.999
 3306TIP3    H2 9864   8.002   3.375   3.074
 3307TIP3   OH2 9865   0.885   3.446   6.434
 3307TIP3    H1 9866   0.852   3.522   6.481
 3307TIP3    H2 9867   0.969   3.474   6.399
 3308TIP3   OH2 9868   4.224   3.304   0.745
 3308TIP3    H1 9869   4.151   3.328   0.688
 3308TIP3    H2 9870   4.260   3.387   0.775
 3309TIP3   OH2 9871   1.436   3.268   4.208
 3309TIP3    H1 9872   1.532   3.262   4.210
 3309TIP3    H2 9873   1.407   3.193   4.260
 3310TIP3   OH2 9874   0.654   3.779   1.707
 3310TIP3    H1 9875   0.640   3.859   1.657
 3310TIP3    H2 9876   0.567   3.757   1.741
 3311TIP3   OH2 9877   0.459   7.197   1.691
 3311TIP3    H1 9878   0.448   7.228   1.601
 3311TIP3    H2 9879   0.519   7.259   1.731
 3312TIP3   OH2 9880   2.004   7.707   2.508
 3312TIP3    H1 9881   1.967   7.640   2.451
 3312TIP3    H2 9882   2.026   7.780   2.450
 3313TIP3   OH2 9883   8.022   6.525   2.632
 3313TIP3    H1 9884   7.964   6.465   2.586
 3313TIP3    H2 9885   8.069   6.471   2.695
 3314TIP3   OH2 9886   1.297   7.721   2.450
 3314TIP3    H1 9887   1.290   7.696   2.358
 3314TIP3    H2 9888   1.237   7.662   2.496
 3315TIP3   OH2 9889   4.598   6.651   2.755
 3315TIP3    H1 9890   4.595   6.613   2.668
 3315TIP3    H2 9891   4.628   6.741   2.742
 3316TIP3   OH2 9892   2.698   7.738   6.247
 3316TIP3    H1 9893   2.656   7.699   6.324
 3316TIP3    H2 9894   2.791   7.743   6.270
 3317TIP3   OH2 9895   0.941   5.827   2.471
 3317TIP3    H1 9896   0.911   5.894   2.409
 3317TIP3    H2 9897   0.932   5.868   2.557
 3318TIP3   OH2 9898   6.468   3.493   3.232
 3318TIP3    H1 9899   6.483   3.568   3.291
 3318TIP3    H2 9900   6.479   3.416   3.288
 3319TIP3   OH2 9901   2.900   6.402   6.690
 3319TIP3    H1 9902   2.838   6.465   6.728
 3319TIP3    H2 9903   2.985   6.444   6.698
 3320TIP3   OH2 9904   1.103   0.651   3.322
 3320TIP3    H1 9905   1.151   0.568   3.314
 3320TIP3    H2 9906   1.160   0.716   3.281
 3321TIP3   OH2 9907   2.629   2.150   1.746
 3321TIP3    H1 9908   2.619   2.239   1.712
 3321TIP3    H2 9909   2.702   2.156   1.807
 3322TIP3   OH2 9910   5.153   2.102   6.480
 3322TIP3    H1 9911   5.226   2.142   6.432
 3322TIP3    H2 9912   5.136   2.020   6.434
 3323TIP3   OH2 9913   3.247   0.248   4.037
 3323TIP3    H1 9914   3.320   0.189   4.054
 3323TIP3    H2 9915   3.255   0.317   4.103
 3324TIP3   OH2 9916   1.153   6.331   2.833
 3324TIP3    H1 9917   1.236   6.371   2.859
 3324TIP3    H2 9918   1.086   6.380   2.882
 3325TIP3   OH2 9919   4.767   2.865   3.725
 3325TIP3    H1 9920   4.828   2.928   3.763
 3325TIP3    H2 9921   4.814   2.828   3.650
 3326TIP3   OH2 9922   2.960   4.226   2.593
 3326TIP3    H1 9923   2.996   4.179   2.669
 3326TIP3    H2 9924   3.013   4.195   2.520
 3327TIP3   OH2 9925   2.533   2.738   3.210
 3327TIP3    H1 9926   2.454   2.691   3.184
 3327TIP3    H2 9927   2.503   2.800   3.276
 3328TIP3   OH2 9928   1.987   5.537   2.942
 3328TIP3    H1 9929   1.894   5.558   2.942
 3328TIP3    H2 9930   2.020   5.576   2.861
 3329TIP3   OH2 9931   2.464   2.126   0.188
 3329TIP3    H1 9932   2.457   2.191   0.118
 3329TIP3    H2 9933   2.515   2.054   0.150
 3330TIP3   OH2 9934   7.756   7.132   6.202
 3330TIP3    H1 9935   7.755   7.037   6.190
 3330TIP3    H2 9936   7.817   7.146   6.275
 3331TIP3   OH2 9937   1.633   5.009   3.095
 3331TIP3    H1 9938   1.595   5.073   3.035
 3331TIP3    H2 9939   1.602   5.036   3.181
 3332TIP3   OH2 9940   6.002   4.032   5.466
 3332TIP3    H1 9941   6.080   3.978   5.452
 3332TIP3    H2 9942   6.023   4.086   5.542
 3333TIP3   OH2 9943   5.534   7.188   0.851
 3333TIP3    H1 9944   5.481   7.109   0.860
 3333TIP3    H2 9945   5.488   7.253   0.904
 3334TIP3   OH2 9946   1.181   7.191   0.046
 3334TIP3    H1 9947   1.091   7.178   0.078
 3334TIP3    H2 9948   1.169   7.234  -0.039
 3335TIP3   OH2 9949   4.629   0.751   6.553
 3335TIP3    H1 9950   4.549   0.784   6.594
 3335TIP3    H2 9951   4.689   0.825   6.553
 3336TIP3   OH2 9952   3.865   6.700   4.432
 3336TIP3    H1 9953   3.774   6.687   4.458
 3336TIP3    H2 9954   3.905   6.614   4.444
 3337TIP3   OH2 9955   5.893   7.719   5.095
 3337TIP3    H1 9956   5.814   7.670   5.071
 3337TIP3    H2 9957   5.880   7.806   5.057
 3338TIP3   OH2 9958   4.247   2.849   5.588
 3338TIP3    H1 9959   4.322   2.909   5.591
 3338TIP3    H2 9960   4.194   2.873   5.663
 3339TIP3   OH2 9961   4.348   3.808   1.377
 3339TIP3    H1 9962   4.357   3.751   1.454
 3339TIP3    H2 9963   4.278   3.869   1.401
 3340TIP3   OH2 9964   5.497   3.607   1.712
 3340TIP3    H1 9965   5.495   3.580   1.620
 3340TIP3    H2 9966   5.424   3.668   1.720
 3341TIP3   OH2 9967   5.861   5.758   1.890
 3341TIP3    H1 9968   5.786   5.796   1.845
 3341TIP3    H2 9969   5.910   5.833   1.923
 3342TIP3   OH2 9970   2.727   6.036   4.149
 3342TIP3    H1 9971   2.668   6.058   4.076
 3342TIP3    H2 9972   2.672   6.045   4.227
 3343TIP3   OH2 9973   5.563   3.753   5.768
 3343TIP3    H1 9974   5.517   3.743   5.684
 3343TIP3    H2 9975   5.620   3.676   5.773
 3344TIP3   OH2 9976   3.574   0.314   4.404
 3344TIP3    H1 9977   3.509   0.301   4.473
 3344TIP3    H2 9978   3.655   0.281   4.441
 3345TIP3   OH2 9979   6.480   6.779   3.598
 3345TIP3    H1 9980   6.538   6.809   3.529
 3345TIP3    H2 9981   6.415   6.849   3.607
 3346TIP3   OH2 9982   7.857   7.649   0.637
 3346TIP3    H1 9983   7.765   7.657   0.612
 3346TIP3    H2 9984   7.859   7.574   0.696
 3347TIP3   OH2 9985   6.857   6.881   1.954
 3347TIP3    H1 9986   6.767   6.847   1.952
 3347TIP3    H2 9987   6.849   6.970   1.921
 3348TIP3   OH2 9988   4.700   1.673   5.268
 3348TIP3    H1 9989   4.767   1.646   5.205
 3348TIP3    H2 9990   4.661   1.592   5.298
 3349TIP3   OH2 9991   4.649   1.176   1.343
 3349TIP3    H1 9992   4.655   1.166   1.438
 3349TIP3    H2 9993   4.623   1.089   1.312
 3350TIP3   OH2 9994   0.953   3.585   5.048
 3350TIP3    H1 9995   0.961   3.680   5.044
 3350TIP3    H2 9996   0.980   3.555   4.961
 3351TIP3   OH2 9997   1.517   2.974   5.717
 3351TIP3    H1 9998   1.527   3.018   5.801
 3351TIP3    H2 9999   1.486   2.886   5.740
 3352TIP3   OH210000   4.762   2.161   0.651
 3352TIP3    H110001   4.839   2.162   0.707
 3352TIP3    H210002   4.794   2.132   0.566
 3353TIP3   OH210003   1.427   2.635   2.162
 3353TIP3    H110004   1.450   2.544   2.144
 3353TIP3    H210005   1.469   2.654   2.246
 3354TIP3   OH210006   2.339   3.371   0.283
 3354TIP3    H110007   2.296   3.371   0.198
 3354TIP3    H210008   2.337   3.463   0.311
 3355TIP3   OH210009   2.167   4.180   3.030
 3355TIP3    H110010   2.227   4.209   2.962
 3355TIP3    H210011   2.112   4.114   2.987
 3356TIP3   OH210012   4.584   3.454   6.225
 3356TIP3    H110013   4.518   3.442   6.294
 3356TIP3    H210014   4.642   3.379   6.235
 3357TIP3   OH210015   4.601   7.177   1.323
 3357TIP3    H110016   4.613   7.255   1.269
 3357TIP3    H210017   4.592   7.106   1.260
 3358TIP3   OH210018   6.063   6.159   5.392
 3358TIP3    H110019   6.071   6.227   5.459
 3358TIP3    H210020   6.151   6.150   5.356
 3359TIP3   OH210021   4.346   7.381   1.299
 3359TIP3    H110022   4.269   7.402   1.352
 3359TIP3    H210023   4.419   7.421   1.346
 3360TIP3   OH210024   2.319   0.180   5.255
 3360TIP3    H110025   2.361   0.109   5.304
 3360TIP3    H210026   2.317   0.148   5.164
 3361TIP3   OH210027   2.883   4.003   2.268
 3361TIP3    H110028   2.959   4.052   2.297
 3361TIP3    H210029   2.808   4.054   2.298
 3362TIP3   OH210030   5.791   7.345   2.412
 3362TIP3    H110031   5.786   7.353   2.317
 3362TIP3    H210032   5.878   7.308   2.428
 3363TIP3   OH210033   3.489   4.332   0.310
 3363TIP3    H110034   3.573   4.361   0.275
 3363TIP3    H210035   3.466   4.255   0.257
 3364TIP3   OH210036   1.493   7.101   6.033
 3364TIP3    H110037   1.428   7.106   5.963
 3364TIP3    H210038   1.570   7.146   5.997
 3365TIP3   OH210039   4.460   3.992   1.220
 3365TIP3    H110040   4.395   4.059   1.199
 3365TIP3    H210041   4.409   3.920   1.256
 3366TIP3   OH210042   5.894   5.515   5.435
 3366TIP3    H110043   5.874   5.601   5.470
 3366TIP3    H210044   5.818   5.493   5.380
 3367TIP3   OH210045   5.249   2.298   5.817
 3367TIP3    H110046   5.166   2.341   5.839
 3367TIP3    H210047   5.237   2.207   5.844
 3368TIP3   OH210048   5.629   7.306   2.725
 3368TIP3    H110049   5.647   7.226   2.676
 3368TIP3    H210050   5.636   7.376   2.660
 3369TIP3   OH210051   7.858   7.200   2.247
 3369TIP3    H110052   7.932   7.247   2.208
 3369TIP3    H210053   7.848   7.238   2.335
 3370TIP3   OH210054   1.069   7.616   5.357
 3370TIP3    H110055   1.088   7.563   5.280
 3370TIP3    H210056   1.153   7.620   5.404
 3371TIP3   OH210057   4.935   2.624   6.161
 3371TIP3    H110058   5.009   2.642   6.218
 3371TIP3    H210059   4.943   2.531   6.139
 3372TIP3   OH210060   3.216   2.528   3.452
 3372TIP3    H110061   3.295   2.493   3.411
 3372TIP3    H210062   3.190   2.601   3.396
 3373TIP3   OH210063   0.082   5.241   5.649
 3373TIP3    H110064   0.032   5.289   5.715
 3373TIP3    H210065   0.052   5.151   5.656
 3374TIP3   OH210066   6.070   7.312   1.024
 3374TIP3    H110067   6.083   7.369   1.101
 3374TIP3    H210068   6.147   7.255   1.024
 3375TIP3   OH210069   1.656   5.824   5.317
 3375TIP3    H110070   1.602   5.745   5.326
 3375TIP3    H210071   1.745   5.791   5.312
 3376TIP3   OH210072   5.250   6.651   2.104
 3376TIP3    H110073   5.245   6.579   2.041
 3376TIP3    H210074   5.183   6.631   2.169
 3377TIP3   OH210075   5.599   0.932   3.010
 3377TIP3    H110076   5.667   0.866   3.020
 3377TIP3    H210077   5.553   0.933   3.094
 3378TIP3   OH210078   0.881   7.349   0.017
 3378TIP3    H110079   0.882   7.254   0.004
 3378TIP3    H210080   0.917   7.361   0.105
 3379TIP3   OH210081   5.320   0.441   1.468
 3379TIP3    H110082   5.291   0.470   1.555
 3379TIP3    H210083   5.262   0.368   1.447
 3380TIP3   OH210084   3.624   1.830   4.004
 3380TIP3    H110085   3.610   1.738   4.027
 3380TIP3    H210086   3.719   1.838   3.999
 3381TIP3   OH210087   2.806   4.662   6.716
 3381TIP3    H110088   2.805   4.579   6.668
 3381TIP3    H210089   2.740   4.716   6.672
 3382TIP3   OH210090   5.482   0.914   6.530
 3382TIP3    H110091   5.529   0.926   6.613
 3382TIP3    H210092   5.533   0.849   6.482
 3383TIP3   OH210093   4.558   7.466   6.147
 3383TIP3    H110094   4.631   7.409   6.123
 3383TIP3    H210095   4.556   7.532   6.078
 3384TIP3   OH210096   3.076   2.824   4.398
 3384TIP3    H110097   3.043   2.780   4.477
 3384TIP3    H210098   3.003   2.879   4.370
 3385TIP3   OH210099   6.652   2.937   4.622
 3385TIP3    H110100   6.585   2.869   4.622
 3385TIP3    H210101   6.712   2.912   4.692
 3386TIP3   OH210102   5.191   5.206   3.395
 3386TIP3    H110103   5.131   5.176   3.464
 3386TIP3    H210104   5.147   5.183   3.313
 3387TIP3   OH210105   3.451   0.398   2.697
 3387TIP3    H110106   3.373   0.376   2.747
 3387TIP3    H210107   3.479   0.482   2.732
 3388TIP3   OH210108   6.156   4.654   4.368
 3388TIP3    H110109   6.231   4.650   4.427
 3388TIP3    H210110   6.130   4.562   4.356
 3389TIP3   OH210111   3.281   7.689   5.297
 3389TIP3    H110112   3.356   7.722   5.347
 3389TIP3    H210113   3.224   7.765   5.285
 3390TIP3   OH210114   0.206   5.773   0.687
 3390TIP3    H110115   0.159   5.812   0.761
 3390TIP3    H210116   0.265   5.843   0.657
 3391TIP3   OH210117   8.010   7.424   4.869
 3391TIP3    H110118   7.946   7.368   4.913
 3391TIP3    H210119   8.039   7.373   4.793
 3392TIP3   OH210120   6.865   0.738   6.347
 3392TIP3    H110121   6.786   0.773   6.387
 3392TIP3    H210122   6.936   0.767   6.405
 3393TIP3   OH210123   5.392   4.615   1.566
 3393TIP3    H110124   5.380   4.706   1.592
 3393TIP3    H210125   5.406   4.568   1.648
 3394TIP3   OH210126   4.205   0.502   6.369
 3394TIP3    H110127   4.194   0.449   6.290
 3394TIP3    H210128   4.300   0.509   6.381
 3395TIP3   OH210129   7.568   3.834   5.905
 3395TIP3    H110130   7.623   3.868   5.976
 3395TIP3    H210131   7.494   3.793   5.950
 3396TIP3   OH210132   5.072   4.100   1.665
 3396TIP3    H110133   5.040   4.191   1.666
 3396TIP3    H210134   5.165   4.108   1.645
 3397TIP3   OH210135   1.474   0.470   2.228
 3397TIP3    H110136   1.422   0.432   2.299
 3397TIP3    H210137   1.511   0.394   2.183
 3398TIP3   OH210138   7.554   1.956   2.817
 3398TIP3    H110139   7.492   1.905   2.869
 3398TIP3    H210140   7.505   2.035   2.793
 3399TIP3   OH210141   6.995   6.307   3.789
 3399TIP3    H110142   6.964   6.398   3.780
 3399TIP3    H210143   7.080   6.314   3.832
 3400TIP3   OH210144   3.932   0.505   6.757
 3400TIP3    H110145   3.921   0.481   6.665
 3400TIP3    H210146   4.027   0.505   6.771
 3401TIP3   OH210147   4.989   3.318   4.068
 3401TIP3    H110148   4.968   3.397   4.118
 3401TIP3    H210149   5.084   3.309   4.077
 3402TIP3   OH210150   2.868   3.757   0.589
 3402TIP3    H110151   2.800   3.700   0.623
 3402TIP3    H210152   2.925   3.775   0.664
 3403TIP3   OH210153   6.135   3.710   1.532
 3403TIP3    H110154   6.060   3.764   1.505
 3403TIP3    H210155   6.146   3.649   1.459
 3404TIP3   OH210156   6.825   0.940   4.605
 3404TIP3    H110157   6.848   0.928   4.513
 3404TIP3    H210158   6.866   1.023   4.630
 3405TIP3   OH210159   2.167   3.073   0.394
 3405TIP3    H110160   2.168   3.064   0.299
 3405TIP3    H210161   2.098   3.137   0.412
 3406TIP3   OH210162   7.230   6.996   1.507
 3406TIP3    H110163   7.212   6.923   1.566
 3406TIP3    H210164   7.160   7.059   1.523
 3407TIP3   OH210165   7.183   0.387   3.287
 3407TIP3    H110166   7.215   0.462   3.236
 3407TIP3    H210167   7.140   0.331   3.223
 3408TIP3   OH210168   6.256   7.509   5.521
 3408TIP3    H110169   6.306   7.469   5.450
 3408TIP3    H210170   6.164   7.490   5.500
 3409TIP3   OH210171   1.071   2.285   4.973
 3409TIP3    H110172   1.165   2.299   4.982
 3409TIP3    H210173   1.054   2.201   5.016
 3410TIP3   OH210174   6.359   0.027   0.066
 3410TIP3    H110175   6.383   0.119   0.053
 3410TIP3    H210176   6.277   0.017   0.019
 3411TIP3   OH210177   7.666   2.631   0.367
 3411TIP3    H110178   7.761   2.640   0.371
 3411TIP3    H210179   7.642   2.662   0.279
 3412TIP3   OH210180   4.026   2.807   3.510
 3412TIP3    H110181   4.118   2.802   3.483
 3412TIP3    H210182   3.983   2.856   3.440
 3413TIP3   OH210183   4.897   6.490   5.771
 3413TIP3    H110184   4.902   6.405   5.729
 3413TIP3    H210185   4.845   6.543   5.711
 3414TIP3   OH210186   3.602   1.939   3.531
 3414TIP3    H110187   3.589   1.936   3.436
 3414TIP3    H210188   3.532   1.884   3.566
 3415TIP3   OH210189   6.022   1.546   4.683
 3415TIP3    H110190   6.101   1.499   4.658
 3415TIP3    H210191   6.028   1.630   4.636
 3416TIP3   OH210192   2.845   2.066   5.871
 3416TIP3    H110193   2.854   2.037   5.780
 3416TIP3    H210194   2.752   2.056   5.890
 3417TIP3   OH210195   5.391   1.228   1.837
 3417TIP3    H110196   5.439   1.304   1.872
 3417TIP3    H210197   5.340   1.196   1.912
 3418TIP3   OH210198   7.849   7.018   0.095
 3418TIP3    H110199   7.830   7.082   0.164
 3418TIP3    H210200   7.820   6.935   0.133
 3419TIP3   OH210201   1.403   0.565   4.978
 3419TIP3    H110202   1.475   0.502   4.986
 3419TIP3    H210203   1.350   0.532   4.906
 3420TIP3   OH210204   6.959   3.230   3.506
 3420TIP3    H110205   6.989   3.186   3.586
 3420TIP3    H210206   6.865   3.215   3.504
 3421TIP3   OH210207   4.331   4.200   1.123
 3421TIP3    H110208   4.252   4.165   1.082
 3421TIP3    H210209   4.376   4.247   1.053
 3422TIP3   OH210210   6.362   3.769   1.669
 3422TIP3    H110211   6.359   3.830   1.742
 3422TIP3    H210212   6.272   3.762   1.639
 3423TIP3   OH210213   3.078   0.859   2.185
 3423TIP3    H110214   3.002   0.914   2.163
 3423TIP3    H210215   3.129   0.856   2.104
 3424TIP3   OH210216   5.779   1.148   4.796
 3424TIP3    H110217   5.699   1.103   4.823
 3424TIP3    H210218   5.850   1.087   4.819
 3425TIP3   OH210219   2.169   7.131   4.236
 3425TIP3    H110220   2.141   7.151   4.147
 3425TIP3    H210221   2.192   7.216   4.273
 3426TIP3   OH210222   3.608   2.083   1.880
 3426TIP3    H110223   3.625   2.154   1.943
 3426TIP3    H210224   3.622   2.123   1.794
 3427TIP3   OH210225   3.736   0.845   4.600
 3427TIP3    H110226   3.788   0.886   4.530
 3427TIP3    H210227   3.784   0.865   4.680
 3428TIP3   OH210228   7.009   1.622   4.987
 3428TIP3    H110229   7.004   1.570   4.906
 3428TIP3    H210230   7.057   1.566   5.048
 3429TIP3   OH210231   4.927   3.591   3.763
 3429TIP3    H110232   4.883   3.635   3.691
 3429TIP3    H210233   5.016   3.626   3.762
 3430TIP3   OH210234   1.555   5.845   4.625
 3430TIP3    H110235   1.538   5.887   4.541
 3430TIP3    H210236   1.498   5.893   4.686
 3431TIP3   OH210237   3.229   3.965   6.680
 3431TIP3    H110238   3.229   4.042   6.736
 3431TIP3    H210239   3.278   3.899   6.730
 3432TIP3   OH210240   1.376   2.387   4.469
 3432TIP3    H110241   1.360   2.474   4.433
 3432TIP3    H210242   1.466   2.390   4.501
 3433TIP3   OH210243   5.687   0.223   0.989
 3433TIP3    H110244   5.616   0.249   1.048
 3433TIP3    H210245   5.644   0.166   0.924
 3434TIP3   OH210246   1.632   3.380   5.030
 3434TIP3    H110247   1.677   3.458   5.064
 3434TIP3    H210248   1.691   3.346   4.963
 3435TIP3   OH210249   1.608   1.745   2.351
 3435TIP3    H110250   1.603   1.819   2.412
 3435TIP3    H210251   1.621   1.668   2.408
 3436TIP3   OH210252   5.918   5.925   5.359
 3436TIP3    H110253   5.989   5.978   5.395
 3436TIP3    H210254   5.881   5.979   5.289
 3437TIP3   OH210255   1.193   3.183   0.604
 3437TIP3    H110256   1.104   3.215   0.619
 3437TIP3    H210257   1.201   3.108   0.664
 3438TIP3   OH210258   3.739   0.678   2.590
 3438TIP3    H110259   3.747   0.583   2.589
 3438TIP3    H210260   3.705   0.698   2.677
 3439TIP3   OH210261   5.777   6.878   5.347
 3439TIP3    H110262   5.784   6.884   5.442
 3439TIP3    H210263   5.867   6.861   5.318
 3440TIP3   OH210264   4.691   5.231   0.310
 3440TIP3    H110265   4.719   5.306   0.364
 3440TIP3    H210266   4.772   5.201   0.268
 3441TIP3   OH210267   4.660   2.516   0.070
 3441TIP3    H110268   4.756   2.514   0.063
 3441TIP3    H210269   4.635   2.601   0.034
 3442TIP3   OH210270   6.326   5.485   2.105
 3442TIP3    H110271   6.349   5.491   2.198
 3442TIP3    H210272   6.233   5.505   2.102
 3443TIP3   OH210273   7.768   4.495   4.288
 3443TIP3    H110274   7.743   4.578   4.328
 3443TIP3    H210275   7.864   4.495   4.292
 3444TIP3   OH210276   6.682   3.109   2.967
 3444TIP3    H110277   6.620   3.054   2.919
 3444TIP3    H210278   6.719   3.167   2.901
 3445TIP3   OH210279   7.960   2.675   4.844
 3445TIP3    H110280   7.923   2.640   4.925
 3445TIP3    H210281   8.037   2.621   4.827
 3446TIP3   OH210282   0.747   0.760   4.620
 3446TIP3    H110283   0.755   0.825   4.550
 3446TIP3    H210284   0.718   0.680   4.577
 3447TIP3   OH210285   0.508   1.175   1.296
 3447TIP3    H110286   0.528   1.208   1.208
 3447TIP3    H210287   0.417   1.148   1.291
 3448TIP3   OH210288   0.566   0.898   1.291
 3448TIP3    H110289   0.558   0.993   1.280
 3448TIP3    H210290   0.504   0.862   1.227
 3449TIP3   OH210291   8.183   1.279   5.689
 3449TIP3    H110292   8.139   1.347   5.639
 3449TIP3    H210293   8.134   1.199   5.669
 3450TIP3   OH210294   5.298   3.538   2.785
 3450TIP3    H110295   5.381   3.551   2.831
 3450TIP3    H210296   5.322   3.539   2.692
 3451TIP3   OH210297   3.430   2.998   0.254
 3451TIP3    H110298   3.428   3.075   0.197
 3451TIP3    H210299   3.382   2.931   0.205
 3452TIP3   OH210300   7.309   2.599   2.423
 3452TIP3    H110301   7.388   2.568   2.466
 3452TIP3    H210302   7.332   2.685   2.388
 3453TIP3   OH210303   5.262   7.354   1.723
 3453TIP3    H110304   5.300   7.351   1.636
 3453TIP3    H210305   5.265   7.263   1.754
 3454TIP3   OH210306   1.822   4.090   4.777
 3454TIP3    H110307   1.760   4.098   4.849
 3454TIP3    H210308   1.768   4.093   4.698
 3455TIP3   OH210309   2.775   5.339   1.646
 3455TIP3    H110310   2.845   5.332   1.581
 3455TIP3    H210311   2.710   5.275   1.620
 3456TIP3   OH210312   1.350   3.330   4.651
 3456TIP3    H110313   1.437   3.326   4.609
 3456TIP3    H210314   1.297   3.382   4.590
 3457TIP3   OH210315   7.826   4.018   0.958
 3457TIP3    H110316   7.789   3.972   0.883
 3457TIP3    H210317   7.797   4.109   0.947
 3458TIP3   OH210318   4.453   4.306   0.914
 3458TIP3    H110319   4.479   4.295   0.822
 3458TIP3    H210320   4.457   4.400   0.929
 3459TIP3   OH210321   1.182   5.280   4.339
 3459TIP3    H110322   1.239   5.328   4.399
 3459TIP3    H210323   1.097   5.277   4.384
 3460TIP3   OH210324   2.239   0.883   5.797
 3460TIP3    H110325   2.300   0.904   5.868
 3460TIP3    H210326   2.171   0.831   5.838
 3461TIP3   OH210327   3.621   1.183   4.055
 3461TIP3    H110328   3.659   1.253   4.002
 3461TIP3    H210329   3.531   1.174   4.022
 3462TIP3   OH210330   4.363   3.101   3.518
 3462TIP3    H110331   4.421   3.074   3.448
 3462TIP3    H210332   4.406   3.072   3.598
 3463TIP3   OH210333   5.245   7.300   0.932
 3463TIP3    H110334   5.225   7.369   0.868
 3463TIP3    H210335   5.190   7.226   0.906
 3464TIP3   OH210336   0.150   3.627   0.609
 3464TIP3    H110337   0.169   3.541   0.644
 3464TIP3    H210338   0.085   3.664   0.669
 3465TIP3   OH210339   1.976   1.386   5.458
 3465TIP3    H110340   2.052   1.407   5.513
 3465TIP3    H210341   1.969   1.291   5.462
 3466TIP3   OH210342   3.031   4.114   1.233
 3466TIP3    H110343   3.016   4.196   1.281
 3466TIP3    H210344   3.073   4.056   1.298
 3467TIP3   OH210345   2.083   4.538   4.181
 3467TIP3    H110346   2.149   4.470   4.193
 3467TIP3    H210347   2.103   4.576   4.095
 3468TIP3   OH210348   7.426   7.296   5.110
 3468TIP3    H110349   7.510   7.257   5.135
 3468TIP3    H210350   7.449   7.363   5.046
 3469TIP3   OH210351   3.033   6.552   4.724
 3469TIP3    H110352   3.005   6.490   4.657
 3469TIP3    H210353   2.951   6.583   4.763
 3470TIP3   OH210354   1.994   7.510   0.066
 3470TIP3    H110355   1.950   7.472  -0.010
 3470TIP3    H210356   2.000   7.437   0.128
 3471TIP3   OH210357   2.455   4.026   4.038
 3471TIP3    H110358   2.511   4.059   3.968
 3471TIP3    H210359   2.509   4.029   4.116
 3472TIP3   OH210360   7.980   4.753   4.934
 3472TIP3    H110361   8.052   4.770   4.873
 3472TIP3    H210362   7.912   4.814   4.907
 3473TIP3   OH210363   5.439   2.774   0.308
 3473TIP3    H110364   5.374   2.776   0.237
 3473TIP3    H210365   5.501   2.844   0.286
 3474TIP3   OH210366   7.842   2.600   6.734
 3474TIP3    H110367   7.760   2.595   6.783
 3474TIP3    H210368   7.820   2.646   6.654
 3475TIP3   OH210369   1.839   2.648   4.363
 3475TIP3    H110370   1.930   2.671   4.345
 3475TIP3    H210371   1.797   2.730   4.389
 3476TIP3   OH210372   2.679   6.598   2.701
 3476TIP3    H110373   2.714   6.654   2.770
 3476TIP3    H210374   2.723   6.629   2.621
 3477TIP3   OH210375   6.644   1.428   6.668
 3477TIP3    H110376   6.602   1.343   6.660
 3477TIP3    H210377   6.694   1.438   6.587
 3478TIP3   OH210378   7.086   0.983   1.674
 3478TIP3    H110379   7.043   0.974   1.758
 3478TIP3    H210380   7.024   0.945   1.611
 3479TIP3   OH210381   4.243   0.974   2.110
 3479TIP3    H110382   4.251   0.880   2.089
 3479TIP3    H210383   4.264   0.979   2.203
 3480TIP3   OH210384   1.184   6.697   1.041
 3480TIP3    H110385   1.238   6.716   1.117
 3480TIP3    H210386   1.094   6.709   1.071
 3481TIP3   OH210387   2.258   6.638   2.044
 3481TIP3    H110388   2.182   6.581   2.055
 3481TIP3    H210389   2.226   6.725   2.065
 3482TIP3   OH210390   0.388   7.150   1.086
 3482TIP3    H110391   0.319   7.104   1.040
 3482TIP3    H210392   0.404   7.098   1.165
 3483TIP3   OH210393   3.938   7.290   1.940
 3483TIP3    H110394   4.027   7.317   1.964
 3483TIP3    H210395   3.900   7.257   2.021
 3484TIP3   OH210396   3.650   6.931   4.683
 3484TIP3    H110397   3.744   6.948   4.693
 3484TIP3    H210398   3.607   7.008   4.718
 3485TIP3   OH210399   1.087   4.737   3.626
 3485TIP3    H110400   1.014   4.688   3.664
 3485TIP3    H210401   1.045   4.805   3.573
 3486TIP3   OH210402   0.299   5.508   4.880
 3486TIP3    H110403   0.318   5.569   4.951
 3486TIP3    H210404   0.247   5.439   4.921
 3487TIP3   OH210405   4.783   5.261   2.004
 3487TIP3    H110406   4.878   5.253   2.007
 3487TIP3    H210407   4.764   5.289   1.914
 3488TIP3   OH210408   1.308   1.399   3.828
 3488TIP3    H110409   1.246   1.423   3.897
 3488TIP3    H210410   1.346   1.482   3.800
 3489TIP3   OH210411   1.455   7.136   5.221
 3489TIP3    H110412   1.496   7.049   5.222
 3489TIP3    H210413   1.364   7.120   5.196
 3490TIP3   OH210414   6.688   4.197   5.863
 3490TIP3    H110415   6.711   4.135   5.932
 3490TIP3    H210416   6.616   4.248   5.899
 3491TIP3   OH210417   0.925   2.002   6.002
 3491TIP3    H110418   0.837   1.968   5.983
 3491TIP3    H210419   0.983   1.950   5.946
 3492TIP3   OH210420   4.834   0.958   4.569
 3492TIP3    H110421   4.815   0.902   4.493
 3492TIP3    H210422   4.791   1.041   4.548
 3493TIP3   OH210423   0.366   5.736   5.754
 3493TIP3    H110424   0.461   5.750   5.747
 3493TIP3    H210425   0.330   5.825   5.756
 3494TIP3   OH210426   0.077   7.393   2.242
 3494TIP3    H110427   0.042   7.393   2.153
 3494TIP3    H210428   0.116   7.306   2.252
 3495TIP3   OH210429   3.463   2.965   5.404
 3495TIP3    H110430   3.541   2.977   5.350
 3495TIP3    H210431   3.495   2.970   5.494
 3496TIP3   OH210432   5.797   7.738   1.527
 3496TIP3    H110433   5.769   7.739   1.619
 3496TIP3    H210434   5.756   7.660   1.491
 3497TIP3   OH210435   0.633   7.293   3.355
 3497TIP3    H110436   0.555   7.274   3.406
 3497TIP3    H210437   0.706   7.258   3.407
 3498TIP3   OH210438   2.388   6.473   2.226
 3498TIP3    H110439   2.363   6.544   2.167
 3498TIP3    H210440   2.341   6.492   2.308
 3499TIP3   OH210441   7.806   6.584   1.790
 3499TIP3    H110442   7.851   6.546   1.714
 3499TIP3    H210443   7.875   6.631   1.837
 3500TIP3   OH210444   6.164   2.036   2.924
 3500TIP3    H110445   6.188   1.948   2.951
 3500TIP3    H210446   6.209   2.049   2.841
 3501TIP3   OH210447   4.558   5.816   0.719
 3501TIP3    H110448   4.485   5.822   0.657
 3501TIP3    H210449   4.563   5.723   0.741
 3502TIP3   OH210450   6.620   6.049   2.309
 3502TIP3    H110451   6.683   6.122   2.310
 3502TIP3    H210452   6.544   6.082   2.356
 3503TIP3   OH210453   4.569   3.689   1.517
 3503TIP3    H110454   4.494   3.666   1.571
 3503TIP3    H210455   4.580   3.615   1.458
 3504TIP3   OH210456   8.057   0.811   6.355
 3504TIP3    H110457   8.103   0.762   6.287
 3504TIP3    H210458   8.025   0.745   6.416
 3505TIP3   OH210459   1.970   1.453   1.739
 3505TIP3    H110460   2.013   1.409   1.812
 3505TIP3    H210461   1.878   1.428   1.748
 3506TIP3   OH210462   4.077   1.802   3.725
 3506TIP3    H110463   4.139   1.766   3.662
 3506TIP3    H210464   4.132   1.831   3.798
 3507TIP3   OH210465   2.915   3.167   0.877
 3507TIP3    H110466   2.911   3.160   0.972
 3507TIP3    H210467   2.835   3.213   0.852
 3508TIP3   OH210468   1.687   2.293   5.722
 3508TIP3    H110469   1.601   2.252   5.717
 3508TIP3    H210470   1.741   2.245   5.660
 3509TIP3   OH210471   6.406   7.719   3.516
 3509TIP3    H110472   6.371   7.760   3.437
 3509TIP3    H210473   6.334   7.665   3.548
 3510TIP3   OH210474   5.918   7.132   4.989
 3510TIP3    H110475   5.858   7.194   4.947
 3510TIP3    H210476   5.878   7.046   4.974
 3511TIP3   OH210477   2.608   6.151   1.177
 3511TIP3    H110478   2.517   6.140   1.203
 3511TIP3    H210479   2.635   6.064   1.145
 3512TIP3   OH210480   8.143   6.451   5.378
 3512TIP3    H110481   8.100   6.494   5.452
 3512TIP3    H210482   8.219   6.506   5.360
 3513TIP3   OH210483   7.515   4.367   6.396
 3513TIP3    H110484   7.509   4.402   6.485
 3513TIP3    H210485   7.468   4.431   6.342
 3514TIP3   OH210486   1.660   4.765   5.774
 3514TIP3    H110487   1.697   4.808   5.851
 3514TIP3    H210488   1.722   4.784   5.703
 3515TIP3   OH210489   6.929   3.002   1.037
 3515TIP3    H110490   7.004   2.943   1.038
 3515TIP3    H210491   6.916   3.025   1.129
 3516TIP3   OH210492   4.085   6.694   4.827
 3516TIP3    H110493   4.070   6.602   4.809
 3516TIP3    H210494   4.079   6.738   4.742
 3517TIP3   OH210495   2.991   7.386   5.657
 3517TIP3    H110496   3.037   7.399   5.574
 3517TIP3    H210497   2.978   7.475   5.691
 3518TIP3   OH210498   3.989   0.295   0.628
 3518TIP3    H110499   4.068   0.287   0.682
 3518TIP3    H210500   3.987   0.387   0.603
 3519TIP3   OH210501   5.396   4.065   2.263
 3519TIP3    H110502   5.357   3.978   2.272
 3519TIP3    H210503   5.322   4.125   2.260
 3520TIP3   OH210504   2.142   4.716   5.254
 3520TIP3    H110505   2.101   4.654   5.193
 3520TIP3    H210506   2.104   4.694   5.339
 3521TIP3   OH210507   3.917   1.657   6.045
 3521TIP3    H110508   3.946   1.747   6.029
 3521TIP3    H210509   3.842   1.667   6.103
 3522TIP3   OH210510   2.636   6.167   4.773
 3522TIP3    H110511   2.633   6.248   4.722
 3522TIP3    H210512   2.694   6.109   4.723
 3523TIP3   OH210513   0.799   7.224   2.273
 3523TIP3    H110514   0.733   7.164   2.237
 3523TIP3    H210515   0.748   7.290   2.320
 3524TIP3   OH210516   6.362   6.100   0.669
 3524TIP3    H110517   6.448   6.100   0.711
 3524TIP3    H210518   6.373   6.044   0.592
 3525TIP3   OH210519   1.770   0.202   6.529
 3525TIP3    H110520   1.735   0.291   6.523
 3525TIP3    H210521   1.863   0.213   6.548
 3526TIP3   OH210522   1.569   7.624   2.239
 3526TIP3    H110523   1.551   7.556   2.303
 3526TIP3    H210524   1.493   7.682   2.244
 3527TIP3   OH210525   6.124   2.417   2.129
 3527TIP3    H110526   6.202   2.450   2.174
 3527TIP3    H210527   6.158   2.365   2.057
 3528TIP3   OH210528   0.213   5.205   6.256
 3528TIP3    H110529   0.256   5.281   6.216
 3528TIP3    H210530   0.284   5.143   6.271
 3529TIP3   OH210531   7.550   0.356   5.824
 3529TIP3    H110532   7.483   0.363   5.756
 3529TIP3    H210533   7.551   0.442   5.866
 3530TIP3   OH210534   4.654   0.626   0.786
 3530TIP3    H110535   4.655   0.558   0.854
 3530TIP3    H210536   4.571   0.671   0.800
 3531TIP3   OH210537   3.449   7.493   2.229
 3531TIP3    H110538   3.360   7.522   2.208
 3531TIP3    H210539   3.498   7.575   2.243
 3532TIP3   OH210540   1.936   4.147   0.433
 3532TIP3    H110541   1.870   4.097   0.386
 3532TIP3    H210542   2.018   4.100   0.418
 3533TIP3   OH210543   6.710   0.182   6.404
 3533TIP3    H110544   6.685   0.090   6.392
 3533TIP3    H210545   6.646   0.232   6.353
 3534TIP3   OH210546   7.239   5.878   6.499
 3534TIP3    H110547   7.231   5.954   6.441
 3534TIP3    H210548   7.333   5.863   6.506
 3535TIP3   OH210549   1.321   1.373   2.772
 3535TIP3    H110550   1.333   1.402   2.862
 3535TIP3    H210551   1.228   1.349   2.767
 3536TIP3   OH210552   3.830   1.318   4.463
 3536TIP3    H110553   3.827   1.300   4.369
 3536TIP3    H210554   3.919   1.349   4.478
 3537TIP3   OH210555   4.147   6.605   2.528
 3537TIP3    H110556   4.200   6.599   2.608
 3537TIP3    H210557   4.078   6.667   2.550
 3538TIP3   OH210558   4.015   0.090   5.526
 3538TIP3    H110559   4.087   0.132   5.573
 3538TIP3    H210560   4.033  -0.004   5.531
 3539TIP3   OH210561   7.883   1.727   2.824
 3539TIP3    H110562   7.896   1.758   2.734
 3539TIP3    H210563   7.900   1.633   2.820
 3540TIP3   OH210564   8.121   3.222   6.193
 3540TIP3    H110565   8.102   3.313   6.168
 3540TIP3    H210566   8.191   3.230   6.258
 3541TIP3   OH210567   4.216   7.259   1.986
 3541TIP3    H110568   4.248   7.268   2.076
 3541TIP3    H210569   4.288   7.219   1.939
 3542TIP3   OH210570   7.127   3.751   2.569
 3542TIP3    H110571   7.040   3.717   2.546
 3542TIP3    H210572   7.180   3.673   2.584
 3543TIP3   OH210573   8.273   4.723   2.984
 3543TIP3    H110574   8.232   4.710   2.898
 3543TIP3    H210575   8.204   4.703   3.047
 3544TIP3   OH210576   8.228   3.930   3.530
 3544TIP3    H110577   8.147   3.913   3.483
 3544TIP3    H210578   8.216   4.016   3.569
 3545TIP3   OH210579   5.557   0.824   1.503
 3545TIP3    H110580   5.474   0.872   1.505
 3545TIP3    H210581   5.577   0.808   1.596
 3546TIP3   OH210582   5.118   1.188   1.640
 3546TIP3    H110583   5.089   1.254   1.578
 3546TIP3    H210584   5.214   1.192   1.636
 3547TIP3   OH210585   2.887   6.185   2.738
 3547TIP3    H110586   2.809   6.182   2.794
 3547TIP3    H210587   2.902   6.279   2.723
 3548TIP3   OH210588   6.048   0.510   6.507
 3548TIP3    H110589   6.119   0.478   6.562
 3548TIP3    H210590   5.988   0.553   6.568
 3549TIP3   OH210591   7.652   5.811   1.149
 3549TIP3    H110592   7.727   5.758   1.120
 3549TIP3    H210593   7.680   5.850   1.231
 3550TIP3   OH210594   0.807   6.931   1.737
 3550TIP3    H110595   0.815   6.957   1.828
 3550TIP3    H210596   0.712   6.923   1.722
 3551TIP3   OH210597   7.568   3.191   0.385
 3551TIP3    H110598   7.635   3.157   0.443
 3551TIP3    H210599   7.488   3.144   0.409
 3552TIP3   OH210600   6.686   3.080   2.582
 3552TIP3    H110601   6.667   3.135   2.507
 3552TIP3    H210602   6.677   3.137   2.658
 3553TIP3   OH210603   4.599   4.977   5.700
 3553TIP3    H110604   4.673   4.917   5.690
 3553TIP3    H210605   4.522   4.921   5.706
 3554TIP3   OH210606   1.680   1.506   0.315
 3554TIP3    H110607   1.623   1.525   0.240
 3554TIP3    H210608   1.753   1.567   0.307
 3555TIP3   OH210609   2.556   3.368   2.320
 3555TIP3    H110610   2.559   3.463   2.322
 3555TIP3    H210611   2.614   3.344   2.248
 3556TIP3   OH210612   0.886   1.619   0.273
 3556TIP3    H110613   0.913   1.639   0.184
 3556TIP3    H210614   0.966   1.592   0.317
 3557TIP3   OH210615   1.495   0.794   0.931
 3557TIP3    H110616   1.551   0.871   0.939
 3557TIP3    H210617   1.470   0.791   0.839
 3558TIP3   OH210618   3.624   2.432   0.674
 3558TIP3    H110619   3.645   2.525   0.681
 3558TIP3    H210620   3.672   2.391   0.746
 3559TIP3   OH210621   6.526   3.165   1.493
 3559TIP3    H110622   6.588   3.162   1.567
 3559TIP3    H210623   6.451   3.113   1.522
 3560TIP3   OH210624   5.417   2.209   4.370
 3560TIP3    H110625   5.406   2.135   4.429
 3560TIP3    H210626   5.396   2.174   4.283
 3561TIP3   OH210627   4.525   5.594   4.859
 3561TIP3    H110628   4.495   5.503   4.859
 3561TIP3    H210629   4.451   5.643   4.895
 3562TIP3   OH210630   5.468   3.518   4.512
 3562TIP3    H110631   5.504   3.607   4.515
 3562TIP3    H210632   5.435   3.509   4.423
 3563TIP3   OH210633   5.862   7.636   0.437
 3563TIP3    H110634   5.914   7.603   0.510
 3563TIP3    H210635   5.926   7.677   0.379
 3564TIP3   OH210636   0.258   4.329   0.171
 3564TIP3    H110637   0.278   4.391   0.241
 3564TIP3    H210638   0.164   4.314   0.178
 3565TIP3   OH210639   6.607   4.691   1.586
 3565TIP3    H110640   6.532   4.689   1.646
 3565TIP3    H210641   6.679   4.726   1.639
 3566TIP3   OH210642   4.896   4.159   4.979
 3566TIP3    H110643   4.847   4.173   5.060
 3566TIP3    H210644   4.842   4.097   4.929
 3567TIP3   OH210645   4.017   7.462   2.260
 3567TIP3    H110646   3.981   7.487   2.175
 3567TIP3    H210647   4.110   7.484   2.254
 3568TIP3   OH210648   0.691   7.523   1.245
 3568TIP3    H110649   0.693   7.440   1.293
 3568TIP3    H210650   0.616   7.569   1.280
 3569TIP3   OH210651   0.016   6.603   4.224
 3569TIP3    H110652   0.004   6.692   4.256
 3569TIP3    H210653  -0.055   6.553   4.264
 3570TIP3   OH210654   7.194   1.093   0.806
 3570TIP3    H110655   7.146   1.171   0.834
 3570TIP3    H210656   7.262   1.126   0.746
 3571TIP3   OH210657   1.653   3.573   2.517
 3571TIP3    H110658   1.598   3.495   2.507
 3571TIP3    H210659   1.594   3.641   2.548
 3572TIP3   OH210660   5.855   4.214   3.367
 3572TIP3    H110661   5.808   4.293   3.392
 3572TIP3    H210662   5.787   4.155   3.334
 3573TIP3   OH210663   2.879   0.988   6.649
 3573TIP3    H110664   2.822   0.951   6.581
 3573TIP3    H210665   2.964   0.997   6.607
 3574TIP3   OH210666   5.725   4.470   0.226
 3574TIP3    H110667   5.730   4.561   0.256
 3574TIP3    H210668   5.760   4.419   0.299
 3575TIP3   OH210669   3.610   2.864   0.925
 3575TIP3    H110670   3.620   2.865   1.021
 3575TIP3    H210671   3.696   2.838   0.893
 3576TIP3   OH210672   4.303   6.998   4.518
 3576TIP3    H110673   4.365   7.024   4.586
 3576TIP3    H210674   4.307   7.069   4.453
 3577TIP3   OH210675   1.321   3.221   2.134
 3577TIP3    H110676   1.272   3.304   2.140
 3577TIP3    H210677   1.253   3.154   2.131
 3578TIP3   OH210678   6.396   2.748   2.077
 3578TIP3    H110679   6.430   2.679   2.020
 3578TIP3    H210680   6.464   2.815   2.077
 3579TIP3   OH210681   3.623   6.755   4.091
 3579TIP3    H110682   3.616   6.696   4.016
 3579TIP3    H210683   3.534   6.760   4.126
 3580TIP3   OH210684   6.567   2.239   0.258
 3580TIP3    H110685   6.556   2.266   0.167
 3580TIP3    H210686   6.623   2.161   0.253
 3581TIP3   OH210687   6.863   5.166   1.816
 3581TIP3    H110688   6.801   5.200   1.751
 3581TIP3    H210689   6.949   5.196   1.785
 3582TIP3   OH210690   1.724   2.615   5.748
 3582TIP3    H110691   1.678   2.584   5.826
 3582TIP3    H210692   1.720   2.542   5.687
 3583TIP3   OH210693   0.479   6.916   0.207
 3583TIP3    H110694   0.565   6.958   0.198
 3583TIP3    H210695   0.498   6.829   0.243
 3584TIP3   OH210696   4.826   7.343   4.582
 3584TIP3    H110697   4.811   7.251   4.563
 3584TIP3    H210698   4.858   7.380   4.500
 3585TIP3   OH210699   3.680   5.890   1.061
 3585TIP3    H110700   3.669   5.976   1.103
 3585TIP3    H210701   3.622   5.832   1.110
 3586TIP3   OH210702   5.134   1.873   6.335
 3586TIP3    H110703   5.225   1.845   6.334
 3586TIP3    H210704   5.083   1.793   6.347
 3587TIP3   OH210705   7.794   5.766   1.884
 3587TIP3    H110706   7.847   5.761   1.805
 3587TIP3    H210707   7.722   5.825   1.861
 3588TIP3   OH210708   0.324   1.149   5.413
 3588TIP3    H110709   0.280   1.125   5.332
 3588TIP3    H210710   0.397   1.204   5.386
 3589TIP3   OH210711   6.098   3.713   6.536
 3589TIP3    H110712   6.124   3.623   6.556
 3589TIP3    H210713   6.056   3.707   6.450
 3590TIP3   OH210714   7.116   3.837   6.474
 3590TIP3    H110715   7.142   3.886   6.552
 3590TIP3    H210716   7.193   3.838   6.419
 3591TIP3   OH210717   6.276   6.418   4.324
 3591TIP3    H110718   6.291   6.510   4.304
 3591TIP3    H210719   6.280   6.374   4.239
 3592TIP3   OH210720   7.394   6.921   1.824
 3592TIP3    H110721   7.300   6.938   1.814
 3592TIP3    H210722   7.406   6.833   1.789
 3593TIP3   OH210723   7.794   1.535   5.374
 3593TIP3    H110724   7.869   1.497   5.328
 3593TIP3    H210725   7.720   1.480   5.347
 3594TIP3   OH210726   2.057   6.361   0.414
 3594TIP3    H110727   2.134   6.316   0.379
 3594TIP3    H210728   2.062   6.348   0.508
 3595TIP3   OH210729   1.807   3.233   2.553
 3595TIP3    H110730   1.823   3.225   2.459
 3595TIP3    H210731   1.892   3.255   2.590
 3596TIP3   OH210732   7.461   7.507   1.926
 3596TIP3    H110733   7.538   7.499   1.983
 3596TIP3    H210734   7.446   7.419   1.894
 3597TIP3   OH210735   3.434   6.572   6.264
 3597TIP3    H110736   3.364   6.637   6.268
 3597TIP3    H210737   3.451   6.560   6.171
 3598TIP3   OH210738   0.337   4.111   5.244
 3598TIP3    H110739   0.262   4.072   5.198
 3598TIP3    H210740   0.405   4.043   5.240
 3599TIP3   OH210741   6.648   0.132   1.530
 3599TIP3    H110742   6.732   0.165   1.564
 3599TIP3    H210743   6.632   0.185   1.452
 3600TIP3   OH210744   6.440   4.619   2.735
 3600TIP3    H110745   6.437   4.531   2.698
 3600TIP3    H210746   6.410   4.608   2.825
 3601TIP3   OH210747   2.201   6.248   1.972
 3601TIP3    H110748   2.129   6.308   1.991
 3601TIP3    H210749   2.250   6.291   1.902
 3602TIP3   OH210750   3.286   2.132   5.587
 3602TIP3    H110751   3.209   2.174   5.547
 3602TIP3    H210752   3.260   2.115   5.677
 3603TIP3   OH210753   2.800   2.892   0.185
 3603TIP3    H110754   2.714   2.864   0.155
 3603TIP3    H210755   2.788   2.983   0.213
 3604TIP3   OH210756   2.998   6.857   3.710
 3604TIP3    H110757   2.905   6.839   3.719
 3604TIP3    H210758   3.012   6.867   3.616
 3605TIP3   OH210759   6.706   0.279   2.789
 3605TIP3    H110760   6.703   0.284   2.885
 3605TIP3    H210761   6.748   0.195   2.771
 3606TIP3   OH210762   6.397   3.862   6.085
 3606TIP3    H110763   6.401   3.896   6.174
 3606TIP3    H210764   6.350   3.779   6.094
 3607TIP3   OH210765   8.128   3.493   6.235
 3607TIP3    H110766   8.120   3.465   6.327
 3607TIP3    H210767   8.038   3.510   6.207
 3608TIP3   OH210768   3.649   6.558   4.283
 3608TIP3    H110769   3.682   6.637   4.241
 3608TIP3    H210770   3.596   6.590   4.357
 3609TIP3   OH210771   1.380   4.457   1.009
 3609TIP3    H110772   1.306   4.509   1.042
 3609TIP3    H210773   1.367   4.370   1.046
 3610TIP3   OH210774   6.068   2.277   6.435
 3610TIP3    H110775   6.153   2.267   6.391
 3610TIP3    H210776   6.007   2.298   6.365
 3611TIP3   OH210777   4.794   2.654   5.907
 3611TIP3    H110778   4.792   2.663   6.002
 3611TIP3    H210779   4.704   2.673   5.879
 3612TIP3   OH210780   4.590   1.253   0.772
 3612TIP3    H110781   4.662   1.316   0.766
 3612TIP3    H210782   4.628   1.171   0.739
 3613TIP3   OH210783   7.368   4.402   4.228
 3613TIP3    H110784   7.444   4.459   4.238
 3613TIP3    H210785   7.296   4.452   4.265
 3614TIP3   OH210786   5.998   6.816   5.186
 3614TIP3    H110787   6.010   6.766   5.266
 3614TIP3    H210788   6.072   6.791   5.130
 3615TIP3   OH210789   8.174   1.672   5.660
 3615TIP3    H110790   8.146   1.583   5.681
 3615TIP3    H210791   8.260   1.680   5.701
 3616TIP3   OH210792   7.923   1.201   4.911
 3616TIP3    H110793   7.882   1.178   4.827
 3616TIP3    H210794   7.881   1.283   4.936
 3617TIP3   OH210795   1.018   3.736   5.921
 3617TIP3    H110796   1.089   3.788   5.958
 3617TIP3    H210797   0.977   3.694   5.996
 3618TIP3   OH210798   2.436   7.281   6.377
 3618TIP3    H110799   2.509   7.312   6.324
 3618TIP3    H210800   2.474   7.213   6.433
 3619TIP3   OH210801   5.301   0.184   6.310
 3619TIP3    H110802   5.264   0.249   6.371
 3619TIP3    H210803   5.338   0.116   6.367
 3620TIP3   OH210804   6.631   2.443   5.992
 3620TIP3    H110805   6.668   2.403   6.071
 3620TIP3    H210806   6.639   2.537   6.007
 3621TIP3   OH210807   0.377   2.484   0.129
 3621TIP3    H110808   0.392   2.523   0.043
 3621TIP3    H210809   0.462   2.449   0.155
 3622TIP3   OH210810   4.231   4.743   1.485
 3622TIP3    H110811   4.188   4.791   1.555
 3622TIP3    H210812   4.170   4.672   1.463
 3623TIP3   OH210813   5.751   4.747   4.709
 3623TIP3    H110814   5.756   4.695   4.790
 3623TIP3    H210815   5.658   4.765   4.698
 3624TIP3   OH210816   3.504   7.107   3.223
 3624TIP3    H110817   3.524   7.147   3.138
 3624TIP3    H210818   3.425   7.151   3.252
 3625TIP3   OH210819   3.281   1.151   2.776
 3625TIP3    H110820   3.290   1.095   2.853
 3625TIP3    H210821   3.294   1.240   2.809
 3626TIP3   OH210822   5.836   3.204   1.722
 3626TIP3    H110823   5.929   3.226   1.711
 3626TIP3    H210824   5.836   3.109   1.735
 3627TIP3   OH210825   3.312   5.068   4.832
 3627TIP3    H110826   3.258   5.128   4.780
 3627TIP3    H210827   3.365   5.126   4.887
 3628TIP3   OH210828   3.920   0.207   0.117
 3628TIP3    H110829   3.977   0.140   0.080
 3628TIP3    H210830   3.897   0.174   0.204
 3629TIP3   OH210831   3.616   1.102   2.638
 3629TIP3    H110832   3.603   1.196   2.633
 3629TIP3    H210833   3.600   1.080   2.730
 3630TIP3   OH210834   1.742   5.773   1.549
 3630TIP3    H110835   1.699   5.821   1.479
 3630TIP3    H210836   1.730   5.827   1.627
 3631TIP3   OH210837   0.614   4.530   1.017
 3631TIP3    H110838   0.552   4.570   1.078
 3631TIP3    H210839   0.589   4.438   1.015
 3632TIP3   OH210840   4.581   1.238   2.099
 3632TIP3    H110841   4.539   1.324   2.096
 3632TIP3    H210842   4.526   1.182   2.044
 3633TIP3   OH210843   6.945   5.515   4.319
 3633TIP3    H110844   7.011   5.582   4.335
 3633TIP3    H210845   6.940   5.465   4.401
 3634TIP3   OH210846   1.900   3.769   3.152
 3634TIP3    H110847   1.989   3.780   3.117
 3634TIP3    H210848   1.861   3.856   3.146
 3635TIP3   OH210849   3.964   6.005   0.528
 3635TIP3    H110850   4.006   6.070   0.471
 3635TIP3    H210851   3.905   6.057   0.583
 3636TIP3   OH210852   3.694   2.504   3.651
 3636TIP3    H110853   3.729   2.576   3.598
 3636TIP3    H210854   3.667   2.438   3.588
 3637TIP3   OH210855   3.838   3.588   2.349
 3637TIP3    H110856   3.933   3.588   2.356
 3637TIP3    H210857   3.808   3.610   2.437
 3638TIP3   OH210858   0.077   4.648   1.406
 3638TIP3    H110859   0.150   4.588   1.395
 3638TIP3    H210860   0.026   4.610   1.478
 3639TIP3   OH210861   2.026   6.534   5.785
 3639TIP3    H110862   2.074   6.480   5.847
 3639TIP3    H210863   1.966   6.474   5.742
 3640TIP3   OH210864   2.956   3.115   1.578
 3640TIP3    H110865   2.878   3.131   1.525
 3640TIP3    H210866   2.923   3.092   1.664
 3641TIP3   OH210867   1.584   1.142   4.455
 3641TIP3    H110868   1.586   1.145   4.550
 3641TIP3    H210869   1.551   1.228   4.429
 3642TIP3   OH210870   1.033   2.045   0.164
 3642TIP3    H110871   0.969   1.977   0.185
 3642TIP3    H210872   1.004   2.121   0.214
 3643TIP3   OH210873   5.318   4.967   4.232
 3643TIP3    H110874   5.311   4.906   4.159
 3643TIP3    H210875   5.322   5.054   4.191
 3644TIP3   OH210876   0.539   5.681   0.703
 3644TIP3    H110877   0.503   5.768   0.718
 3644TIP3    H210878   0.487   5.623   0.758
 3645TIP3   OH210879   8.094   0.457   2.702
 3645TIP3    H110880   8.138   0.526   2.652
 3645TIP3    H210881   8.014   0.499   2.734
 3646TIP3   OH210882   1.748   5.520   3.848
 3646TIP3    H110883   1.715   5.564   3.769
 3646TIP3    H210884   1.750   5.427   3.825
 3647TIP3   OH210885   8.262   5.883   6.561
 3647TIP3    H110886   8.350   5.870   6.596
 3647TIP3    H210887   8.264   5.970   6.522
 3648TIP3   OH210888   0.254   7.598   2.576
 3648TIP3    H110889   0.196   7.550   2.635
 3648TIP3    H210890   0.335   7.547   2.574
 3649TIP3   OH210891   2.769   1.675   5.905
 3649TIP3    H110892   2.712   1.707   5.835
 3649TIP3    H210893   2.770   1.746   5.969
 3650TIP3   OH210894   6.009   4.888   6.365
 3650TIP3    H110895   6.060   4.895   6.284
 3650TIP3    H210896   6.040   4.961   6.418
 3651TIP3   OH210897   1.652   5.357   5.031
 3651TIP3    H110898   1.714   5.283   5.027
 3651TIP3    H210899   1.665   5.403   4.948
 3652TIP3   OH210900   0.014   4.473   1.646
 3652TIP3    H110901  -0.011   4.381   1.637
 3652TIP3    H210902   0.034   4.483   1.738
 3653TIP3   OH210903   3.179   3.116   5.882
 3653TIP3    H110904   3.261   3.071   5.863
 3653TIP3    H210905   3.142   3.136   5.796
 3654TIP3   OH210906   1.534   1.977   4.148
 3654TIP3    H110907   1.491   2.055   4.185
 3654TIP3    H210908   1.575   2.009   4.067
 3655TIP3   OH210909   6.415   2.206   3.144
 3655TIP3    H110910   6.322   2.220   3.163
 3655TIP3    H210911   6.423   2.112   3.133
 3656TIP3   OH210912   7.319   0.091   4.161
 3656TIP3    H110913   7.250   0.108   4.097
 3656TIP3    H210914   7.289   0.013   4.208
 3657TIP3   OH210915   7.443   1.292   5.119
 3657TIP3    H110916   7.539   1.297   5.115
 3657TIP3    H210917   7.415   1.383   5.131
 3658TIP3   OH210918   1.226   0.041   1.143
 3658TIP3    H110919   1.251  -0.039   1.188
 3658TIP3    H210920   1.270   0.035   1.058
 3659TIP3   OH210921   4.177   2.157   0.750
 3659TIP3    H110922   4.218   2.143   0.835
 3659TIP3    H210923   4.184   2.072   0.706
 3660TIP3   OH210924   8.121   6.464   1.201
 3660TIP3    H110925   8.072   6.431   1.126
 3660TIP3    H210926   8.212   6.441   1.182
 3661TIP3   OH210927   2.503   1.363   4.026
 3661TIP3    H110928   2.417   1.401   4.044
 3661TIP3    H210929   2.487   1.292   3.964
 3662TIP3   OH210930   0.569   6.353   4.128
 3662TIP3    H110931   0.604   6.345   4.039
 3662TIP3    H210932   0.488   6.302   4.127
 3663TIP3   OH210933   2.363   6.704   4.990
 3663TIP3    H110934   2.397   6.752   5.066
 3663TIP3    H210935   2.423   6.631   4.980
 3664TIP3   OH210936   8.065   1.913   5.609
 3664TIP3    H110937   7.974   1.919   5.581
 3664TIP3    H210938   8.088   1.821   5.598
 3665TIP3   OH210939   6.457   4.990   3.508
 3665TIP3    H110940   6.372   4.962   3.541
 3665TIP3    H210941   6.519   4.964   3.577
 3666TIP3   OH210942   1.491   4.991   6.518
 3666TIP3    H110943   1.405   5.024   6.545
 3666TIP3    H210944   1.488   4.992   6.422
 3667TIP3   OH210945   0.860   5.249   3.394
 3667TIP3    H110946   0.789   5.291   3.347
 3667TIP3    H210947   0.846   5.155   3.380
 3668TIP3   OH210948   7.349   4.858   5.578
 3668TIP3    H110949   7.408   4.882   5.507
 3668TIP3    H210950   7.353   4.932   5.639
 3669TIP3   OH210951   6.775   5.406   5.923
 3669TIP3    H110952   6.853   5.430   5.974
 3669TIP3    H210953   6.719   5.483   5.928
 3670TIP3   OH210954   3.379   6.190   2.945
 3670TIP3    H110955   3.330   6.121   2.988
 3670TIP3    H210956   3.317   6.226   2.880
 3671TIP3   OH210957   2.149   6.115   3.400
 3671TIP3    H110958   2.235   6.076   3.386
 3671TIP3    H210959   2.118   6.079   3.483
 3672TIP3   OH210960   7.837   2.820   6.117
 3672TIP3    H110961   7.872   2.794   6.202
 3672TIP3    H210962   7.903   2.790   6.054
 3673TIP3   OH210963   4.547   1.384   6.258
 3673TIP3    H110964   4.501   1.382   6.342
 3673TIP3    H210965   4.501   1.319   6.204
 3674TIP3   OH210966   1.456   4.004   0.741
 3674TIP3    H110967   1.448   3.909   0.732
 3674TIP3    H210968   1.540   4.025   0.699
 3675TIP3   OH210969   4.888   1.105   3.481
 3675TIP3    H110970   4.957   1.159   3.519
 3675TIP3    H210971   4.900   1.114   3.386
 3676TIP3   OH210972   3.632   7.283   1.474
 3676TIP3    H110973   3.657   7.311   1.562
 3676TIP3    H210974   3.601   7.193   1.484
 3677TIP3   OH210975   5.545   0.614   3.183
 3677TIP3    H110976   5.628   0.568   3.170
 3677TIP3    H210977   5.505   0.616   3.095
 3678TIP3   OH210978   1.425   5.059   5.367
 3678TIP3    H110979   1.496   5.017   5.416
 3678TIP3    H210980   1.457   5.147   5.350
 3679TIP3   OH210981   3.298   0.975   5.456
 3679TIP3    H110982   3.209   1.000   5.481
 3679TIP3    H210983   3.308   1.006   5.366
 3680TIP3   OH210984   2.772   5.632   6.630
 3680TIP3    H110985   2.726   5.632   6.714
 3680TIP3    H210986   2.822   5.714   6.630
 3681TIP3   OH210987   0.882   6.621   3.172
 3681TIP3    H110988   0.959   6.673   3.195
 3681TIP3    H210989   0.891   6.607   3.077
 3682TIP3   OH210990   3.125   1.716   0.242
 3682TIP3    H110991   3.196   1.769   0.277
 3682TIP3    H210992   3.119   1.642   0.301
 3683TIP3   OH210993   2.704   4.424   6.568
 3683TIP3    H110994   2.678   4.344   6.522
 3683TIP3    H210995   2.652   4.423   6.648
 3684TIP3   OH210996   2.674   7.018   0.566
 3684TIP3    H110997   2.626   6.962   0.627
 3684TIP3    H210998   2.749   6.965   0.540
 3685TIP3   OH210999   1.920   0.956   2.164
 3685TIP3    H111000   1.932   0.917   2.250
 3685TIP3    H211001   2.008   0.967   2.130
 3686TIP3   OH211002   3.243   0.025   3.790
 3686TIP3    H111003   3.279  -0.036   3.726
 3686TIP3    H211004   3.255   0.111   3.749
 3687TIP3   OH211005   5.982   0.877   2.771
 3687TIP3    H111006   5.912   0.942   2.769
 3687TIP3    H211007   5.947   0.802   2.723
 3688TIP3   OH211008   3.798   6.196   6.690
 3688TIP3    H111009   3.883   6.229   6.659
 3688TIP3    H211010   3.754   6.167   6.610
 3689TIP3   OH211011   7.421   7.137   6.239
 3689TIP3    H111012   7.415   7.205   6.173
 3689TIP3    H211013   7.508   7.098   6.227
 3690TIP3   OH211014   6.624   4.102   6.291
 3690TIP3    H111015   6.597   4.163   6.222
 3690TIP3    H211016   6.717   4.085   6.273
 3691TIP3   OH211017   0.054   7.580   3.979
 3691TIP3    H111018   0.008   7.618   4.053
 3691TIP3    H211019   0.127   7.640   3.962
 3692TIP3   OH211020   1.808   4.789   3.093
 3692TIP3    H111021   1.890   4.825   3.059
 3692TIP3    H211022   1.748   4.864   3.094
 3693TIP3   OH211023   5.220   6.460   3.658
 3693TIP3    H111024   5.220   6.501   3.571
 3693TIP3    H211025   5.282   6.512   3.709
 3694TIP3   OH211026   7.220   2.856   1.894
 3694TIP3    H111027   7.171   2.864   1.812
 3694TIP3    H211028   7.295   2.801   1.872
 3695TIP3   OH211029   4.564   5.796   6.255
 3695TIP3    H111030   4.547   5.870   6.196
 3695TIP3    H211031   4.617   5.833   6.326
 3696TIP3   OH211032   4.129   5.944   6.225
 3696TIP3    H111033   4.187   6.017   6.203
 3696TIP3    H211034   4.168   5.905   6.303
 3697TIP3   OH211035   0.153   6.923   1.789
 3697TIP3    H111036   0.201   6.857   1.739
 3697TIP3    H211037   0.170   7.005   1.744
 3698TIP3   OH211038   0.293   3.069   3.222
 3698TIP3    H111039   0.244   3.107   3.149
 3698TIP3    H211040   0.246   3.098   3.300
 3699TIP3   OH211041   2.137   5.981   5.530
 3699TIP3    H111042   2.151   6.034   5.609
 3699TIP3    H211043   2.192   6.023   5.464
 3700TIP3   OH211044   1.671   1.911   5.191
 3700TIP3    H111045   1.746   1.897   5.133
 3700TIP3    H211046   1.642   1.823   5.214
 3701TIP3   OH211047   7.278   5.386   5.891
 3701TIP3    H111048   7.207   5.437   5.852
 3701TIP3    H211049   7.351   5.447   5.899
 3702TIP3   OH211050   5.086   6.010   1.824
 3702TIP3    H111051   5.012   6.037   1.878
 3702TIP3    H211052   5.050   5.942   1.766
 3703TIP3   OH211053   7.417   1.566   5.058
 3703TIP3    H111054   7.438   1.644   5.109
 3703TIP3    H211055   7.321   1.565   5.055
 3704TIP3   OH211056   2.477   4.040   3.166
 3704TIP3    H111057   2.477   3.945   3.154
 3704TIP3    H211058   2.447   4.075   3.083
 3705TIP3   OH211059   3.950   2.216   5.095
 3705TIP3    H111060   3.905   2.135   5.116
 3705TIP3    H211061   3.962   2.214   5.001
 3706TIP3   OH211062   4.601   3.848   3.435
 3706TIP3    H111063   4.577   3.825   3.346
 3706TIP3    H211064   4.534   3.806   3.489
 3707TIP3   OH211065   2.977   2.454   2.225
 3707TIP3    H111066   3.072   2.446   2.220
 3707TIP3    H211067   2.960   2.546   2.205
 3708TIP3   OH211068   0.943   7.428   6.726
 3708TIP3    H111069   1.019   7.464   6.681
 3708TIP3    H211070   0.868   7.476   6.690
 3709TIP3   OH211071   6.696   2.522   4.259
 3709TIP3    H111072   6.603   2.546   4.261
 3709TIP3    H211073   6.697   2.428   4.273
 3710TIP3   OH211074   2.983   3.187   4.877
 3710TIP3    H111075   2.889   3.203   4.883
 3710TIP3    H211076   2.994   3.095   4.901
 3711TIP3   OH211077   6.414   6.133   2.519
 3711TIP3    H111078   6.326   6.114   2.551
 3711TIP3    H211079   6.422   6.228   2.526
 3712TIP3   OH211080   5.642   7.669   2.299
 3712TIP3    H111081   5.554   7.706   2.297
 3712TIP3    H211082   5.649   7.621   2.216
 3713TIP3   OH211083   5.552   4.207   0.269
 3713TIP3    H111084   5.635   4.230   0.311
 3713TIP3    H211085   5.547   4.265   0.193
 3714TIP3   OH211086   7.106   2.952   4.399
 3714TIP3    H111087   7.188   2.905   4.382
 3714TIP3    H211088   7.064   2.959   4.313
 3715TIP3   OH211089   8.135   4.599   0.662
 3715TIP3    H111090   8.072   4.639   0.723
 3715TIP3    H211091   8.198   4.668   0.644
 3716TIP3   OH211092   8.261   7.221   2.528
 3716TIP3    H111093   8.274   7.185   2.441
 3716TIP3    H211094   8.166   7.227   2.537
 3717TIP3   OH211095   4.875   0.105   2.830
 3717TIP3    H111096   4.831   0.126   2.913
 3717TIP3    H211097   4.958   0.064   2.857
 3718TIP3   OH211098   1.029   4.372   5.077
 3718TIP3    H111099   1.021   4.289   5.029
 3718TIP3    H211100   0.952   4.422   5.051
 3719TIP3   OH211101   8.038   7.781   5.317
 3719TIP3    H111102   8.056   7.711   5.380
 3719TIP3    H211103   8.086   7.755   5.238
 3720TIP3   OH211104   6.149   3.367   2.653
 3720TIP3    H111105   6.114   3.372   2.742
 3720TIP3    H211106   6.174   3.457   2.632
 3721TIP3   OH211107   7.973   1.444   2.806
 3721TIP3    H111108   7.919   1.433   2.728
 3721TIP3    H211109   8.032   1.369   2.806
 3722TIP3   OH211110   5.273   4.077   2.862
 3722TIP3    H111111   5.197   4.135   2.872
 3722TIP3    H211112   5.240   3.990   2.886
 3723TIP3   OH211113   3.314   2.407   4.282
 3723TIP3    H111114   3.404   2.376   4.274
 3723TIP3    H211115   3.280   2.361   4.359
 3724TIP3   OH211116   6.509   5.355   3.893
 3724TIP3    H111117   6.509   5.434   3.947
 3724TIP3    H211118   6.475   5.383   3.808
 3725TIP3   OH211119   8.078   1.444   0.749
 3725TIP3    H111120   8.030   1.484   0.677
 3725TIP3    H211121   8.167   1.433   0.715
 3726TIP3   OH211122   0.535   3.388   1.785
 3726TIP3    H111123   0.459   3.440   1.758
 3726TIP3    H211124   0.509   3.350   1.869
 3727TIP3   OH211125   6.395   2.425   4.847
 3727TIP3    H111126   6.365   2.452   4.934
 3727TIP3    H211127   6.445   2.500   4.815
 3728TIP3   OH211128   4.840   6.402   3.049
 3728TIP3    H111129   4.920   6.355   3.027
 3728TIP3    H211130   4.813   6.365   3.133
 3729TIP3   OH211131   5.399   4.372   5.631
 3729TIP3    H111132   5.449   4.433   5.577
 3729TIP3    H211133   5.412   4.286   5.590
 3730TIP3   OH211134   3.585   2.326   5.966
 3730TIP3    H111135   3.494   2.355   5.971
 3730TIP3    H211136   3.584   2.250   5.908
 3731TIP3   OH211137   0.709   1.781   6.498
 3731TIP3    H111138   0.691   1.703   6.552
 3731TIP3    H211139   0.769   1.749   6.430
 3732TIP3   OH211140   7.989   0.393   4.252
 3732TIP3    H111141   7.962   0.462   4.192
 3732TIP3    H211142   7.909   0.372   4.302
 3733TIP3   OH211143   5.301   1.080   5.224
 3733TIP3    H111144   5.220   1.097   5.175
 3733TIP3    H211145   5.308   1.155   5.283
 3734TIP3   OH211146   3.410   1.957   2.549
 3734TIP3    H111147   3.408   1.868   2.514
 3734TIP3    H211148   3.380   2.011   2.476
 3735TIP3   OH211149   2.185   5.261   4.734
 3735TIP3    H111150   2.117   5.193   4.733
 3735TIP3    H211151   2.260   5.220   4.690
 3736TIP3   OH211152   3.428   6.097   3.667
 3736TIP3    H111153   3.418   6.111   3.573
 3736TIP3    H211154   3.521   6.078   3.679
 3737TIP3   OH211155   1.271   3.141   3.833
 3737TIP3    H111156   1.353   3.096   3.851
 3737TIP3    H211157   1.205   3.072   3.829
 3738TIP3   OH211158   0.767   5.182   4.085
 3738TIP3    H111159   0.809   5.263   4.114
 3738TIP3    H211160   0.675   5.205   4.071
 3739TIP3   OH211161   5.248   2.003   5.043
 3739TIP3    H111162   5.235   2.094   5.017
 3739TIP3    H211163   5.226   1.953   4.965
 3740TIP3   OH211164   2.144   0.982   3.682
 3740TIP3    H111165   2.165   0.953   3.593
 3740TIP3    H211166   2.103   1.067   3.670
 3741TIP3   OH211167   2.354   6.298   2.824
 3741TIP3    H111168   2.305   6.373   2.858
 3741TIP3    H211169   2.296   6.260   2.757
 3742TIP3   OH211170   3.893   0.891   5.887
 3742TIP3    H111171   3.883   0.892   5.792
 3742TIP3    H211172   3.886   0.799   5.911
 3743TIP3   OH211173   5.687   5.350   0.056
 3743TIP3    H111174   5.656   5.329  -0.032
 3743TIP3    H211175   5.781   5.365   0.045
 3744TIP3   OH211176   0.064   7.371   6.303
 3744TIP3    H111177   0.085   7.386   6.396
 3744TIP3    H211178   0.148   7.345   6.264
 3745TIP3   OH211179   8.119   5.426   2.797
 3745TIP3    H111180   8.186   5.408   2.863
 3745TIP3    H211181   8.049   5.364   2.817
 3746TIP3   OH211182   1.065   0.981   0.353
 3746TIP3    H111183   1.150   1.001   0.315
 3746TIP3    H211184   1.055   0.887   0.343
 3747TIP3   OH211185   6.695   5.110   6.330
 3747TIP3    H111186   6.712   5.038   6.269
 3747TIP3    H211187   6.602   5.102   6.351
 3748TIP3   OH211188   2.226   5.144   1.582
 3748TIP3    H111189   2.273   5.099   1.652
 3748TIP3    H211190   2.155   5.085   1.558
 3749TIP3   OH211191   7.782   4.914   4.208
 3749TIP3    H111192   7.869   4.875   4.205
 3749TIP3    H211193   7.796   5.007   4.193
 3750TIP3   OH211194   2.034   2.216   2.951
 3750TIP3    H111195   2.127   2.238   2.949
 3750TIP3    H211196   1.990   2.301   2.963
 3751TIP3   OH211197   6.139   1.639   2.164
 3751TIP3    H111198   6.227   1.663   2.191
 3751TIP3    H211199   6.084   1.712   2.194
 3752TIP3   OH211200   1.795   4.594   5.080
 3752TIP3    H111201   1.709   4.609   5.039
 3752TIP3    H211202   1.776   4.590   5.173
 3753TIP3   OH211203   1.882   0.025   4.691
 3753TIP3    H111204   1.868   0.116   4.717
 3753TIP3    H211205   1.977   0.014   4.692
 3754TIP3   OH211206   8.016   0.979   0.455
 3754TIP3    H111207   8.087   0.918   0.476
 3754TIP3    H211208   7.984   0.950   0.370
 3755TIP3   OH211209   3.620   2.442   3.928
 3755TIP3    H111210   3.602   2.446   3.834
 3755TIP3    H211211   3.698   2.387   3.935
 3756TIP3   OH211212   8.043   2.967   0.377
 3756TIP3    H111213   8.018   3.055   0.406
 3756TIP3    H211214   8.020   2.965   0.284
 3757TIP3   OH211215   7.388   2.576   1.307
 3757TIP3    H111216   7.298   2.558   1.281
 3757TIP3    H211217   7.380   2.637   1.380
 3758TIP3   OH211218   5.037   4.417   3.954
 3758TIP3    H111219   4.944   4.436   3.963
 3758TIP3    H211220   5.045   4.324   3.975
 3759TIP3   OH211221   6.674   5.212   1.597
 3759TIP3    H111222   6.619   5.279   1.638
 3759TIP3    H211223   6.654   5.220   1.503
 3760TIP3   OH211224   6.487   7.384   1.138
 3760TIP3    H111225   6.467   7.438   1.214
 3760TIP3    H211226   6.580   7.398   1.122
 3761TIP3   OH211227   7.512   1.005   5.420
 3761TIP3    H111228   7.518   1.081   5.477
 3761TIP3    H211229   7.519   0.930   5.479
 3762TIP3   OH211230   6.200   0.996   3.295
 3762TIP3    H111231   6.120   0.980   3.344
 3762TIP3    H211232   6.217   0.914   3.249
 3763TIP3   OH211233   6.364   1.208   3.862
 3763TIP3    H111234   6.386   1.301   3.861
 3763TIP3    H211235   6.449   1.164   3.858
 3764TIP3   OH211236   1.492   0.031   6.727
 3764TIP3    H111237   1.465   0.069   6.643
 3764TIP3    H211238   1.463  -0.060   6.722
 3765TIP3   OH211239   5.085   0.928   5.418
 3765TIP3    H111240   5.129   0.883   5.346
 3765TIP3    H211241   5.024   0.988   5.375
 3766TIP3   OH211242   4.909   2.669   5.644
 3766TIP3    H111243   4.828   2.640   5.602
 3766TIP3    H211244   4.887   2.674   5.737
 3767TIP3   OH211245   0.084   3.344   1.768
 3767TIP3    H111246   0.110   3.336   1.677
 3767TIP3    H211247  -0.012   3.352   1.765
 3768TIP3   OH211248   5.654   3.029   0.835
 3768TIP3    H111249   5.568   3.000   0.863
 3768TIP3    H211250   5.711   2.954   0.851
 3769TIP3   OH211251   4.363   2.821   6.353
 3769TIP3    H111252   4.322   2.888   6.407
 3769TIP3    H211253   4.341   2.738   6.395
 3770TIP3   OH211254   1.486   6.848   3.717
 3770TIP3    H111255   1.509   6.909   3.787
 3770TIP3    H211256   1.520   6.890   3.638
 3771TIP3   OH211257   7.983   0.905   4.481
 3771TIP3    H111258   8.033   0.986   4.469
 3771TIP3    H211259   8.031   0.857   4.549
 3772TIP3   OH211260   2.711   2.296   0.438
 3772TIP3    H111261   2.725   2.201   0.442
 3772TIP3    H211262   2.792   2.330   0.400
 3773TIP3   OH211263   0.472   4.395   5.092
 3773TIP3    H111264   0.506   4.343   5.019
 3773TIP3    H211265   0.479   4.486   5.062
 3774TIP3   OH211266   0.464   4.663   1.245
 3774TIP3    H111267   0.442   4.660   1.339
 3774TIP3    H211268   0.382   4.643   1.201
 3775TIP3   OH211269   0.118   3.297   6.629
 3775TIP3    H111270   0.210   3.321   6.636
 3775TIP3    H211271   0.104   3.285   6.535
 3776TIP3   OH211272   1.142   5.198   3.387
 3776TIP3    H111273   1.115   5.271   3.331
 3776TIP3    H211274   1.060   5.165   3.424
 3777TIP3   OH211275   7.926   3.148   4.610
 3777TIP3    H111276   7.870   3.182   4.540
 3777TIP3    H211277   7.900   3.196   4.688
 3778TIP3   OH211278   7.201   3.233   0.282
 3778TIP3    H111279   7.229   3.250   0.372
 3778TIP3    H211280   7.135   3.301   0.264
 3779TIP3   OH211281   8.140   5.977   2.981
 3779TIP3    H111282   8.191   6.058   2.973
 3779TIP3    H211283   8.139   5.940   2.893
 3780TIP3   OH211284   2.377   3.172   5.275
 3780TIP3    H111285   2.468   3.201   5.267
 3780TIP3    H211286   2.369   3.140   5.365
 3781TIP3   OH211287   4.267   0.629   2.812
 3781TIP3    H111288   4.286   0.541   2.778
 3781TIP3    H211289   4.332   0.642   2.881
 3782TIP3   OH211290   0.204   6.749   4.501
 3782TIP3    H111291   0.131   6.761   4.440
 3782TIP3    H211292   0.268   6.815   4.475
 3783TIP3   OH211293   1.306   5.764   6.281
 3783TIP3    H111294   1.258   5.818   6.218
 3783TIP3    H211295   1.395   5.800   6.280
 3784TIP3   OH211296   5.492   4.407   0.053
 3784TIP3    H111297   5.434   4.477   0.027
 3784TIP3    H211298   5.572   4.451   0.082
 3785TIP3   OH211299   2.751   5.373   5.486
 3785TIP3    H111300   2.718   5.359   5.397
 3785TIP3    H211301   2.687   5.432   5.526
 3786TIP3   OH211302   7.402   1.512   5.389
 3786TIP3    H111303   7.308   1.526   5.379
 3786TIP3    H211304   7.442   1.587   5.346
 3787TIP3   OH211305   4.397   6.804   3.024
 3787TIP3    H111306   4.367   6.825   2.936
 3787TIP3    H211307   4.470   6.864   3.040
 3788TIP3   OH211308   4.776   5.256   6.438
 3788TIP3    H111309   4.720   5.291   6.507
 3788TIP3    H211310   4.780   5.162   6.456
 3789TIP3   OH211311   3.043   6.760   4.329
 3789TIP3    H111312   3.091   6.687   4.368
 3789TIP3    H211313   2.999   6.722   4.253
 3790TIP3   OH211314   4.378   4.413   5.255
 3790TIP3    H111315   4.435   4.384   5.328
 3790TIP3    H211316   4.345   4.331   5.218
 3791TIP3   OH211317   4.508   4.186   3.071
 3791TIP3    H111318   4.538   4.275   3.089
 3791TIP3    H211319   4.524   4.174   2.978
 3792TIP3   OH211320   0.568   2.201   4.716
 3792TIP3    H111321   0.640   2.147   4.749
 3792TIP3    H211322   0.584   2.288   4.752
 3793TIP3   OH211323   6.323   6.963   3.004
 3793TIP3    H111324   6.247   6.906   3.017
 3793TIP3    H211325   6.341   6.956   2.910
 3794TIP3   OH211326   4.944   2.226   5.606
 3794TIP3    H111327   4.941   2.288   5.678
 3794TIP3    H211328   5.032   2.189   5.609
 3795TIP3   OH211329   4.160   6.503   5.179
 3795TIP3    H111330   4.121   6.438   5.120
 3795TIP3    H211331   4.216   6.556   5.123
 3796TIP3   OH211332   0.386   6.623   0.242
 3796TIP3    H111333   0.407   6.574   0.163
 3796TIP3    H211334   0.299   6.657   0.227
 3797TIP3   OH211335   2.234   4.417   5.372
 3797TIP3    H111336   2.254   4.356   5.301
 3797TIP3    H211337   2.139   4.426   5.370
 3798TIP3   OH211338   7.728   0.313   2.477
 3798TIP3    H111339   7.669   0.266   2.418
 3798TIP3    H211340   7.686   0.307   2.563
 3799TIP3   OH211341   3.622   5.563   5.189
 3799TIP3    H111342   3.559   5.624   5.226
 3799TIP3    H211343   3.631   5.495   5.256
 3800TIP3   OH211344   2.294   4.489   0.326
 3800TIP3    H111345   2.272   4.505   0.234
 3800TIP3    H211346   2.337   4.570   0.355
 3801TIP3   OH211347   2.544   4.273   1.219
 3801TIP3    H111348   2.593   4.212   1.273
 3801TIP3    H211349   2.542   4.354   1.270
 3802TIP3   OH211350   3.546   4.618   1.767
 3802TIP3    H111351   3.614   4.560   1.734
 3802TIP3    H211352   3.504   4.568   1.838
 3803TIP3   OH211353   0.519   1.602   3.405
 3803TIP3    H111354   0.428   1.629   3.412
 3803TIP3    H211355   0.560   1.633   3.486
 3804TIP3   OH211356   3.987   2.039   3.264
 3804TIP3    H111357   3.929   2.022   3.190
 3804TIP3    H211358   4.053   2.099   3.229
 3805TIP3   OH211359   3.806   4.189   5.563
 3805TIP3    H111360   3.819   4.277   5.600
 3805TIP3    H211361   3.740   4.202   5.494
 3806TIP3   OH211362   0.054   7.014   5.811
 3806TIP3    H111363   0.128   6.993   5.868
 3806TIP3    H211364  -0.002   6.936   5.815
 3807TIP3   OH211365   0.144   6.461   1.524
 3807TIP3    H111366   0.203   6.473   1.449
 3807TIP3    H211367   0.063   6.427   1.486
 3808TIP3   OH211368   1.980   2.669   5.825
 3808TIP3    H111369   1.993   2.588   5.875
 3808TIP3    H211370   1.897   2.655   5.779
 3809TIP3   OH211371   2.530   1.959   6.213
 3809TIP3    H111372   2.578   1.961   6.295
 3809TIP3    H211373   2.438   1.955   6.239
 3810TIP3   OH211374   5.508   7.642   1.594
 3810TIP3    H111375   5.477   7.699   1.664
 3810TIP3    H211376   5.542   7.564   1.638
 3811TIP3   OH211377   0.560   3.579   1.109
 3811TIP3    H111378   0.623   3.622   1.166
 3811TIP3    H211379   0.552   3.636   1.033
 3812TIP3   OH211380   1.531   7.449   6.440
 3812TIP3    H111381   1.574   7.485   6.518
 3812TIP3    H211382   1.440   7.476   6.449
 3813TIP3   OH211383   1.442   2.725   5.802
 3813TIP3    H111384   1.490   2.698   5.880
 3813TIP3    H211385   1.357   2.683   5.811
 3814TIP3   OH211386   8.272   0.241   5.774
 3814TIP3    H111387   8.247   0.176   5.839
 3814TIP3    H211388   8.366   0.253   5.787
 3815TIP3   OH211389   8.171   5.852   1.693
 3815TIP3    H111390   8.262   5.881   1.693
 3815TIP3    H211391   8.174   5.762   1.660
 3816TIP3   OH211392   5.679   5.156   6.148
 3816TIP3    H111393   5.608   5.219   6.131
 3816TIP3    H211394   5.639   5.092   6.208
 3817TIP3   OH211395   0.791   4.025   4.380
 3817TIP3    H111396   0.852   4.090   4.414
 3817TIP3    H211397   0.847   3.962   4.334
 3818TIP3   OH211398   1.963   4.283   0.961
 3818TIP3    H111399   2.004   4.363   0.928
 3818TIP3    H211400   2.017   4.212   0.926
 3819TIP3   OH211401   7.901   1.469   3.099
 3819TIP3    H111402   7.956   1.532   3.145
 3819TIP3    H211403   7.934   1.471   3.009
 3820TIP3   OH211404   6.995   1.866   4.590
 3820TIP3    H111405   7.065   1.802   4.602
 3820TIP3    H211406   6.942   1.831   4.518
 3821TIP3   OH211407   6.450   6.417   4.885
 3821TIP3    H111408   6.532   6.439   4.930
 3821TIP3    H211409   6.421   6.500   4.846
 3822TIP3   OH211410   3.175   3.722   2.017
 3822TIP3    H111411   3.245   3.657   2.013
 3822TIP3    H211412   3.174   3.751   2.108
 3823TIP3   OH211413   4.312   2.312   3.249
 3823TIP3    H111414   4.405   2.306   3.227
 3823TIP3    H211415   4.268   2.267   3.177
 3824TIP3   OH211416   2.017   2.487   3.284
 3824TIP3    H111417   2.092   2.433   3.310
 3824TIP3    H211418   2.009   2.551   3.355
 3825TIP3   OH211419   8.136   1.831   4.963
 3825TIP3    H111420   8.126   1.778   5.043
 3825TIP3    H211421   8.166   1.768   4.897
 3826TIP3   OH211422   6.130   6.027   2.403
 3826TIP3    H111423   6.187   5.959   2.367
 3826TIP3    H211424   6.085   6.063   2.327
 3827TIP3   OH211425   1.323   3.901   5.562
 3827TIP3    H111426   1.317   3.827   5.502
 3827TIP3    H211427   1.332   3.860   5.649
 3828TIP3   OH211428   2.136   4.913   5.068
 3828TIP3    H111429   2.140   4.832   5.119
 3828TIP3    H211430   2.144   4.883   4.977
 3829TIP3   OH211431   6.916   0.897   4.320
 3829TIP3    H111432   6.864   0.958   4.268
 3829TIP3    H211433   7.001   0.893   4.276
 3830TIP3   OH211434   1.499   5.211   2.722
 3830TIP3    H111435   1.553   5.136   2.698
 3830TIP3    H211436   1.509   5.219   2.817
 3831TIP3   OH211437   3.029   3.380   2.966
 3831TIP3    H111438   2.946   3.412   2.931
 3831TIP3    H211439   3.004   3.332   3.046
 3832TIP3   OH211440   6.587   1.252   2.913
 3832TIP3    H111441   6.677   1.270   2.886
 3832TIP3    H211442   6.580   1.290   3.001
 3833TIP3   OH211443   1.711   2.424   3.466
 3833TIP3    H111444   1.710   2.520   3.470
 3833TIP3    H211445   1.636   2.397   3.519
 3834TIP3   OH211446   3.211   4.426   1.410
 3834TIP3    H111447   3.191   4.508   1.454
 3834TIP3    H211448   3.136   4.410   1.353
 3835TIP3   OH211449   6.071   0.222   6.077
 3835TIP3    H111450   6.075   0.283   6.004
 3835TIP3    H211451   6.006   0.259   6.137
 3836TIP3   OH211452   6.515   3.993   0.340
 3836TIP3    H111453   6.600   4.002   0.383
 3836TIP3    H211454   6.535   3.945   0.259
 3837TIP3   OH211455   0.904   3.689   2.176
 3837TIP3    H111456   0.902   3.600   2.210
 3837TIP3    H211457   0.832   3.692   2.113
 3838TIP3   OH211458   7.583   4.930   5.395
 3838TIP3    H111459   7.613   5.002   5.450
 3838TIP3    H211460   7.651   4.863   5.403
 3839TIP3   OH211461   1.056   3.919   4.794
 3839TIP3    H111462   1.081   3.888   4.707
 3839TIP3    H211463   0.961   3.929   4.790
 3840TIP3   OH211464   7.522   4.252   0.658
 3840TIP3    H111465   7.503   4.300   0.738
 3840TIP3    H211466   7.513   4.317   0.588
 3841TIP3   OH211467   5.733   7.720   4.863
 3841TIP3    H111468   5.781   7.718   4.780
 3841TIP3    H211469   5.766   7.645   4.912
 3842TIP3   OH211470   1.252   6.470   4.347
 3842TIP3    H111471   1.236   6.565   4.343
 3842TIP3    H211472   1.223   6.437   4.262
 3843TIP3   OH211473   0.119   3.095   5.743
 3843TIP3    H111474   0.079   3.165   5.795
 3843TIP3    H211475   0.092   3.014   5.786
 3844TIP3   OH211476   2.077   7.657   0.471
 3844TIP3    H111477   2.087   7.735   0.525
 3844TIP3    H211478   2.078   7.690   0.381
 3845TIP3   OH211479   3.494   5.369   1.685
 3845TIP3    H111480   3.535   5.429   1.747
 3845TIP3    H211481   3.428   5.322   1.737
 3846TIP3   OH211482   4.116   7.028   0.915
 3846TIP3    H111483   4.102   7.088   0.988
 3846TIP3    H211484   4.085   6.944   0.947
 3847TIP3   OH211485   1.085   0.534   2.771
 3847TIP3    H111486   1.061   0.502   2.684
 3847TIP3    H211487   1.028   0.610   2.785
 3848TIP3   OH211488   6.624   0.356   2.091
 3848TIP3    H111489   6.589   0.270   2.114
 3848TIP3    H211490   6.593   0.414   2.161
 3849TIP3   OH211491   2.619   4.970   3.829
 3849TIP3    H111492   2.560   4.927   3.891
 3849TIP3    H211493   2.637   4.902   3.763
 3850TIP3   OH211494   2.640   3.563   2.604
 3850TIP3    H111495   2.677   3.490   2.555
 3850TIP3    H211496   2.635   3.531   2.694
 3851TIP3   OH211497   0.642   1.513   2.746
 3851TIP3    H111498   0.641   1.419   2.731
 3851TIP3    H211499   0.666   1.523   2.838
 3852TIP3   OH211500   0.858   7.225   2.542
 3852TIP3    H111501   0.780   7.272   2.572
 3852TIP3    H211502   0.850   7.223   2.447
 3853TIP3   OH211503   4.112   5.187   2.126
 3853TIP3    H111504   4.155   5.226   2.203
 3853TIP3    H211505   4.152   5.233   2.052
 3854TIP3   OH211506   4.927   6.413   6.066
 3854TIP3    H111507   4.957   6.418   5.975
 3854TIP3    H211508   4.904   6.503   6.089
 3855TIP3   OH211509   7.832   4.099   3.713
 3855TIP3    H111510   7.816   4.040   3.641
 3855TIP3    H211511   7.752   4.151   3.721
 3856TIP3   OH211512   6.674   1.152   5.860
 3856TIP3    H111513   6.596   1.107   5.891
 3856TIP3    H211514   6.737   1.144   5.932
 3857TIP3   OH211515   2.350   4.452   4.092
 3857TIP3    H111516   2.441   4.466   4.120
 3857TIP3    H211517   2.356   4.445   3.996
 3858TIP3   OH211518   0.682   6.012   1.275
 3858TIP3    H111519   0.739   6.083   1.304
 3858TIP3    H211520   0.713   5.935   1.323
 3859TIP3   OH211521   5.510   2.354   5.855
 3859TIP3    H111522   5.417   2.332   5.858
 3859TIP3    H211523   5.554   2.270   5.844
 3860TIP3   OH211524   2.742   5.663   0.709
 3860TIP3    H111525   2.835   5.680   0.694
 3860TIP3    H211526   2.698   5.743   0.680
 3861TIP3   OH211527   7.902   7.399   4.534
 3861TIP3    H111528   7.813   7.370   4.511
 3861TIP3    H211529   7.959   7.329   4.502
 3862TIP3   OH211530   6.793   5.351   6.294
 3862TIP3    H111531   6.755   5.263   6.299
 3862TIP3    H211532   6.876   5.339   6.248
 3863TIP3   OH211533   3.508   5.763   2.834
 3863TIP3    H111534   3.519   5.821   2.909
 3863TIP3    H211535   3.413   5.756   2.823
 3864TIP3   OH211536   0.629   6.560   6.614
 3864TIP3    H111537   0.683   6.638   6.606
 3864TIP3    H211538   0.686   6.488   6.587
 3865TIP3   OH211539   0.686   7.788   3.941
 3865TIP3    H111540   0.741   7.788   3.862
 3865TIP3    H211541   0.597   7.779   3.909
 3866TIP3   OH211542   3.050   6.252   1.598
 3866TIP3    H111543   3.112   6.314   1.636
 3866TIP3    H211544   3.090   6.166   1.614
 3867TIP3   OH211545   0.185   3.591   6.216
 3867TIP3    H111546   0.152   3.512   6.172
 3867TIP3    H211547   0.117   3.614   6.279
 3868TIP3   OH211548   7.760   1.723   3.651
 3868TIP3    H111549   7.677   1.695   3.614
 3868TIP3    H211550   7.737   1.792   3.713
 3869TIP3   OH211551   7.812   1.806   5.409
 3869TIP3    H111552   7.839   1.718   5.381
 3869TIP3    H211553   7.748   1.833   5.343
 3870TIP3   OH211554   2.630   2.264   0.908
 3870TIP3    H111555   2.592   2.282   0.994
 3870TIP3    H211556   2.554   2.250   0.851
 3871TIP3   OH211557   5.502   7.256   5.497
 3871TIP3    H111558   5.520   7.347   5.520
 3871TIP3    H211559   5.510   7.209   5.580
 3872TIP3   OH211560   0.174   3.096   4.453
 3872TIP3    H111561   0.240   3.165   4.442
 3872TIP3    H211562   0.092   3.136   4.423
 3873TIP3   OH211563   7.511   4.218   5.480
 3873TIP3    H111564   7.439   4.155   5.479
 3873TIP3    H211565   7.545   4.214   5.569
 3874TIP3   OH211566   5.738   7.738   1.801
 3874TIP3    H111567   5.714   7.830   1.802
 3874TIP3    H211568   5.781   7.723   1.885
 3875TIP3   OH211569   2.426   6.204   2.276
 3875TIP3    H111570   2.405   6.294   2.248
 3875TIP3    H211571   2.401   6.149   2.202
 3876TIP3   OH211572   4.264   0.297   4.180
 3876TIP3    H111573   4.275   0.274   4.273
 3876TIP3    H211574   4.292   0.388   4.175
 3877TIP3   OH211575   7.992   2.224   2.862
 3877TIP3    H111576   7.929   2.200   2.929
 3877TIP3    H211577   8.068   2.257   2.910
 3878TIP3   OH211578   3.506   7.149   6.296
 3878TIP3    H111579   3.570   7.089   6.335
 3878TIP3    H211580   3.463   7.097   6.228
 3879TIP3   OH211581   2.812   0.369   2.824
 3879TIP3    H111582   2.734   0.417   2.795
 3879TIP3    H211583   2.784   0.278   2.826
 3880TIP3   OH211584   3.975   1.966   0.215
 3880TIP3    H111585   4.031   1.989   0.288
 3880TIP3    H211586   3.910   2.036   0.211
 3881TIP3   OH211587   4.893   5.553   1.347
 3881TIP3    H111588   4.866   5.494   1.277
 3881TIP3    H211589   4.908   5.637   1.304
 3882TIP3   OH211590   2.032   5.400   5.588
 3882TIP3    H111591   2.013   5.489   5.559
 3882TIP3    H211592   2.127   5.399   5.601
 3883TIP3   OH211593   6.565   6.317   5.346
 3883TIP3    H111594   6.612   6.396   5.374
 3883TIP3    H211595   6.473   6.344   5.342
 3884TIP3   OH211596   0.025   2.302   3.709
 3884TIP3    H111597   0.084   2.312   3.785
 3884TIP3    H211598  -0.059   2.334   3.740
 3885TIP3   OH211599   0.978   7.557   3.161
 3885TIP3    H111600   0.903   7.550   3.103
 3885TIP3    H211601   1.042   7.609   3.113
 3886TIP3   OH211602   1.441   1.948   2.799
 3886TIP3    H111603   1.532   1.944   2.830
 3886TIP3    H211604   1.396   1.882   2.852
 3887TIP3   OH211605   4.863   3.686   2.533
 3887TIP3    H111606   4.850   3.591   2.525
 3887TIP3    H211607   4.952   3.700   2.500
 3888TIP3   OH211608   2.440   4.357   2.229
 3888TIP3    H111609   2.472   4.430   2.177
 3888TIP3    H211610   2.422   4.394   2.315
 3889TIP3   OH211611   5.410   6.959   3.056
 3889TIP3    H111612   5.435   7.036   3.005
 3889TIP3    H211613   5.319   6.944   3.033
 3890TIP3   OH211614   3.882   0.185   6.603
 3890TIP3    H111615   3.865   0.279   6.590
 3890TIP3    H211616   3.961   0.168   6.551
 3891TIP3   OH211617   6.266   2.107   2.323
 3891TIP3    H111618   6.297   2.148   2.404
 3891TIP3    H211619   6.323   2.142   2.255
 3892TIP3   OH211620   2.401   2.387   6.498
 3892TIP3    H111621   2.486   2.376   6.457
 3892TIP3    H211622   2.343   2.413   6.426
 3893TIP3   OH211623   7.113   1.835   4.173
 3893TIP3    H111624   7.045   1.863   4.112
 3893TIP3    H211625   7.195   1.859   4.129
 3894TIP3   OH211626   7.942   3.483   3.988
 3894TIP3    H111627   7.847   3.478   3.981
 3894TIP3    H211628   7.965   3.568   3.950
 3895TIP3   OH211629   3.698   1.404   1.099
 3895TIP3    H111630   3.732   1.321   1.066
 3895TIP3    H211631   3.775   1.460   1.104
 3896TIP3   OH211632   7.406   3.688   2.744
 3896TIP3    H111633   7.468   3.662   2.813
 3896TIP3    H211634   7.406   3.614   2.683
 3897TIP3   OH211635   4.207   4.870   6.126
 3897TIP3    H111636   4.233   4.901   6.039
 3897TIP3    H211637   4.111   4.876   6.127
 3898TIP3   OH211638   1.990   6.233   1.030
 3898TIP3    H111639   2.082   6.208   1.031
 3898TIP3    H211640   1.991   6.329   1.024
 3899TIP3   OH211641   3.071   7.344   1.121
 3899TIP3    H111642   2.988   7.307   1.153
 3899TIP3    H211643   3.103   7.396   1.194
 3900TIP3   OH211644   0.314   6.342   1.979
 3900TIP3    H111645   0.337   6.370   1.890
 3900TIP3    H211646   0.308   6.424   2.029
 3901TIP3   OH211647   2.728   0.735   2.263
 3901TIP3    H111648   2.652   0.692   2.302
 3901TIP3    H211649   2.760   0.794   2.331
 3902TIP3   OH211650   4.001   7.700   1.488
 3902TIP3    H111651   3.948   7.778   1.503
 3902TIP3    H211652   4.091   7.729   1.506
 3903TIP3   OH211653   7.444   0.515   2.551
 3903TIP3    H111654   7.525   0.484   2.592
 3903TIP3    H211655   7.453   0.611   2.549
 3904TIP3   OH211656   3.021   1.808   1.477
 3904TIP3    H111657   3.003   1.902   1.466
 3904TIP3    H211658   3.050   1.800   1.568
 3905TIP3   OH211659   6.248   7.365   3.434
 3905TIP3    H111660   6.328   7.378   3.384
 3905TIP3    H211661   6.196   7.304   3.383
 3906TIP3   OH211662   7.419   2.640   6.578
 3906TIP3    H111663   7.408   2.548   6.602
 3906TIP3    H211664   7.442   2.683   6.660
 3907TIP3   OH211665   3.957   6.448   1.070
 3907TIP3    H111666   4.016   6.424   1.141
 3907TIP3    H211667   3.886   6.496   1.113
 3908TIP3   OH211668   5.534   3.232   3.632
 3908TIP3    H111669   5.585   3.299   3.587
 3908TIP3    H211670   5.518   3.165   3.566
 3909TIP3   OH211671   7.893   6.146   5.729
 3909TIP3    H111672   7.882   6.097   5.648
 3909TIP3    H211673   7.851   6.093   5.796
 3910TIP3   OH211674   4.768   5.333   6.156
 3910TIP3    H111675   4.796   5.280   6.231
 3910TIP3    H211676   4.698   5.282   6.115
 3911TIP3   OH211677   5.135   0.868   1.641
 3911TIP3    H111678   5.207   0.839   1.698
 3911TIP3    H211679   5.173   0.870   1.554
 3912TIP3   OH211680   1.367   4.857   5.824
 3912TIP3    H111681   1.422   4.894   5.755
 3912TIP3    H211682   1.346   4.769   5.793
 3913TIP3   OH211683   2.590   4.348   1.785
 3913TIP3    H111684   2.506   4.303   1.792
 3913TIP3    H211685   2.642   4.292   1.727
 3914TIP3   OH211686   8.009   5.919   0.744
 3914TIP3    H111687   8.089   5.942   0.698
 3914TIP3    H211688   8.025   5.946   0.835
 3915TIP3   OH211689   2.080   1.401   1.164
 3915TIP3    H111690   2.145   1.417   1.233
 3915TIP3    H211691   2.126   1.423   1.083
 3916TIP3   OH211692   3.822   0.259   0.415
 3916TIP3    H111693   3.883   0.188   0.434
 3916TIP3    H211694   3.845   0.329   0.476
 3917TIP3   OH211695   5.083   5.804   3.586
 3917TIP3    H111696   5.016   5.854   3.633
 3917TIP3    H211697   5.131   5.870   3.537
 3918TIP3   OH211698   4.893   1.773   5.943
 3918TIP3    H111699   4.951   1.833   5.989
 3918TIP3    H211700   4.807   1.814   5.950
 3919TIP3   OH211701   7.945   2.351   0.523
 3919TIP3    H111702   8.028   2.379   0.484
 3919TIP3    H211703   7.892   2.324   0.449
 3920TIP3   OH211704   0.266   5.892   2.665
 3920TIP3    H111705   0.307   5.807   2.683
 3920TIP3    H211706   0.310   5.923   2.586
 3921TIP3   OH211707   5.567   5.628   2.363
 3921TIP3    H111708   5.636   5.581   2.410
 3921TIP3    H211709   5.610   5.709   2.333
 3922TIP3   OH211710   3.201   0.316   3.761
 3922TIP3    H111711   3.121   0.283   3.721
 3922TIP3    H211712   3.191   0.300   3.854
 3923TIP3   OH211713   6.814   4.906   3.722
 3923TIP3    H111714   6.735   4.899   3.776
 3923TIP3    H211715   6.882   4.861   3.773
 3924TIP3   OH211716   1.241   4.828   3.218
 3924TIP3    H111717   1.203   4.747   3.183
 3924TIP3    H211718   1.310   4.851   3.155
 3925TIP3   OH211719   5.562   3.298   0.838
 3925TIP3    H111720   5.607   3.213   0.836
 3925TIP3    H211721   5.607   3.347   0.907
 3926TIP3   OH211722   2.396   6.813   3.935
 3926TIP3    H111723   2.329   6.757   3.975
 3926TIP3    H211724   2.408   6.777   3.847
 3927TIP3   OH211725   7.592   6.190   5.895
 3927TIP3    H111726   7.674   6.219   5.935
 3927TIP3    H211727   7.527   6.253   5.926
 3928TIP3   OH211728   0.071   0.098   4.748
 3928TIP3    H111729  -0.003   0.040   4.730
 3928TIP3    H211730   0.131   0.046   4.801
 3929TIP3   OH211731   4.325   3.478   5.828
 3929TIP3    H111732   4.360   3.554   5.783
 3929TIP3    H211733   4.268   3.515   5.896
 3930TIP3   OH211734   3.014   7.175   2.954
 3930TIP3    H111735   2.995   7.268   2.943
 3930TIP3    H211736   3.044   7.146   2.868
 3931TIP3   OH211737   2.767   5.025   6.092
 3931TIP3    H111738   2.857   5.034   6.060
 3931TIP3    H211739   2.777   4.999   6.184
 3932TIP3   OH211740   5.879   1.183   4.304
 3932TIP3    H111741   5.951   1.127   4.333
 3932TIP3    H211742   5.844   1.221   4.385
 3933TIP3   OH211743   2.777   1.343   6.286
 3933TIP3    H111744   2.698   1.377   6.328
 3933TIP3    H211745   2.778   1.384   6.199
 3934TIP3   OH211746   3.776   3.312   2.835
 3934TIP3    H111747   3.738   3.252   2.771
 3934TIP3    H211748   3.864   3.276   2.851
 3935TIP3   OH211749   1.658   5.502   6.398
 3935TIP3    H111750   1.672   5.511   6.304
 3935TIP3    H211751   1.638   5.409   6.410
 3936TIP3   OH211752   6.976   1.935   0.585
 3936TIP3    H111753   7.014   1.875   0.521
 3936TIP3    H211754   6.958   2.015   0.535
 3937TIP3   OH211755   7.139   7.296   0.062
 3937TIP3    H111756   7.142   7.211   0.105
 3937TIP3    H211757   7.048   7.325   0.072
 3938TIP3   OH211758   0.692   2.187   5.159
 3938TIP3    H111759   0.770   2.208   5.210
 3938TIP3    H211760   0.686   2.258   5.094
 3939TIP3   OH211761   4.461   3.708   0.785
 3939TIP3    H111762   4.472   3.690   0.692
 3939TIP3    H211763   4.486   3.800   0.794
 3940TIP3   OH211764   2.695   4.609   4.446
 3940TIP3    H111765   2.682   4.533   4.390
 3940TIP3    H211766   2.748   4.577   4.519
 3941TIP3   OH211767   5.289   7.290   4.547
 3941TIP3    H111768   5.377   7.251   4.544
 3941TIP3    H211769   5.246   7.247   4.621
 3942TIP3   OH211770   0.298   7.410   3.152
 3942TIP3    H111771   0.309   7.372   3.239
 3942TIP3    H211772   0.261   7.339   3.100
 3943TIP3   OH211773   0.281   0.540   4.887
 3943TIP3    H111774   0.340   0.610   4.912
 3943TIP3    H211775   0.210   0.584   4.839
 3944TIP3   OH211776   2.116   5.311   1.405
 3944TIP3    H111777   2.113   5.402   1.436
 3944TIP3    H211778   2.171   5.266   1.469
 3945TIP3   OH211779   5.881   6.639   0.008
 3945TIP3    H111780   5.836   6.556   0.018
 3945TIP3    H211781   5.897   6.646  -0.087
 3946TIP3   OH211782   0.669   6.413   2.888
 3946TIP3    H111783   0.615   6.395   2.965
 3946TIP3    H211784   0.609   6.451   2.824
 3947TIP3   OH211785   3.904   6.293   5.260
 3947TIP3    H111786   3.923   6.298   5.166
 3947TIP3    H211787   3.816   6.332   5.269
 3948TIP3   OH211788   6.212   2.000   0.138
 3948TIP3    H111789   6.278   1.938   0.107
 3948TIP3    H211790   6.186   2.049   0.060
 3949TIP3   OH211791   0.316   4.131   4.853
 3949TIP3    H111792   0.386   4.099   4.911
 3949TIP3    H211793   0.333   4.089   4.769
 3950TIP3   OH211794   5.055   0.159   6.652
 3950TIP3    H111795   5.085   0.216   6.581
 3950TIP3    H211796   5.133   0.114   6.682
 3951TIP3   OH211797   6.834   3.503   1.718
 3951TIP3    H111798   6.842   3.459   1.803
 3951TIP3    H211799   6.739   3.507   1.702
 3952TIP3   OH211800   6.931   4.077   0.089
 3952TIP3    H111801   6.938   4.166   0.053
 3952TIP3    H211802   6.905   4.091   0.180
 3953TIP3   OH211803   4.702   1.200   6.609
 3953TIP3    H111804   4.608   1.179   6.615
 3953TIP3    H211805   4.745   1.124   6.649
 3954TIP3   OH211806   3.907   2.199   1.149
 3954TIP3    H111807   3.865   2.224   1.067
 3954TIP3    H211808   3.971   2.268   1.165
 3955TIP3   OH211809   6.087   1.522   5.960
 3955TIP3    H111810   6.075   1.556   6.049
 3955TIP3    H211811   6.055   1.593   5.903
 3956TIP3   OH211812   3.029   0.684   5.572
 3956TIP3    H111813   3.077   0.627   5.512
 3956TIP3    H211814   3.024   0.634   5.654
 3957TIP3   OH211815   4.153   1.502   3.202
 3957TIP3    H111816   4.124   1.463   3.285
 3957TIP3    H211817   4.146   1.431   3.139
 3958TIP3   OH211818   7.467   3.060   4.170
 3958TIP3    H111819   7.538   3.081   4.109
 3958TIP3    H211820   7.389   3.098   4.131
 3959TIP3   OH211821   1.440   3.425   2.349
 3959TIP3    H111822   1.397   3.341   2.360
 3959TIP3    H211823   1.369   3.485   2.325
 3960TIP3   OH211824   5.141   2.574   2.249
 3960TIP3    H111825   5.112   2.589   2.339
 3960TIP3    H211826   5.229   2.610   2.246
 3961TIP3   OH211827   3.353   0.437   4.264
 3961TIP3    H111828   3.313   0.441   4.350
 3961TIP3    H211829   3.436   0.391   4.277
 3962TIP3   OH211830   1.764   2.448   0.599
 3962TIP3    H111831   1.782   2.404   0.683
 3962TIP3    H211832   1.789   2.539   0.614
 3963TIP3   OH211833   2.226   2.041   3.511
 3963TIP3    H111834   2.283   1.966   3.526
 3963TIP3    H211835   2.246   2.070   3.422
 3964TIP3   OH211836   2.978   6.853   6.767
 3964TIP3    H111837   3.051   6.834   6.826
 3964TIP3    H211838   3.016   6.853   6.680
 3965TIP3   OH211839   0.815   3.460   4.341
 3965TIP3    H111840   0.757   3.496   4.408
 3965TIP3    H211841   0.806   3.519   4.267
 3966TIP3   OH211842   6.222   2.163   0.899
 3966TIP3    H111843   6.158   2.232   0.915
 3966TIP3    H211844   6.232   2.162   0.804
 3967TIP3   OH211845   4.559   3.565   5.960
 3967TIP3    H111846   4.580   3.557   6.053
 3967TIP3    H211847   4.537   3.476   5.933
 3968TIP3   OH211848   8.277   5.794   2.130
 3968TIP3    H111849   8.217   5.844   2.075
 3968TIP3    H211850   8.286   5.847   2.209
 3969TIP3   OH211851   7.861   0.181   4.482
 3969TIP3    H111852   7.791   0.224   4.433
 3969TIP3    H211853   7.873   0.097   4.439
 3970TIP3   OH211854   4.286   1.391   5.973
 3970TIP3    H111855   4.318   1.481   5.968
 3970TIP3    H211856   4.232   1.379   5.896
 3971TIP3   OH211857   1.324   0.601   2.899
 3971TIP3    H111858   1.246   0.610   2.845
 3971TIP3    H211859   1.393   0.576   2.838
 3972TIP3   OH211860   3.267   0.084   0.917
 3972TIP3    H111861   3.337   0.130   0.964
 3972TIP3    H211862   3.311   0.038   0.846
 3973TIP3   OH211863   4.378   6.297   1.336
 3973TIP3    H111864   4.395   6.244   1.414
 3973TIP3    H211865   4.424   6.380   1.352
 3974TIP3   OH211866   5.292   1.543   2.224
 3974TIP3    H111867   5.247   1.547   2.139
 3974TIP3    H211868   5.256   1.617   2.273
 3975TIP3   OH211869   0.570   1.674   2.139
 3975TIP3    H111870   0.555   1.763   2.107
 3975TIP3    H211871   0.631   1.636   2.076
 3976TIP3   OH211872   5.918   2.274   1.301
 3976TIP3    H111873   5.979   2.345   1.281
 3976TIP3    H211874   5.968   2.194   1.287
 3977TIP3   OH211875   8.166   1.205   0.403
 3977TIP3    H111876   8.116   1.239   0.329
 3977TIP3    H211877   8.121   1.124   0.427
 3978TIP3   OH211878   6.420   6.690   0.658
 3978TIP3    H111879   6.362   6.638   0.714
 3978TIP3    H211880   6.508   6.673   0.691
 3979TIP3   OH211881   6.221   2.218   3.603
 3979TIP3    H111882   6.198   2.298   3.555
 3979TIP3    H211883   6.137   2.177   3.625
 3980TIP3   OH211884   5.984   5.286   2.036
 3980TIP3    H111885   6.057   5.223   2.028
 3980TIP3    H211886   6.024   5.371   2.017
 3981TIP3   OH211887   6.905   5.054   0.529
 3981TIP3    H111888   6.987   5.077   0.573
 3981TIP3    H211889   6.837   5.077   0.592
 3982TIP3   OH211890   1.609   7.169   1.154
 3982TIP3    H111891   1.612   7.224   1.232
 3982TIP3    H211892   1.648   7.222   1.085
 3983TIP3   OH211893   7.088   5.119   4.033
 3983TIP3    H111894   7.167   5.091   3.987
 3983TIP3    H211895   7.090   5.069   4.115
 3984TIP3   OH211896   2.716   6.698   6.536
 3984TIP3    H111897   2.660   6.774   6.554
 3984TIP3    H211898   2.805   6.733   6.542
 3985TIP3   OH211899   5.984   4.214   1.793
 3985TIP3    H111900   6.011   4.284   1.852
 3985TIP3    H211901   5.933   4.258   1.725
 3986TIP3   OH211902   0.218   1.565   2.503
 3986TIP3    H111903   0.204   1.613   2.585
 3986TIP3    H211904   0.177   1.479   2.518
 3987TIP3   OH211905   6.533   2.452   5.318
 3987TIP3    H111906   6.588   2.459   5.395
 3987TIP3    H211907   6.594   2.449   5.245
 3988TIP3   OH211908   7.257   2.698   5.643
 3988TIP3    H111909   7.249   2.713   5.549
 3988TIP3    H211910   7.191   2.755   5.682
 3989TIP3   OH211911   2.492   7.367   3.725
 3989TIP3    H111912   2.560   7.397   3.664
 3989TIP3    H211913   2.463   7.447   3.769
 3990TIP3   OH211914   6.511   1.074   6.125
 3990TIP3    H111915   6.425   1.089   6.165
 3990TIP3    H211916   6.491   1.024   6.046
 3991TIP3   OH211917   5.047   5.394   2.067
 3991TIP3    H111918   5.084   5.426   2.149
 3991TIP3    H211919   5.104   5.431   1.999
 3992TIP3   OH211920   1.879   4.638   6.356
 3992TIP3    H111921   1.913   4.561   6.401
 3992TIP3    H211922   1.932   4.645   6.277
 3993TIP3   OH211923   0.759   4.641   3.448
 3993TIP3    H111924   0.825   4.668   3.384
 3993TIP3    H211925   0.802   4.572   3.499
 3994TIP3   OH211926   0.710   3.817   3.048
 3994TIP3    H111927   0.692   3.910   3.061
 3994TIP3    H211928   0.806   3.811   3.047
 3995TIP3   OH211929   7.884   6.011   5.965
 3995TIP3    H111930   7.962   5.978   5.922
 3995TIP3    H211931   7.900   5.997   6.058
 3996TIP3   OH211932   7.642   6.745   5.469
 3996TIP3    H111933   7.643   6.815   5.403
 3996TIP3    H211934   7.556   6.704   5.459
 3997TIP3   OH211935   7.307   5.119   3.133
 3997TIP3    H111936   7.401   5.112   3.150
 3997TIP3    H211937   7.302   5.160   3.047
 3998TIP3   OH211938   4.213   3.704   4.023
 3998TIP3    H111939   4.202   3.704   4.118
 3998TIP3    H211940   4.229   3.796   4.001
 3999TIP3   OH211941   6.619   5.935   1.279
 3999TIP3    H111942   6.667   6.015   1.258
 3999TIP3    H211943   6.536   5.943   1.232
 4000TIP3   OH211944   6.707   5.324   5.144
 4000TIP3    H111945   6.794   5.305   5.180
 4000TIP3    H211946   6.704   5.274   5.062
 4001TIP3   OH211947   6.949   5.570   3.667
 4001TIP3    H111948   6.969   5.596   3.757
 4001TIP3    H211949   7.032   5.535   3.634
 4002TIP3   OH211950   6.695   6.272   6.217
 4002TIP3    H111951   6.684   6.352   6.269
 4002TIP3    H211952   6.785   6.277   6.185
 4003TIP3   OH211953   1.354   6.829   2.782
 4003TIP3    H111954   1.293   6.760   2.807
 4003TIP3    H211955   1.387   6.863   2.866
 4004TIP3   OH211956   6.735   6.572   0.444
 4004TIP3    H111957   6.723   6.604   0.355
 4004TIP3    H211958   6.658   6.518   0.461
 4005TIP3   OH211959   1.435   7.295   1.423
 4005TIP3    H111960   1.515   7.305   1.474
 4005TIP3    H211961   1.373   7.255   1.483
 4006TIP3   OH211962   6.176   1.011   1.670
 4006TIP3    H111963   6.153   1.029   1.578
 4006TIP3    H211964   6.218   1.092   1.700
 4007TIP3   OH211965   3.141   7.740   2.619
 4007TIP3    H111966   3.172   7.688   2.693
 4007TIP3    H211967   3.048   7.752   2.636
 4008TIP3   OH211968   6.940   4.008   6.369
 4008TIP3    H111969   6.863   3.953   6.359
 4008TIP3    H211970   7.002   3.955   6.419
 4009TIP3   OH211971   3.131   5.031   5.495
 4009TIP3    H111972   3.219   4.995   5.507
 4009TIP3    H211973   3.138   5.122   5.527
 4010TIP3   OH211974   1.474   2.262   1.194
 4010TIP3    H111975   1.436   2.218   1.270
 4010TIP3    H211976   1.469   2.197   1.124
 4011TIP3   OH211977   3.667   3.399   1.667
 4011TIP3    H111978   3.592   3.446   1.703
 4011TIP3    H211979   3.646   3.386   1.575
 4012TIP3   OH211980   6.244   6.297   4.992
 4012TIP3    H111981   6.262   6.207   5.016
 4012TIP3    H211982   6.324   6.328   4.950
 4013TIP3   OH211983   7.519   3.980   4.510
 4013TIP3    H111984   7.598   3.931   4.533
 4013TIP3    H211985   7.467   3.980   4.590
 4014TIP3   OH211986   2.463   3.768   2.614
 4014TIP3    H111987   2.531   3.701   2.614
 4014TIP3    H211988   2.509   3.850   2.595
 4015TIP3   OH211989   5.210   3.704   4.302
 4015TIP3    H111990   5.212   3.668   4.391
 4015TIP3    H211991   5.290   3.756   4.296
 4016TIP3   OH211992   4.256   5.275   5.819
 4016TIP3    H111993   4.215   5.353   5.856
 4016TIP3    H211994   4.310   5.307   5.747
 4017TIP3   OH211995   7.365   0.175   3.476
 4017TIP3    H111996   7.341   0.267   3.478
 4017TIP3    H211997   7.450   0.171   3.519
 4018TIP3   OH211998   1.283   1.154   6.436
 4018TIP3    H111999   1.270   1.060   6.425
 4018TIP3    H212000   1.257   1.191   6.351
 4019TIP3   OH212001   5.349   4.108   5.533
 4019TIP3    H112002   5.274   4.053   5.511
 4019TIP3    H212003   5.418   4.046   5.558
 4020TIP3   OH212004   3.141   1.479   2.447
 4020TIP3    H112005   3.163   1.438   2.364
 4020TIP3    H212006   3.102   1.409   2.500
 4021TIP3   OH212007   7.826   1.020   1.242
 4021TIP3    H112008   7.840   0.930   1.211
 4021TIP3    H212009   7.747   1.014   1.295
 4022TIP3   OH212010   6.185   4.822   5.106
 4022TIP3    H112011   6.099   4.814   5.066
 4022TIP3    H212012   6.200   4.738   5.149
 4023TIP3   OH212013   6.442   3.118   4.720
 4023TIP3    H112014   6.519   3.070   4.690
 4023TIP3    H212015   6.442   3.107   4.815
 4024TIP3   OH212016   1.896   5.284   0.840
 4024TIP3    H112017   1.893   5.369   0.883
 4024TIP3    H212018   1.979   5.245   0.868
 4025TIP3   OH212019   5.383   2.533   6.080
 4025TIP3    H112020   5.463   2.504   6.034
 4025TIP3    H212021   5.342   2.595   6.020
 4026TIP3   OH212022   0.425   5.950   1.869
 4026TIP3    H112023   0.386   5.877   1.917
 4026TIP3    H212024   0.445   6.015   1.936
 4027TIP3   OH212025   7.508   7.800   2.897
 4027TIP3    H112026   7.564   7.824   2.823
 4027TIP3    H212027   7.536   7.858   2.968
 4028TIP3   OH212028   5.341   2.737   0.036
 4028TIP3    H112029   5.405   2.791  -0.010
 4028TIP3    H212030   5.383   2.651   0.043
 4029TIP3   OH212031   4.280   7.552   3.288
 4029TIP3    H112032   4.363   7.590   3.315
 4029TIP3    H212033   4.220   7.627   3.285
 4030TIP3   OH212034   2.783   4.151   5.648
 4030TIP3    H112035   2.706   4.193   5.610
 4030TIP3    H212036   2.822   4.217   5.705
 4031TIP3   OH212037   7.263   0.564   1.773
 4031TIP3    H112038   7.311   0.599   1.848
 4031TIP3    H212039   7.172   0.560   1.803
 4032TIP3   OH212040   0.156   1.160   6.533
 4032TIP3    H112041   0.118   1.228   6.477
 4032TIP3    H212042   0.081   1.120   6.577
 4033TIP3   OH212043   3.946   2.987   4.482
 4033TIP3    H112044   3.888   2.952   4.415
 4033TIP3    H212045   3.958   2.914   4.543
 4034TIP3   OH212046   2.095   6.686   3.381
 4034TIP3    H112047   2.069   6.596   3.399
 4034TIP3    H212048   2.040   6.739   3.440
 4035TIP3   OH212049   7.995   7.186   2.590
 4035TIP3    H112050   7.940   7.257   2.558
 4035TIP3    H212051   7.936   7.111   2.598
 4036TIP3   OH212052   8.152   1.884   4.608
 4036TIP3    H112053   8.160   1.890   4.513
 4036TIP3    H212054   8.096   1.957   4.632
 4037TIP3   OH212055   0.592   1.085   5.292
 4037TIP3    H112056   0.563   1.099   5.202
 4037TIP3    H212057   0.603   1.173   5.328
 4038TIP3   OH212058   1.843   0.264   2.835
 4038TIP3    H112059   1.882   0.283   2.921
 4038TIP3    H212060   1.899   0.310   2.773
 4039TIP3   OH212061   6.086   5.124   4.996
 4039TIP3    H112062   6.069   5.030   5.003
 4039TIP3    H212063   6.004   5.160   4.960
 4040TIP3   OH212064   6.330   7.060   2.421
 4040TIP3    H112065   6.296   7.069   2.510
 4040TIP3    H212066   6.344   6.965   2.410
 4041TIP3   OH212067   0.437   6.544   5.707
 4041TIP3    H112068   0.494   6.582   5.774
 4041TIP3    H212069   0.394   6.471   5.751
 4042TIP3   OH212070   4.936   5.881   5.879
 4042TIP3    H112071   4.897   5.805   5.922
 4042TIP3    H212072   4.862   5.939   5.861
 4043TIP3   OH212073   8.095   6.582   4.517
 4043TIP3    H112074   8.053   6.659   4.479
 4043TIP3    H212075   8.077   6.512   4.454
 4044TIP3   OH212076   5.375   0.452   4.710
 4044TIP3    H112077   5.428   0.383   4.750
 4044TIP3    H212078   5.438   0.506   4.662
 4045TIP3   OH212079   2.498   3.065   1.638
 4045TIP3    H112080   2.465   3.125   1.571
 4045TIP3    H212081   2.528   3.122   1.709
 4046TIP3   OH212082   7.954   7.684   4.802
 4046TIP3    H112083   8.005   7.608   4.830
 4046TIP3    H212084   8.010   7.729   4.739
 4047TIP3   OH212085   6.246   1.732   1.526
 4047TIP3    H112086   6.298   1.652   1.536
 4047TIP3    H212087   6.183   1.728   1.598
 4048TIP3   OH212088   2.611   3.591   3.686
 4048TIP3    H112089   2.524   3.605   3.724
 4048TIP3    H212090   2.671   3.622   3.754
 4049TIP3   OH212091   6.912   3.353   2.431
 4049TIP3    H112092   6.845   3.340   2.498
 4049TIP3    H212093   6.994   3.328   2.473
 4050TIP3   OH212094   0.841   7.667   6.447
 4050TIP3    H112095   0.901   7.741   6.453
 4050TIP3    H212096   0.852   7.634   6.358
 4051TIP3   OH212097   4.073   0.641   4.954
 4051TIP3    H112098   3.997   0.595   4.990
 4051TIP3    H212099   4.147   0.582   4.970
 4052TIP3   OH212100   1.726   5.229   4.539
 4052TIP3    H112101   1.745   5.144   4.580
 4052TIP3    H212102   1.752   5.217   4.448
 4053TIP3   OH212103   4.091   6.079   2.272
 4053TIP3    H112104   4.104   5.987   2.250
 4053TIP3    H212105   4.115   6.086   2.364
 4054TIP3   OH212106   8.059   4.502   5.424
 4054TIP3    H112107   8.046   4.555   5.345
 4054TIP3    H212108   8.060   4.411   5.392
 4055TIP3   OH212109   1.579   3.831   3.799
 4055TIP3    H112110   1.654   3.870   3.843
 4055TIP3    H212111   1.570   3.744   3.839
 4056TIP3   OH212112   1.053   5.558   0.236
 4056TIP3    H112113   1.138   5.539   0.196
 4056TIP3    H212114   1.058   5.521   0.324
 4057TIP3   OH212115   4.399   1.579   1.430
 4057TIP3    H112116   4.430   1.508   1.374
 4057TIP3    H212117   4.447   1.567   1.512
 4058TIP3   OH212118   0.338   0.950   6.543
 4058TIP3    H112119   0.373   0.967   6.631
 4058TIP3    H212120   0.281   1.024   6.525
 4059TIP3   OH212121   2.730   3.331   0.239
 4059TIP3    H112122   2.776   3.297   0.316
 4059TIP3    H212123   2.659   3.268   0.224
 4060TIP3   OH212124   4.017   0.398   4.583
 4060TIP3    H112125   4.055   0.334   4.644
 4060TIP3    H212126   3.925   0.371   4.576
 4061TIP3   OH212127   8.044   3.806   1.213
 4061TIP3    H112128   7.980   3.737   1.235
 4061TIP3    H212129   8.106   3.804   1.286
 4062TIP3   OH212130   7.210   3.967   3.939
 4062TIP3    H112131   7.220   4.059   3.965
 4062TIP3    H212132   7.299   3.932   3.942
 4063TIP3   OH212133   1.636   1.409   2.101
 4063TIP3    H112134   1.685   1.479   2.144
 4063TIP3    H212135   1.688   1.330   2.117
 4064TIP3   OH212136   1.512   1.933   5.943
 4064TIP3    H112137   1.576   1.864   5.923
 4064TIP3    H212138   1.471   1.953   5.859
 4065TIP3   OH212139   0.570   0.652   0.586
 4065TIP3    H112140   0.648   0.687   0.543
 4065TIP3    H212141   0.604   0.597   0.657
 4066TIP3   OH212142   5.355   1.422   0.013
 4066TIP3    H112143   5.321   1.505   0.047
 4066TIP3    H212144   5.434   1.446  -0.034
 4067TIP3   OH212145   4.893   3.759   1.952
 4067TIP3    H112146   4.869   3.814   1.878
 4067TIP3    H212147   4.812   3.715   1.977
 4068TIP3   OH212148   3.746   2.858   6.216
 4068TIP3    H112149   3.681   2.815   6.162
 4068TIP3    H212150   3.727   2.951   6.208
 4069TIP3   OH212151   1.046   0.011   2.669
 4069TIP3    H112152   1.137  -0.006   2.692
 4069TIP3    H212153   1.038  -0.016   2.578
 4070TIP3   OH212154   7.852   6.962   1.960
 4070TIP3    H112155   7.767   6.961   1.917
 4070TIP3    H212156   7.903   6.895   1.916
 4071TIP3   OH212157   7.792   4.561   0.943
 4071TIP3    H112158   7.798   4.646   0.986
 4071TIP3    H212159   7.735   4.576   0.868
 4072TIP3   OH212160   6.459   5.803   5.050
 4072TIP3    H112161   6.532   5.863   5.058
 4072TIP3    H212162   6.499   5.716   5.043
 4073TIP3   OH212163   1.162   4.832   2.807
 4073TIP3    H112164   1.094   4.784   2.761
 4073TIP3    H212165   1.201   4.769   2.867
 4074TIP3   OH212166   0.701   2.682   2.698
 4074TIP3    H112167   0.695   2.591   2.727
 4074TIP3    H212168   0.613   2.702   2.666
 4075TIP3   OH212169   8.080   2.913   1.137
 4075TIP3    H112170   8.040   2.917   1.224
 4075TIP3    H212171   8.008   2.929   1.077
 4076TIP3   OH212172   2.672   5.381   3.207
 4076TIP3    H112173   2.608   5.409   3.273
 4076TIP3    H212174   2.664   5.447   3.138
 4077TIP3   OH212175   7.189   4.413   2.732
 4077TIP3    H112176   7.223   4.493   2.773
 4077TIP3    H212177   7.268   4.365   2.705
 4078TIP3   OH212178   4.275   6.017   1.814
 4078TIP3    H112179   4.290   6.012   1.908
 4078TIP3    H212180   4.347   6.072   1.782
 4079TIP3   OH212181   6.919   6.595   3.486
 4079TIP3    H112182   6.997   6.633   3.446
 4079TIP3    H212183   6.904   6.515   3.436
 4080TIP3   OH212184   1.827   4.013   3.580
 4080TIP3    H112185   1.871   4.048   3.502
 4080TIP3    H212186   1.740   3.988   3.548
 4081TIP3   OH212187   4.844   4.808   0.300
 4081TIP3    H112188   4.791   4.807   0.220
 4081TIP3    H212189   4.934   4.808   0.269
 4082TIP3   OH212190   6.064   2.775   2.908
 4082TIP3    H112191   6.069   2.776   2.813
 4082TIP3    H212192   6.150   2.805   2.937
 4083TIP3   OH212193   3.742   0.204   4.613
 4083TIP3    H112194   3.821   0.149   4.610
 4083TIP3    H212195   3.721   0.209   4.706
 4084TIP3   OH212196   7.028   5.116   5.993
 4084TIP3    H112197   7.117   5.081   5.989
 4084TIP3    H212198   7.033   5.188   6.056
 4085TIP3   OH212199   2.383   2.691   0.444
 4085TIP3    H112200   2.436   2.612   0.428
 4085TIP3    H212201   2.344   2.676   0.530
 4086TIP3   OH212202   2.497   0.343   6.714
 4086TIP3    H112203   2.570   0.400   6.736
 4086TIP3    H212204   2.449   0.332   6.796
 4087TIP3   OH212205   5.676   6.137   0.717
 4087TIP3    H112206   5.771   6.134   0.714
 4087TIP3    H212207   5.652   6.208   0.658
 4088TIP3   OH212208   5.083   5.215   4.906
 4088TIP3    H112209   5.153   5.223   4.841
 4088TIP3    H212210   5.021   5.283   4.883
 4089TIP3   OH212211   4.487   2.301   1.017
 4089TIP3    H112212   4.493   2.245   0.940
 4089TIP3    H212213   4.418   2.364   0.996
 4090TIP3   OH212214   7.362   3.745   3.644
 4090TIP3    H112215   7.283   3.799   3.637
 4090TIP3    H212216   7.390   3.755   3.735
 4091TIP3   OH212217   6.808   3.912   4.628
 4091TIP3    H112218   6.873   3.980   4.643
 4091TIP3    H212219   6.848   3.854   4.563
 4092TIP3   OH212220   2.895   0.925   3.680
 4092TIP3    H112221   2.810   0.969   3.676
 4092TIP3    H212222   2.878   0.848   3.735
 4093TIP3   OH212223   5.321   5.494   6.391
 4093TIP3    H112224   5.231   5.476   6.361
 4093TIP3    H212225   5.336   5.585   6.367
 4094TIP3   OH212226   1.184   5.327   2.421
 4094TIP3    H112227   1.116   5.261   2.433
 4094TIP3    H212228   1.256   5.280   2.378
 4095TIP3   OH212229   0.336   2.020   4.237
 4095TIP3    H112230   0.278   1.951   4.204
 4095TIP3    H212231   0.376   1.982   4.315
 4096TIP3   OH212232   6.344   0.755   1.029
 4096TIP3    H112233   6.271   0.694   1.045
 4096TIP3    H212234   6.373   0.734   0.940
 4097TIP3   OH212235   2.369   4.013   2.732
 4097TIP3    H112236   2.419   3.985   2.809
 4097TIP3    H212237   2.431   4.006   2.660
 4098TIP3   OH212238   0.537   5.851   3.828
 4098TIP3    H112239   0.587   5.917   3.877
 4098TIP3    H212240   0.450   5.889   3.817
 4099TIP3   OH212241   0.176   0.351   0.352
 4099TIP3    H112242   0.123   0.427   0.373
 4099TIP3    H212243   0.138   0.317   0.271
 4100TIP3   OH212244   2.807   6.905   4.870
 4100TIP3    H112245   2.788   6.998   4.863
 4100TIP3    H212246   2.753   6.874   4.942
 4101TIP3   OH212247   0.035   1.160   2.943
 4101TIP3    H112248   0.067   1.248   2.963
 4101TIP3    H212249   0.017   1.161   2.849
 4102TIP3   OH212250   4.853   0.873   3.999
 4102TIP3    H112251   4.857   0.813   4.073
 4102TIP3    H212252   4.930   0.852   3.946
 4103TIP3   OH212253   4.494   3.333   0.053
 4103TIP3    H112254   4.508   3.248   0.011
 4103TIP3    H212255   4.400   3.348   0.044
 4104TIP3   OH212256   6.947   1.873   2.473
 4104TIP3    H112257   6.922   1.791   2.515
 4104TIP3    H212258   7.041   1.863   2.455
 4105TIP3   OH212259   6.817   5.704   5.011
 4105TIP3    H112260   6.809   5.780   4.954
 4105TIP3    H212261   6.803   5.629   4.954
 4106TIP3   OH212262   7.597   3.171   3.968
 4106TIP3    H112263   7.628   3.241   3.911
 4106TIP3    H212264   7.559   3.106   3.908
 4107TIP3   OH212265   2.546   1.206   2.717
 4107TIP3    H112266   2.576   1.291   2.751
 4107TIP3    H212267   2.540   1.219   2.622
 4108TIP3   OH212268   4.402   7.327   6.331
 4108TIP3    H112269   4.467   7.267   6.369
 4108TIP3    H212270   4.452   7.386   6.275
 4109TIP3   OH212271   5.013   1.178   0.249
 4109TIP3    H112272   5.001   1.252   0.309
 4109TIP3    H212273   5.102   1.146   0.268
 4110TIP3   OH212274   3.260   7.679   6.587
 4110TIP3    H112275   3.260   7.659   6.680
 4110TIP3    H212276   3.283   7.772   6.582
 4111TIP3   OH212277   1.267   4.654   0.289
 4111TIP3    H112278   1.213   4.576   0.274
 4111TIP3    H212279   1.250   4.709   0.213
 4112TIP3   OH212280   2.789   2.451   6.664
 4112TIP3    H112281   2.874   2.462   6.705
 4112TIP3    H212282   2.727   2.448   6.737
 4113TIP3   OH212283   0.686   5.645   4.280
 4113TIP3    H112284   0.709   5.738   4.287
 4113TIP3    H212285   0.639   5.626   4.361
 4114TIP3   OH212286   2.712   3.720   5.629
 4114TIP3    H112287   2.635   3.773   5.606
 4114TIP3    H212288   2.768   3.779   5.678
 4115TIP3   OH212289   1.367   3.211   4.903
 4115TIP3    H112290   1.275   3.227   4.925
 4115TIP3    H212291   1.373   3.228   4.809
 4116TIP3   OH212292   6.016   6.093   0.149
 4116TIP3    H112293   6.001   6.054   0.063
 4116TIP3    H212294   6.076   6.166   0.133
 4117TIP3   OH212295   5.476   5.735   2.828
 4117TIP3    H112296   5.465   5.717   2.735
 4117TIP3    H212297   5.407   5.798   2.849
 4118TIP3   OH212298   5.164   4.362   6.638
 4118TIP3    H112299   5.212   4.279   6.632
 4118TIP3    H212300   5.188   4.398   6.723
 4119TIP3   OH212301   2.795   6.687   1.912
 4119TIP3    H112302   2.797   6.680   1.817
 4119TIP3    H212303   2.756   6.605   1.941
 4120TIP3   OH212304   6.587   1.327   2.433
 4120TIP3    H112305   6.539   1.244   2.436
 4120TIP3    H212306   6.527   1.391   2.471
 4121TIP3   OH212307   1.858   7.049   5.897
 4121TIP3    H112308   1.790   7.115   5.882
 4121TIP3    H212309   1.922   7.092   5.954
 4122TIP3   OH212310   0.701   5.124   3.118
 4122TIP3    H112311   0.723   5.215   3.099
 4122TIP3    H212312   0.624   5.106   3.064
 4123TIP3   OH212313   6.757   7.780   0.836
 4123TIP3    H112314   6.667   7.751   0.855
 4123TIP3    H212315   6.747   7.839   0.762
 4124TIP3   OH212316   8.175   6.543   2.130
 4124TIP3    H112317   8.176   6.484   2.055
 4124TIP3    H212318   8.190   6.487   2.206
 4125TIP3   OH212319   7.101   6.789   2.883
 4125TIP3    H112320   7.148   6.707   2.868
 4125TIP3    H212321   7.133   6.820   2.967
 4126TIP3   OH212322   6.539   5.079   4.039
 4126TIP3    H112323   6.516   5.156   3.987
 4126TIP3    H212324   6.531   5.109   4.130
 4127TIP3   OH212325   4.584   4.104   1.742
 4127TIP3    H112326   4.526   4.180   1.734
 4127TIP3    H212327   4.556   4.060   1.822
 4128TIP3   OH212328   0.105   6.121   1.418
 4128TIP3    H112329   0.156   6.132   1.498
 4128TIP3    H212330   0.167   6.086   1.354
 4129TIP3   OH212331   8.242   1.685   1.864
 4129TIP3    H112332   8.318   1.706   1.918
 4129TIP3    H212333   8.174   1.660   1.927
 4130TIP3   OH212334   2.926   6.917   4.605
 4130TIP3    H112335   2.908   6.895   4.696
 4130TIP3    H212336   2.880   6.849   4.555
 4131TIP3   OH212337   1.893   0.335   4.417
 4131TIP3    H112338   1.981   0.357   4.447
 4131TIP3    H212339   1.863   0.414   4.370
 4132TIP3   OH212340   2.096   6.801   4.631
 4132TIP3    H112341   2.055   6.765   4.553
 4132TIP3    H212342   2.131   6.886   4.603
 4133TIP3   OH212343   6.927   2.067   1.483
 4133TIP3    H112344   6.980   2.003   1.531
 4133TIP3    H212345   6.864   2.099   1.547
 4134TIP3   OH212346   4.905   5.410   4.462
 4134TIP3    H112347   4.975   5.429   4.400
 4134TIP3    H212348   4.921   5.321   4.492
 4135TIP3   OH212349   5.089   7.096   0.860
 4135TIP3    H112350   5.095   7.027   0.926
 4135TIP3    H212351   5.026   7.064   0.796
 4136TIP3   OH212352   2.762   0.963   1.444
 4136TIP3    H112353   2.771   1.037   1.504
 4136TIP3    H212354   2.835   0.905   1.466
 4137TIP3   OH212355   8.091   4.391   0.491
 4137TIP3    H112356   7.999   4.418   0.498
 4137TIP3    H212357   8.139   4.456   0.543
 4138TIP3   OH212358   1.053   2.806   3.467
 4138TIP3    H112359   0.968   2.778   3.435
 4138TIP3    H212360   1.071   2.887   3.419
 4139TIP3   OH212361   3.669   4.235   4.229
 4139TIP3    H112362   3.612   4.181   4.284
 4139TIP3    H212363   3.752   4.238   4.277
 4140TIP3   OH212364   2.646   0.993   0.187
 4140TIP3    H112365   2.625   0.951   0.270
 4140TIP3    H212366   2.704   0.931   0.142
 4141TIP3   OH212367   7.756   5.851   5.714
 4141TIP3    H112368   7.802   5.807   5.786
 4141TIP3    H212369   7.819   5.854   5.643
 4142TIP3   OH212370   4.541   2.288   5.410
 4142TIP3    H112371   4.561   2.378   5.386
 4142TIP3    H212372   4.625   2.242   5.405
 4143TIP3   OH212373   1.643   7.723   1.672
 4143TIP3    H112374   1.686   7.637   1.665
 4143TIP3    H212375   1.582   7.724   1.598
 4144TIP3   OH212376   4.817   1.857   2.133
 4144TIP3    H112377   4.865   1.940   2.130
 4144TIP3    H212378   4.807   1.839   2.226
 4145TIP3   OH212379   0.181   3.571   1.167
 4145TIP3    H112380   0.148   3.584   1.256
 4145TIP3    H212381   0.248   3.639   1.156
 4146TIP3   OH212382   3.308   4.712   2.758
 4146TIP3    H112383   3.347   4.712   2.671
 4146TIP3    H212384   3.345   4.789   2.802
 4147TIP3   OH212385   1.565   3.380   6.237
 4147TIP3    H112386   1.470   3.378   6.230
 4147TIP3    H212387   1.583   3.370   6.331
 4148TIP3   OH212388   8.020   3.208   5.830
 4148TIP3    H112389   8.046   3.123   5.795
 4148TIP3    H212390   7.970   3.187   5.909
 4149TIP3   OH212391   3.483   5.480   0.406
 4149TIP3    H112392   3.402   5.499   0.360
 4149TIP3    H212393   3.542   5.552   0.381
 4150TIP3   OH212394   2.389   7.675   5.641
 4150TIP3    H112395   2.384   7.747   5.705
 4150TIP3    H212396   2.303   7.633   5.646
 4151TIP3   OH212397   7.318   6.528   3.590
 4151TIP3    H112398   7.378   6.598   3.565
 4151TIP3    H212399   7.289   6.491   3.507
 4152TIP3   OH212400   5.239   1.859   4.151
 4152TIP3    H112401   5.173   1.840   4.217
 4152TIP3    H212402   5.316   1.810   4.180
 4153TIP3   OH212403   4.355   0.135   6.137
 4153TIP3    H112404   4.432   0.145   6.194
 4153TIP3    H212405   4.341   0.040   6.133
 4154TIP3   OH212406   5.161   7.781   4.363
 4154TIP3    H112407   5.196   7.748   4.446
 4154TIP3    H212408   5.201   7.726   4.296
 4155TIP3   OH212409   4.121   2.548   4.082
 4155TIP3    H112410   4.164   2.602   4.017
 4155TIP3    H212411   4.035   2.588   4.094
 4156TIP3   OH212412   7.385   4.399   4.576
 4156TIP3    H112413   7.396   4.467   4.509
 4156TIP3    H212414   7.353   4.323   4.529
 4157TIP3   OH212415   3.116   7.055   1.636
 4157TIP3    H112416   3.147   7.122   1.575
 4157TIP3    H212417   3.195   7.028   1.684
 4158TIP3   OH212418   7.876   7.412   3.905
 4158TIP3    H112419   7.833   7.495   3.887
 4158TIP3    H212420   7.960   7.417   3.859
 4159TIP3   OH212421   6.236   3.146   6.536
 4159TIP3    H112422   6.172   3.107   6.477
 4159TIP3    H212423   6.185   3.202   6.594
 4160TIP3   OH212424   1.879   3.444   1.933
 4160TIP3    H112425   1.850   3.456   1.842
 4160TIP3    H212426   1.818   3.379   1.969
 4161TIP3   OH212427   3.879   0.211   4.356
 4161TIP3    H112428   3.928   0.135   4.323
 4161TIP3    H212429   3.806   0.173   4.405
 4162TIP3   OH212430   4.127   1.464   2.075
 4162TIP3    H112431   4.216   1.445   2.106
 4162TIP3    H212432   4.081   1.380   2.083
 4163TIP3   OH212433   2.538   2.877   0.125
 4163TIP3    H112434   2.472   2.882   0.055
 4163TIP3    H212435   2.488   2.894   0.206
 4164TIP3   OH212436   8.051   4.898   5.452
 4164TIP3    H112437   7.990   4.962   5.415
 4164TIP3    H212438   8.087   4.941   5.529
 4165TIP3   OH212439   0.110   4.598   1.957
 4165TIP3    H112440   0.141   4.647   1.881
 4165TIP3    H212441   0.190   4.563   1.997
 4166TIP3   OH212442   1.194   0.024   3.681
 4166TIP3    H112443   1.113   0.011   3.730
 4166TIP3    H212444   1.246  -0.055   3.700
 4167TIP3   OH212445   6.104   4.612   3.664
 4167TIP3    H112446   6.089   4.639   3.754
 4167TIP3    H212447   6.037   4.545   3.648
 4168TIP3   OH212448   0.346   4.797   3.104
 4168TIP3    H112449   0.360   4.873   3.047
 4168TIP3    H212450   0.426   4.745   3.095
 4169TIP3   OH212451   1.528   6.732   4.793
 4169TIP3    H112452   1.477   6.651   4.786
 4169TIP3    H212453   1.567   6.727   4.881
 4170TIP3   OH212454   7.268   5.708   1.517
 4170TIP3    H112455   7.306   5.792   1.493
 4170TIP3    H212456   7.326   5.672   1.584
 4171TIP3   OH212457   0.205   7.662   4.611
 4171TIP3    H112458   0.123   7.712   4.606
 4171TIP3    H212459   0.187   7.595   4.676
 4172TIP3   OH212460   3.972   3.146   6.626
 4172TIP3    H112461   4.065   3.130   6.608
 4172TIP3    H212462   3.956   3.102   6.710
 4173TIP3   OH212463   4.333   4.016   5.678
 4173TIP3    H112464   4.279   4.045   5.605
 4173TIP3    H212465   4.281   4.037   5.756
 4174TIP3   OH212466   3.551   1.563   4.067
 4174TIP3    H112467   3.585   1.575   4.156
 4174TIP3    H212468   3.570   1.471   4.047
 4175TIP3   OH212469   0.767   5.202   2.376
 4175TIP3    H112470   0.782   5.293   2.352
 4175TIP3    H212471   0.745   5.204   2.469
 4176TIP3   OH212472   7.742   2.300   6.056
 4176TIP3    H112473   7.791   2.354   5.994
 4176TIP3    H212474   7.756   2.210   6.026
 4177TIP3   OH212475   7.118   4.092   3.422
 4177TIP3    H112476   7.190   4.047   3.379
 4177TIP3    H212477   7.146   4.102   3.513
 4178TIP3   OH212478   7.059   0.835   0.382
 4178TIP3    H112479   7.098   0.782   0.312
 4178TIP3    H212480   7.132   0.858   0.439
 4179TIP3   OH212481   4.283   5.242   3.886
 4179TIP3    H112482   4.207   5.288   3.851
 4179TIP3    H212483   4.284   5.158   3.839
 4180TIP3   OH212484   2.567   2.603   0.110
 4180TIP3    H112485   2.565   2.571   0.200
 4180TIP3    H212486   2.511   2.681   0.111
 4181TIP3   OH212487   4.520   0.501   0.269
 4181TIP3    H112488   4.505   0.595   0.253
 4181TIP3    H212489   4.444   0.473   0.320
 4182TIP3   OH212490   7.350   5.000   4.937
 4182TIP3    H112491   7.266   4.955   4.924
 4182TIP3    H212492   7.361   5.003   5.032
 4183TIP3   OH212493   6.453   0.858   6.717
 4183TIP3    H112494   6.488   0.913   6.787
 4183TIP3    H212495   6.505   0.882   6.640
 4184TIP3   OH212496   6.030   5.369   0.696
 4184TIP3    H112497   6.071   5.304   0.639
 4184TIP3    H212498   5.952   5.326   0.729
 4185TIP3   OH212499   1.476   2.960   3.933
 4185TIP3    H112500   1.446   2.870   3.949
 4185TIP3    H212501   1.518   2.987   4.015
 4186TIP3   OH212502   2.282   2.756   2.456
 4186TIP3    H112503   2.290   2.662   2.467
 4186TIP3    H212504   2.188   2.774   2.460
 4187TIP3   OH212505   6.519   2.497   3.652
 4187TIP3    H112506   6.571   2.495   3.571
 4187TIP3    H212507   6.573   2.452   3.717
 4188TIP3   OH212508   0.280   5.059   3.232
 4188TIP3    H112509   0.346   5.120   3.198
 4188TIP3    H212510   0.227   5.036   3.155
 4189TIP3   OH212511   6.646   3.859   5.683
 4189TIP3    H112512   6.572   3.869   5.623
 4189TIP3    H212513   6.719   3.904   5.640
 4190TIP3   OH212514   7.761   5.378   4.426
 4190TIP3    H112515   7.841   5.349   4.471
 4190TIP3    H212516   7.782   5.464   4.392
 4191TIP3   OH212517   4.139   6.368   4.645
 4191TIP3    H112518   4.222   6.398   4.681
 4191TIP3    H212519   4.127   6.280   4.681
 4192TIP3   OH212520   7.100   6.182   1.402
 4192TIP3    H112521   7.146   6.241   1.463
 4192TIP3    H212522   7.102   6.097   1.446
 4193TIP3   OH212523   4.372   2.456   2.801
 4193TIP3    H112524   4.407   2.508   2.873
 4193TIP3    H212525   4.402   2.501   2.722
 4194TIP3   OH212526   1.938   2.543   5.265
 4194TIP3    H112527   1.972   2.631   5.249
 4194TIP3    H212528   1.987   2.487   5.205
 4195TIP3   OH212529   4.523   2.289   4.043
 4195TIP3    H112530   4.526   2.280   4.138
 4195TIP3    H212531   4.610   2.320   4.019
 4196TIP3   OH212532   5.883   3.964   0.103
 4196TIP3    H112533   5.814   4.005   0.050
 4196TIP3    H212534   5.952   4.030   0.106
 4197TIP3   OH212535   5.170   0.294   2.828
 4197TIP3    H112536   5.175   0.388   2.809
 4197TIP3    H212537   5.156   0.253   2.743
 4198TIP3   OH212538   6.455   2.274   0.012
 4198TIP3    H112539   6.380   2.296   0.067
 4198TIP3    H212540   6.448   2.334  -0.063
 4199TIP3   OH212541   5.868   0.566   6.716
 4199TIP3    H112542   5.831   0.514   6.788
 4199TIP3    H212543   5.806   0.557   6.645
 4200TIP3   OH212544   4.761   4.522   0.885
 4200TIP3    H112545   4.750   4.575   0.964
 4200TIP3    H212546   4.845   4.478   0.896
 4201TIP3   OH212547   4.309   5.699   2.870
 4201TIP3    H112548   4.317   5.611   2.833
 4201TIP3    H212549   4.360   5.696   2.951
 4202TIP3   OH212550   1.249   0.869   3.214
 4202TIP3    H112551   1.187   0.941   3.223
 4202TIP3    H212552   1.334   0.911   3.203
 4203TIP3   OH212553   4.215   2.753   1.482
 4203TIP3    H112554   4.273   2.799   1.420
 4203TIP3    H212555   4.275   2.715   1.546
 4204TIP3   OH212556   5.342   3.028   3.163
 4204TIP3    H112557   5.394   2.976   3.102
 4204TIP3    H212558   5.364   3.119   3.142
 4205TIP3   OH212559   7.533   5.889   1.877
 4205TIP3    H112560   7.559   5.923   1.963
 4205TIP3    H212561   7.450   5.845   1.892
 4206TIP3   OH212562   2.661   3.176   5.894
 4206TIP3    H112563   2.652   3.091   5.938
 4206TIP3    H212564   2.620   3.238   5.954
 4207TIP3   OH212565   6.376   2.765   1.361
 4207TIP3    H112566   6.350   2.852   1.332
 4207TIP3    H212567   6.364   2.709   1.284
 4208TIP3   OH212568   1.128   3.433   2.210
 4208TIP3    H112569   1.059   3.445   2.145
 4208TIP3    H212570   1.182   3.512   2.201
 4209TIP3   OH212571   2.840   5.262   0.089
 4209TIP3    H112572   2.766   5.203   0.082
 4209TIP3    H212573   2.829   5.304   0.175
 4210TIP3   OH212574   3.454   6.120   6.359
 4210TIP3    H112575   3.402   6.053   6.403
 4210TIP3    H212576   3.542   6.110   6.396
 4211TIP3   OH212577   1.632   0.965   2.171
 4211TIP3    H112578   1.624   0.871   2.189
 4211TIP3    H212579   1.723   0.977   2.146
 4212TIP3   OH212580   1.988   5.853   5.831
 4212TIP3    H112581   1.944   5.833   5.749
 4212TIP3    H212582   1.942   5.931   5.864
 4213TIP3   OH212583   4.650   7.673   5.031
 4213TIP3    H112584   4.697   7.589   5.036
 4213TIP3    H212585   4.696   7.722   4.963
 4214TIP3   OH212586   1.315   0.961   5.080
 4214TIP3    H112587   1.410   0.967   5.086
 4214TIP3    H212588   1.299   0.922   4.994
 4215TIP3   OH212589   6.710   1.060   4.278
 4215TIP3    H112590   6.660   1.104   4.346
 4215TIP3    H212591   6.659   0.980   4.259
 4216TIP3   OH212592   1.016   4.925   1.985
 4216TIP3    H112593   0.931   4.882   1.975
 4216TIP3    H212594   0.997   5.003   2.038
 4217TIP3   OH212595   2.761   3.795   4.190
 4217TIP3    H112596   2.750   3.759   4.101
 4217TIP3    H212597   2.674   3.787   4.229
 4218TIP3   OH212598   0.750   0.246   0.042
 4218TIP3    H112599   0.675   0.296   0.076
 4218TIP3    H212600   0.826   0.300   0.063
 4219TIP3   OH212601   3.667   7.555   0.869
 4219TIP3    H112602   3.679   7.584   0.960
 4219TIP3    H212603   3.685   7.461   0.871
 4220TIP3   OH212604   4.052   1.682   0.280
 4220TIP3    H112605   4.017   1.759   0.236
 4220TIP3    H212606   4.146   1.698   0.287
 4221TIP3   OH212607   5.224   4.101   3.434
 4221TIP3    H112608   5.257   4.043   3.365
 4221TIP3    H212609   5.303   4.134   3.477
 4222TIP3   OH212610   2.500   5.823   3.111
 4222TIP3    H112611   2.525   5.858   3.196
 4222TIP3    H212612   2.405   5.828   3.109
 4223TIP3   OH212613   7.437   0.544   4.001
 4223TIP3    H112614   7.476   0.462   4.032
 4223TIP3    H212615   7.500   0.611   4.025
 4224TIP3   OH212616   2.448   2.376   3.877
 4224TIP3    H112617   2.529   2.363   3.829
 4224TIP3    H212618   2.383   2.400   3.811
 4225TIP3   OH212619   2.526   3.147   0.212
 4225TIP3    H112620   2.480   3.071   0.246
 4225TIP3    H212621   2.470   3.221   0.235
 4226TIP3   OH212622   0.327   6.250   3.391
 4226TIP3    H112623   0.391   6.195   3.436
 4226TIP3    H212624   0.373   6.333   3.377
 4227TIP3   OH212625   3.394   5.660   5.805
 4227TIP3    H112626   3.322   5.711   5.769
 4227TIP3    H212627   3.354   5.577   5.833
 4228TIP3   OH212628   1.180   0.509   4.783
 4228TIP3    H112629   1.166   0.443   4.715
 4228TIP3    H212630   1.154   0.591   4.742
 4229TIP3   OH212631   4.730   6.942   1.657
 4229TIP3    H112632   4.641   6.911   1.673
 4229TIP3    H212633   4.769   6.951   1.744
 4230TIP3   OH212634   6.024   4.528   1.077
 4230TIP3    H112635   6.039   4.604   1.020
 4230TIP3    H212636   5.931   4.508   1.067
 4231TIP3   OH212637   3.448   1.450   2.287
 4231TIP3    H112638   3.408   1.438   2.373
 4231TIP3    H212639   3.466   1.361   2.256
 4232TIP3   OH212640   8.202   5.549   4.723
 4232TIP3    H112641   8.251   5.468   4.716
 4232TIP3    H212642   8.260   5.616   4.685
 4233TIP3   OH212643   4.462   6.807   4.357
 4233TIP3    H112644   4.459   6.731   4.415
 4233TIP3    H212645   4.376   6.848   4.367
 4234TIP3   OH212646   0.943   1.422   1.010
 4234TIP3    H112647   0.885   1.391   0.941
 4234TIP3    H212648   0.911   1.510   1.030
 4235TIP3   OH212649   0.779   0.328   2.618
 4235TIP3    H112650   0.846   0.390   2.587
 4235TIP3    H212651   0.717   0.322   2.546
 4236TIP3   OH212652   7.503   2.827   5.198
 4236TIP3    H112653   7.461   2.902   5.156
 4236TIP3    H212654   7.495   2.845   5.292
 4237TIP3   OH212655   5.519   0.509   3.897
 4237TIP3    H112656   5.500   0.467   3.814
 4237TIP3    H212657   5.499   0.443   3.963
 4238TIP3   OH212658   1.336   6.883   3.227
 4238TIP3    H112659   1.245   6.865   3.250
 4238TIP3    H212660   1.331   6.934   3.146
 4239TIP3   OH212661   4.463   6.815   5.834
 4239TIP3    H112662   4.554   6.795   5.860
 4239TIP3    H212663   4.461   6.799   5.739
 4240TIP3   OH212664   1.030   5.530   6.464
 4240TIP3    H112665   1.050   5.553   6.374
 4240TIP3    H212666   1.115   5.506   6.502
 4241TIP3   OH212667   4.600   7.550   3.961
 4241TIP3    H112668   4.643   7.571   4.045
 4241TIP3    H212669   4.527   7.494   3.985
 4242TIP3   OH212670   6.965   4.519   4.792
 4242TIP3    H112671   7.059   4.536   4.787
 4242TIP3    H212672   6.931   4.586   4.852
 4243TIP3   OH212673   6.951   5.651   2.429
 4243TIP3    H112674   6.883   5.659   2.362
 4243TIP3    H212675   7.033   5.664   2.381
 4244TIP3   OH212676   4.117   6.511   3.629
 4244TIP3    H112677   4.034   6.501   3.581
 4244TIP3    H212678   4.183   6.523   3.561
 4245TIP3   OH212679   5.692   0.678   3.422
 4245TIP3    H112680   5.663   0.700   3.333
 4245TIP3    H212681   5.678   0.584   3.429
 4246TIP3   OH212682   0.251   4.606   3.889
 4246TIP3    H112683   0.294   4.621   3.805
 4246TIP3    H212684   0.316   4.558   3.940
 4247TIP3   OH212685   7.838   4.287   0.897
 4247TIP3    H112686   7.929   4.282   0.868
 4247TIP3    H212687   7.826   4.378   0.923
 4248TIP3   OH212688   8.295   0.327   3.769
 4248TIP3    H112689   8.285   0.281   3.686
 4248TIP3    H212690   8.209   0.321   3.810
 4249TIP3   OH212691   1.353   2.257   2.439
 4249TIP3    H112692   1.422   2.275   2.503
 4249TIP3    H212693   1.345   2.162   2.439
 4250TIP3   OH212694   1.831   3.879   1.044
 4250TIP3    H112695   1.810   3.807   1.104
 4250TIP3    H212696   1.755   3.937   1.050
 4251TIP3   OH212697   7.872   1.006   6.519
 4251TIP3    H112698   7.808   0.944   6.554
 4251TIP3    H212699   7.957   0.964   6.533
 4252TIP3   OH212700   3.953   5.517   2.090
 4252TIP3    H112701   4.039   5.525   2.131
 4252TIP3    H212702   3.959   5.569   2.010
 4253TIP3   OH212703   8.201   5.149   5.899
 4253TIP3    H112704   8.232   5.229   5.942
 4253TIP3    H212705   8.119   5.174   5.858
 4254TIP3   OH212706   4.476   5.030   2.874
 4254TIP3    H112707   4.400   5.020   2.931
 4254TIP3    H212708   4.455   5.105   2.819
 4255TIP3   OH212709   6.557   2.448   3.357
 4255TIP3    H112710   6.625   2.502   3.317
 4255TIP3    H212711   6.602   2.368   3.385
 4256TIP3   OH212712   7.342   4.247   6.093
 4256TIP3    H112713   7.262   4.209   6.130
 4256TIP3    H212714   7.328   4.244   5.999
 4257TIP3   OH212715   1.678   1.375   6.650
 4257TIP3    H112716   1.629   1.353   6.570
 4257TIP3    H212717   1.612   1.372   6.720
 4258TIP3   OH212718   4.139   5.051   5.101
 4258TIP3    H112719   4.140   4.968   5.148
 4258TIP3    H212720   4.227   5.059   5.064
 4259TIP3   OH212721   1.982   4.724   5.868
 4259TIP3    H112722   1.944   4.807   5.899
 4259TIP3    H212723   2.033   4.692   5.942
 4260TIP3   OH212724   5.676   7.143   0.636
 4260TIP3    H112725   5.619   7.145   0.712
 4260TIP3    H212726   5.745   7.081   0.660
 4261TIP3   OH212727   7.885   1.165   3.504
 4261TIP3    H112728   7.817   1.149   3.439
 4261TIP3    H212729   7.966   1.175   3.453
 4262TIP3   OH212730   4.455   4.348   1.787
 4262TIP3    H112731   4.497   4.324   1.869
 4262TIP3    H212732   4.376   4.397   1.814
 4263TIP3   OH212733   2.090   2.583   2.057
 4263TIP3    H112734   2.162   2.626   2.011
 4263TIP3    H212735   2.131   2.547   2.136
 4264TIP3   OH212736   6.562   2.111   5.211
 4264TIP3    H112737   6.633   2.168   5.180
 4264TIP3    H212738   6.484   2.145   5.167
 4265TIP3   OH212739   6.024   0.232   1.762
 4265TIP3    H112740   6.117   0.215   1.749
 4265TIP3    H212741   6.014   0.326   1.745
 4266TIP3   OH212742   3.538   5.251   3.771
 4266TIP3    H112743   3.442   5.254   3.774
 4266TIP3    H212744   3.565   5.290   3.854
 4267TIP3   OH212745   6.403   4.537   3.055
 4267TIP3    H112746   6.461   4.613   3.053
 4267TIP3    H212747   6.319   4.571   3.025
 4268TIP3   OH212748   8.167   0.898   2.614
 4268TIP3    H112749   8.169   0.803   2.603
 4268TIP3    H212750   8.256   0.926   2.591
 4269TIP3   OH212751   4.078   3.512   5.184
 4269TIP3    H112752   4.147   3.503   5.249
 4269TIP3    H212753   4.114   3.471   5.105
 4270TIP3   OH212754   5.040   2.087   0.766
 4270TIP3    H112755   5.040   2.029   0.690
 4270TIP3    H212756   5.058   2.174   0.730
 4271TIP3   OH212757   7.569   7.661   2.305
 4271TIP3    H112758   7.559   7.570   2.335
 4271TIP3    H212759   7.648   7.660   2.252
 4272TIP3   OH212760   7.835   4.795   4.568
 4272TIP3    H112761   7.835   4.884   4.532
 4272TIP3    H212762   7.928   4.773   4.578
 4273TIP3   OH212763   5.285   0.593   6.276
 4273TIP3    H112764   5.261   0.510   6.318
 4273TIP3    H212765   5.219   0.655   6.306
 4274TIP3   OH212766   1.018   5.450   3.511
 4274TIP3    H112767   0.972   5.393   3.449
 4274TIP3    H212768   0.987   5.422   3.597
 4275TIP3   OH212769   8.040   4.960   3.675
 4275TIP3    H112770   8.068   4.872   3.700
 4275TIP3    H212771   8.097   4.983   3.602
 4276TIP3   OH212772   0.006   2.631   4.068
 4276TIP3    H112773  -0.084   2.630   4.100
 4276TIP3    H212774   0.054   2.680   4.135
 4277TIP3   OH212775   3.446   2.899   6.269
 4277TIP3    H112776   3.454   2.979   6.217
 4277TIP3    H212777   3.365   2.858   6.238
 4278TIP3   OH212778   4.367   5.215   2.674
 4278TIP3    H112779   4.461   5.232   2.681
 4278TIP3    H212780   4.362   5.134   2.622
 4279TIP3   OH212781   7.648   7.658   3.275
 4279TIP3    H112782   7.704   7.596   3.321
 4279TIP3    H212783   7.648   7.628   3.184
 4280TIP3   OH212784   4.879   1.847   6.587
 4280TIP3    H112785   4.941   1.827   6.657
 4280TIP3    H212786   4.802   1.793   6.607
 4281TIP3   OH212787   5.875   7.807   2.879
 4281TIP3    H112788   5.950   7.800   2.821
 4281TIP3    H212789   5.861   7.719   2.913
 4282TIP3   OH212790   6.653   6.020   5.685
 4282TIP3    H112791   6.634   5.930   5.658
 4282TIP3    H212792   6.728   6.045   5.632
 4283TIP3   OH212793   3.275   5.213   5.233
 4283TIP3    H112794   3.269   5.289   5.176
 4283TIP3    H212795   3.339   5.238   5.301
 4284TIP3   OH212796   2.397   2.083   6.695
 4284TIP3    H112797   2.384   2.176   6.676
 4284TIP3    H212798   2.438   2.082   6.781
 4285TIP3   OH212799   6.445   4.560   4.508
 4285TIP3    H112800   6.527   4.517   4.484
 4285TIP3    H212801   6.436   4.542   4.602
 4286TIP3   OH212802   1.536   0.139   4.530
 4286TIP3    H112803   1.451   0.098   4.514
 4286TIP3    H212804   1.564   0.171   4.444
 4287TIP3   OH212805   5.068   1.699   4.341
 4287TIP3    H112806   4.993   1.735   4.388
 4287TIP3    H212807   5.030   1.649   4.269
 4288TIP3   OH212808   2.317   6.569   2.878
 4288TIP3    H112809   2.311   6.571   2.974
 4288TIP3    H212810   2.361   6.651   2.855
 4289TIP3   OH212811   0.608   1.956   2.342
 4289TIP3    H112812   0.577   1.989   2.257
 4289TIP3    H212813   0.550   1.883   2.362
 4290TIP3   OH212814   1.319   2.367   5.046
 4290TIP3    H112815   1.398   2.344   4.998
 4290TIP3    H212816   1.347   2.372   5.138
 4291TIP3   OH212817   0.955   5.543   1.619
 4291TIP3    H112818   1.024   5.540   1.686
 4291TIP3    H212819   0.990   5.599   1.550
 4292TIP3   OH212820   7.418   3.734   5.183
 4292TIP3    H112821   7.496   3.728   5.128
 4292TIP3    H212822   7.447   3.786   5.258
 4293TIP3   OH212823   3.367   3.051   3.737
 4293TIP3    H112824   3.449   3.087   3.702
 4293TIP3    H212825   3.390   3.017   3.824
 4294TIP3   OH212826   1.481   3.744   0.016
 4294TIP3    H112827   1.559   3.797   0.027
 4294TIP3    H212828   1.483   3.717  -0.076
 4295TIP3   OH212829   8.101   3.677   5.785
 4295TIP3    H112830   8.027   3.616   5.784
 4295TIP3    H212831   8.143   3.664   5.700
 4296TIP3   OH212832   0.240   1.947   2.122
 4296TIP3    H112833   0.324   1.979   2.089
 4296TIP3    H212834   0.203   2.021   2.170
 4297TIP3   OH212835   2.216   4.361   5.768
 4297TIP3    H112836   2.125   4.344   5.791
 4297TIP3    H212837   2.231   4.310   5.688
 4298TIP3   OH212838   7.019   0.258   5.061
 4298TIP3    H112839   7.062   0.188   5.011
 4298TIP3    H212840   6.926   0.240   5.052
 4299TIP3   OH212841   7.923   4.321   5.591
 4299TIP3    H112842   7.983   4.262   5.546
 4299TIP3    H212843   7.962   4.408   5.581
 4300TIP3   OH212844   0.880   0.536   3.448
 4300TIP3    H112845   0.951   0.569   3.393
 4300TIP3    H212846   0.804   0.536   3.391
 4301TIP3   OH212847   1.611   1.983   4.903
 4301TIP3    H112848   1.686   2.036   4.876
 4301TIP3    H212849   1.589   1.931   4.826
 4302TIP3   OH212850   0.895   7.377   0.980
 4302TIP3    H112851   0.866   7.286   0.985
 4302TIP3    H212852   0.963   7.377   0.913
 4303TIP3   OH212853   6.193   3.701   3.097
 4303TIP3    H112854   6.098   3.714   3.098
 4303TIP3    H212855   6.207   3.634   3.030
 4304TIP3   OH212856   0.792   2.359   1.369
 4304TIP3    H112857   0.737   2.374   1.292
 4304TIP3    H212858   0.850   2.435   1.373
 4305TIP3   OH212859   2.692   0.379   3.377
 4305TIP3    H112860   2.720   0.355   3.288
 4305TIP3    H212861   2.743   0.323   3.434
 4306TIP3   OH212862   1.417   1.145   6.662
 4306TIP3    H112863   1.372   1.153   6.578
 4306TIP3    H212864   1.415   1.052   6.682
 4307TIP3   OH212865   3.147   5.725   2.177
 4307TIP3    H112866   3.241   5.728   2.196
 4307TIP3    H212867   3.142   5.722   2.082
 4308TIP3   OH212868   7.736   2.242   6.544
 4308TIP3    H112869   7.713   2.284   6.627
 4308TIP3    H212870   7.831   2.244   6.542
 4309TIP3   OH212871   4.334   3.802   3.534
 4309TIP3    H112872   4.298   3.797   3.445
 4309TIP3    H212873   4.275   3.749   3.587
 4310TIP3   OH212874   7.962   7.045   0.661
 4310TIP3    H112875   7.888   7.018   0.716
 4310TIP3    H212876   8.036   6.994   0.693
 4311TIP3   OH212877   0.717   4.188   2.538
 4311TIP3    H112878   0.792   4.128   2.538
 4311TIP3    H212879   0.750   4.267   2.495
 4312TIP3   OH212880   2.931   5.384   6.684
 4312TIP3    H112881   2.873   5.328   6.736
 4312TIP3    H212882   2.876   5.457   6.655
 4313TIP3   OH212883   1.601   6.412   5.886
 4313TIP3    H112884   1.649   6.387   5.807
 4313TIP3    H212885   1.669   6.435   5.949
 4314TIP3   OH212886   2.185   5.514   3.889
 4314TIP3    H112887   2.115   5.541   3.950
 4314TIP3    H212888   2.140   5.460   3.824
 4315TIP3   OH212889   1.507   4.220   2.233
 4315TIP3    H112890   1.494   4.302   2.280
 4315TIP3    H212891   1.593   4.229   2.192
 4316TIP3   OH212892   1.390   3.398   3.891
 4316TIP3    H112893   1.303   3.359   3.901
 4316TIP3    H212894   1.437   3.337   3.835
 4317TIP3   OH212895   2.383   3.537   0.733
 4317TIP3    H112896   2.411   3.487   0.657
 4317TIP3    H212897   2.292   3.561   0.714
 4318TIP3   OH212898   1.397   0.861   6.711
 4318TIP3    H112899   1.313   0.901   6.737
 4318TIP3    H212900   1.372   0.788   6.654
 4319TIP3   OH212901   5.887   4.197   2.245
 4319TIP3    H112902   5.890   4.147   2.327
 4319TIP3    H212903   5.978   4.218   2.226
 4320TIP3   OH212904   5.761   7.276   6.424
 4320TIP3    H112905   5.709   7.232   6.357
 4320TIP3    H212906   5.838   7.308   6.377
 4321TIP3   OH212907   4.909   2.828   2.210
 4321TIP3    H112908   4.995   2.819   2.170
 4321TIP3    H212909   4.926   2.871   2.294
 4322TIP3   OH212910   8.237   7.609   2.932
 4322TIP3    H112911   8.190   7.602   3.014
 4322TIP3    H212912   8.328   7.626   2.957
 4323TIP3   OH212913   1.920   0.578   5.049
 4323TIP3    H112914   2.003   0.622   5.065
 4323TIP3    H212915   1.899   0.535   5.132
 4324TIP3   OH212916   6.006   3.119   2.742
 4324TIP3    H112917   6.008   3.133   2.648
 4324TIP3    H212918   5.915   3.139   2.768
 4325TIP3   OH212919   2.529   6.835   2.276
 4325TIP3    H112920   2.553   6.763   2.218
 4325TIP3    H212921   2.471   6.796   2.341
 4326TIP3   OH212922   5.298   7.103   3.874
 4326TIP3    H112923   5.252   7.022   3.896
 4326TIP3    H212924   5.231   7.156   3.829
 4327TIP3   OH212925   3.183   1.876   6.418
 4327TIP3    H112926   3.272   1.907   6.400
 4327TIP3    H212927   3.192   1.820   6.495
 4328TIP3   OH212928   7.595   0.584   4.588
 4328TIP3    H112929   7.619   0.653   4.526
 4328TIP3    H212930   7.500   0.593   4.598
 4329TIP3   OH212931   4.156   4.490   0.696
 4329TIP3    H112932   4.232   4.469   0.641
 4329TIP3    H212933   4.092   4.525   0.634
 4330TIP3   OH212934   4.208   2.409   6.114
 4330TIP3    H112935   4.255   2.491   6.104
 4330TIP3    H212936   4.211   2.368   6.028
 4331TIP3   OH212937   2.561   2.224   2.253
 4331TIP3    H112938   2.615   2.158   2.297
 4331TIP3    H212939   2.507   2.175   2.192
 4332TIP3   OH212940   2.284   5.128   3.877
 4332TIP3    H112941   2.300   5.212   3.836
 4332TIP3    H212942   2.311   5.063   3.811
 4333TIP3   OH212943   0.233   3.094   2.433
 4333TIP3    H112944   0.252   3.183   2.462
 4333TIP3    H212945   0.258   3.093   2.341
 4334TIP3   OH212946   8.249   2.946   1.494
 4334TIP3    H112947   8.200   3.000   1.432
 4334TIP3    H212948   8.200   2.955   1.577
 4335TIP3   OH212949   0.777   2.183   4.072
 4335TIP3    H112950   0.698   2.130   4.080
 4335TIP3    H212951   0.778   2.238   4.151
 4336TIP3   OH212952   0.614   5.360   6.743
 4336TIP3    H112953   0.595   5.451   6.723
 4336TIP3    H212954   0.709   5.354   6.736
 4337TIP3   OH212955   4.120   7.396   0.796
 4337TIP3    H112956   4.084   7.440   0.873
 4337TIP3    H212957   4.049   7.339   0.766
 4338TIP3   OH212958   2.705   1.133   3.540
 4338TIP3    H112959   2.695   1.225   3.518
 4338TIP3    H212960   2.709   1.131   3.636
 4339TIP3   OH212961   2.596   3.950   0.101
 4339TIP3    H112962   2.604   3.909   0.187
 4339TIP3    H212963   2.666   3.910   0.049
 4340TIP3   OH212964   8.226   3.654   1.694
 4340TIP3    H112965   8.282   3.638   1.771
 4340TIP3    H212966   8.137   3.636   1.725
 4341TIP3   OH212967   1.581   0.313   3.237
 4341TIP3    H112968   1.553   0.234   3.281
 4341TIP3    H212969   1.541   0.384   3.286
 4342TIP3   OH212970   0.765   7.418   5.418
 4342TIP3    H112971   0.676   7.412   5.382
 4342TIP3    H212972   0.821   7.429   5.341
 4343TIP3   OH212973   2.753   7.028   5.443
 4343TIP3    H112974   2.724   7.115   5.471
 4343TIP3    H212975   2.687   6.969   5.478
 4344TIP3   OH212976   4.367   6.593   1.070
 4344TIP3    H112977   4.343   6.685   1.054
 4344TIP3    H212978   4.323   6.571   1.152
 4345TIP3   OH212979   7.769   6.989   0.855
 4345TIP3    H112980   7.773   6.895   0.873
 4345TIP3    H212981   7.709   7.023   0.921
 4346TIP3   OH212982   0.715   3.821   5.391
 4346TIP3    H112983   0.791   3.763   5.391
 4346TIP3    H212984   0.708   3.852   5.481
 4347TIP3   OH212985   4.640   4.975   3.093
 4347TIP3    H112986   4.579   5.031   3.140
 4347TIP3    H212987   4.587   4.901   3.062
 4348TIP3   OH212988   0.863   7.416   5.144
 4348TIP3    H112989   0.937   7.427   5.085
 4348TIP3    H212990   0.789   7.456   5.098
 4349TIP3   OH212991   5.771   7.152   5.941
 4349TIP3    H112992   5.855   7.197   5.927
 4349TIP3    H212993   5.786   7.063   5.908
 4350TIP3   OH212994   4.053   4.005   6.328
 4350TIP3    H112995   4.034   4.091   6.366
 4350TIP3    H212996   3.998   4.002   6.249
 4351TIP3   OH212997   3.804   6.069   1.740
 4351TIP3    H112998   3.716   6.038   1.719
 4351TIP3    H212999   3.862   6.019   1.682
 4352TIP3   OH213000   4.993   3.954   1.341
 4352TIP3    H113001   4.964   3.974   1.430
 4352TIP3    H213002   4.913   3.928   1.295
 4353TIP3   OH213003   4.333   1.043   1.701
 4353TIP3    H113004   4.335   1.046   1.796
 4353TIP3    H213005   4.256   1.094   1.677
 4354TIP3   OH213006   6.085   3.119   4.991
 4354TIP3    H113007   6.099   3.142   5.083
 4354TIP3    H213008   6.053   3.200   4.951
 4355TIP3   OH213009   7.434   2.667   4.476
 4355TIP3    H113010   7.396   2.734   4.419
 4355TIP3    H213011   7.480   2.608   4.417
 4356TIP3   OH213012   5.060   0.816   5.142
 4356TIP3    H113013   5.003   0.883   5.104
 4356TIP3    H213014   5.084   0.760   5.068
 4357TIP3   OH213015   3.057   3.696   5.711
 4357TIP3    H113016   3.095   3.732   5.792
 4357TIP3    H213017   2.963   3.688   5.730
 4358TIP3   OH213018   0.619   1.772   1.627
 4358TIP3    H113019   0.637   1.751   1.535
 4358TIP3    H213020   0.634   1.690   1.674
 4359TIP3   OH213021   6.815   3.217   0.464
 4359TIP3    H113022   6.846   3.295   0.419
 4359TIP3    H213023   6.844   3.228   0.554
 4360TIP3   OH213024   1.362   5.060   0.170
 4360TIP3    H113025   1.339   4.971   0.142
 4360TIP3    H213026   1.387   5.051   0.262
 4361TIP3   OH213027   2.791   1.239   3.822
 4361TIP3    H113028   2.728   1.211   3.889
 4361TIP3    H213029   2.865   1.274   3.870
 4362TIP3   OH213030   6.192   2.360   4.359
 4362TIP3    H113031   6.129   2.362   4.287
 4362TIP3    H213032   6.276   2.343   4.317
 4363TIP3   OH213033   3.885   3.823   3.034
 4363TIP3    H113034   3.824   3.894   3.011
 4363TIP3    H213035   3.847   3.745   2.995
 4364TIP3   OH213036   8.153   6.805   0.071
 4364TIP3    H113037   8.146   6.838  -0.019
 4364TIP3    H213038   8.107   6.721   0.070
 4365TIP3   OH213039   1.232   7.410   5.624
 4365TIP3    H113040   1.148   7.370   5.645
 4365TIP3    H213041   1.267   7.356   5.552
 4366TIP3   OH213042   1.946   5.155   5.454
 4366TIP3    H113043   2.019   5.162   5.392
 4366TIP3    H213044   1.978   5.197   5.534
 4367TIP3   OH213045   5.754   1.459   5.377
 4367TIP3    H113046   5.801   1.488   5.456
 4367TIP3    H213047   5.703   1.383   5.406
 4368TIP3   OH213048   2.589   5.632   4.676
 4368TIP3    H113049   2.559   5.672   4.758
 4368TIP3    H213050   2.524   5.658   4.611
 4369TIP3   OH213051   1.467   5.741   2.623
 4369TIP3    H113052   1.384   5.786   2.609
 4369TIP3    H213053   1.443   5.649   2.634
 4370TIP3   OH213054   2.565   1.301   5.868
 4370TIP3    H113055   2.640   1.266   5.820
 4370TIP3    H213056   2.515   1.224   5.894
 4371TIP3   OH213057   3.423   6.552   1.206
 4371TIP3    H113058   3.356   6.595   1.153
 4371TIP3    H213059   3.482   6.623   1.233
 4372TIP3   OH213060   5.053   1.839   2.735
 4372TIP3    H113061   4.994   1.868   2.804
 4372TIP3    H213062   5.092   1.758   2.768
 4373TIP3   OH213063   6.051   0.581   4.418
 4373TIP3    H113064   6.070   0.489   4.399
 4373TIP3    H213065   6.053   0.586   4.514
 4374TIP3   OH213066   4.833   6.989   1.958
 4374TIP3    H113067   4.780   7.063   1.930
 4374TIP3    H213068   4.819   6.984   2.053
 4375TIP3   OH213069   0.041   0.596   0.328
 4375TIP3    H113070   0.058   0.689   0.340
 4375TIP3    H213071  -0.046   0.593   0.286
 4376TIP3   OH213072   2.108   5.401   0.613
 4376TIP3    H113073   2.158   5.460   0.556
 4376TIP3    H213074   2.176   5.354   0.662
 4377TIP3   OH213075   7.405   2.926   4.635
 4377TIP3    H113076   7.491   2.884   4.648
 4377TIP3    H213077   7.421   2.991   4.567
 4378TIP3   OH213078   4.619   3.005   3.359
 4378TIP3    H113079   4.597   2.913   3.340
 4378TIP3    H213080   4.713   3.002   3.380
 4379TIP3   OH213081   4.509   2.278   4.915
 4379TIP3    H113082   4.495   2.236   4.999
 4379TIP3    H213083   4.542   2.366   4.937
 4380TIP3   OH213084   2.216   5.037   4.490
 4380TIP3    H113085   2.253   5.116   4.452
 4380TIP3    H213086   2.287   5.000   4.543
 4381TIP3   OH213087   6.954   4.308   5.857
 4381TIP3    H113088   6.860   4.290   5.863
 4381TIP3    H213089   6.995   4.222   5.859
 4382TIP3   OH213090   3.368   4.448   3.958
 4382TIP3    H113091   3.338   4.392   3.885
 4382TIP3    H213092   3.310   4.426   4.030
 4383TIP3   OH213093   4.193   0.190   4.481
 4383TIP3    H113094   4.131   0.254   4.517
 4383TIP3    H213095   4.139   0.132   4.428
 4384TIP3   OH213096   1.441   6.518   2.647
 4384TIP3    H113097   1.484   6.529   2.562
 4384TIP3    H213098   1.356   6.480   2.626
 4385TIP3   OH213099   8.166   4.548   0.048
 4385TIP3    H113100   8.252   4.512   0.025
 4385TIP3    H213101   8.184   4.637   0.076
 4386TIP3   OH213102   1.791   1.055   3.180
 4386TIP3    H113103   1.804   0.960   3.184
 4386TIP3    H213104   1.806   1.085   3.270
 4387TIP3   OH213105   4.469   6.009   4.677
 4387TIP3    H113106   4.462   6.105   4.683
 4387TIP3    H213107   4.458   5.990   4.584
 4388TIP3   OH213108   7.383   6.218   3.133
 4388TIP3    H113109   7.409   6.212   3.041
 4388TIP3    H213110   7.306   6.274   3.133
 4389TIP3   OH213111   7.231   7.546   0.236
 4389TIP3    H113112   7.208   7.457   0.209
 4389TIP3    H213113   7.164   7.601   0.197
 4390TIP3   OH213114   7.091   3.047   0.600
 4390TIP3    H113115   7.144   3.088   0.667
 4390TIP3    H213116   7.004   3.086   0.610
 4391TIP3   OH213117   4.748   0.216   2.606
 4391TIP3    H113118   4.812   0.182   2.669
 4391TIP3    H213119   4.783   0.191   2.521
 4392TIP3   OH213120   2.750   4.148   2.760
 4392TIP3    H113121   2.765   4.079   2.824
 4392TIP3    H213122   2.795   4.225   2.797
 4393TIP3   OH213123   2.986   1.354   2.952
 4393TIP3    H113124   2.978   1.262   2.929
 4393TIP3    H213125   2.949   1.401   2.877
 4394TIP3   OH213126   7.028   0.533   0.904
 4394TIP3    H113127   6.995   0.613   0.944
 4394TIP3    H213128   7.095   0.501   0.965
 4395TIP3   OH213129   7.777   5.587   5.890
 4395TIP3    H113130   7.813   5.546   5.811
 4395TIP3    H213131   7.724   5.519   5.931
 4396TIP3   OH213132   8.210   0.405   2.370
 4396TIP3    H113133   8.137   0.371   2.421
 4396TIP3    H213134   8.244   0.328   2.323
 4397TIP3   OH213135   0.182   2.849   5.142
 4397TIP3    H113136   0.264   2.842   5.093
 4397TIP3    H213137   0.188   2.933   5.187
 4398TIP3   OH213138   2.188   2.533   4.574
 4398TIP3    H113139   2.225   2.588   4.505
 4398TIP3    H213140   2.186   2.589   4.652
 4399TIP3   OH213141   5.384   1.247   1.011
 4399TIP3    H113142   5.433   1.262   0.930
 4399TIP3    H213143   5.415   1.315   1.071
 4400TIP3   OH213144   5.947   3.744   3.790
 4400TIP3    H113145   6.030   3.714   3.752
 4400TIP3    H213146   5.941   3.699   3.874
 4401TIP3   OH213147   6.824   3.924   6.722
 4401TIP3    H113148   6.834   3.839   6.678
 4401TIP3    H213149   6.912   3.959   6.726
 4402TIP3   OH213150   5.871   5.485   1.241
 4402TIP3    H113151   5.780   5.486   1.212
 4402TIP3    H213152   5.920   5.454   1.165
 4403TIP3   OH213153   3.441   3.433   4.508
 4403TIP3    H113154   3.532   3.408   4.526
 4403TIP3    H213155   3.441   3.461   4.417
 4404TIP3   OH213156   2.426   6.463   0.745
 4404TIP3    H113157   2.489   6.420   0.802
 4404TIP3    H213158   2.416   6.551   0.781
 4405TIP3   OH213159   4.894   1.143   3.207
 4405TIP3    H113160   4.965   1.081   3.187
 4405TIP3    H213161   4.816   1.103   3.169
 4406TIP3   OH213162   6.521   3.483   2.971
 4406TIP3    H113163   6.616   3.497   2.972
 4406TIP3    H213164   6.498   3.475   3.064
 4407TIP3   OH213165   5.046   0.617   1.799
 4407TIP3    H113166   5.055   0.695   1.853
 4407TIP3    H213167   4.955   0.618   1.770
 4408TIP3   OH213168   7.838   6.937   3.864
 4408TIP3    H113169   7.788   6.980   3.795
 4408TIP3    H213170   7.929   6.945   3.837
 4409TIP3   OH213171   3.263   7.459   5.511
 4409TIP3    H113172   3.297   7.533   5.562
 4409TIP3    H213173   3.271   7.488   5.420
 4410TIP3   OH213174   3.664   5.853   0.544
 4410TIP3    H113175   3.683   5.904   0.465
 4410TIP3    H213176   3.703   5.903   0.616
 4411TIP3   OH213177   8.009   0.086   4.097
 4411TIP3    H113178   8.053   0.002   4.110
 4411TIP3    H213179   7.961   0.101   4.179
 4412TIP3   OH213180   3.858   4.742   3.873
 4412TIP3    H113181   3.939   4.720   3.918
 4412TIP3    H213182   3.791   4.688   3.916
 4413TIP3   OH213183   4.035   1.563   0.581
 4413TIP3    H113184   4.094   1.563   0.506
 4413TIP3    H213185   4.067   1.492   0.637
 4414TIP3   OH213186   6.872   5.667   2.677
 4414TIP3    H113187   6.960   5.669   2.714
 4414TIP3    H213188   6.886   5.649   2.584
 4415TIP3   OH213189   5.006   2.678   3.263
 4415TIP3    H113190   4.947   2.638   3.327
 4415TIP3    H213191   4.959   2.756   3.232
 4416TIP3   OH213192   0.790   6.489   5.913
 4416TIP3    H113193   0.733   6.553   5.871
 4416TIP3    H213194   0.842   6.541   5.975
 4417TIP3   OH213195   6.452   2.494   1.672
 4417TIP3    H113196   6.390   2.564   1.656
 4417TIP3    H213197   6.408   2.415   1.642
 4418TIP3   OH213198   1.675   0.724   0.199
 4418TIP3    H113199   1.611   0.689   0.137
 4418TIP3    H213200   1.693   0.652   0.259
 4419TIP3   OH213201   2.057   3.759   2.292
 4419TIP3    H113202   2.042   3.671   2.327
 4419TIP3    H213203   2.142   3.785   2.329
 4420TIP3   OH213204   7.611   7.286   3.097
 4420TIP3    H113205   7.525   7.327   3.092
 4420TIP3    H213206   7.635   7.268   3.006
 4421TIP3   OH213207   1.043   6.830   2.294
 4421TIP3    H113208   1.127   6.787   2.312
 4421TIP3    H213209   0.986   6.803   2.366
 4422TIP3   OH213210   1.902   0.414   5.322
 4422TIP3    H113211   1.883   0.439   5.413
 4422TIP3    H213212   1.888   0.319   5.320
 4423TIP3   OH213213   0.098   1.171   3.270
 4423TIP3    H113214   0.133   1.156   3.182
 4423TIP3    H213215   0.043   1.249   3.261
 4424TIP3   OH213216   8.162   0.814   5.671
 4424TIP3    H113217   8.156   0.805   5.766
 4424TIP3    H213218   8.245   0.860   5.657
 4425TIP3   OH213219   4.236   2.648   5.064
 4425TIP3    H113220   4.291   2.603   5.000
 4425TIP3    H213221   4.205   2.726   5.017
 4426TIP3   OH213222   3.925   7.179   3.313
 4426TIP3    H113223   3.996   7.124   3.345
 4426TIP3    H213224   3.856   7.171   3.379
 4427TIP3   OH213225   5.955   0.028   4.906
 4427TIP3    H113226   5.902   0.010   4.828
 4427TIP3    H213227   5.902   0.086   4.959
 4428TIP3   OH213228   0.659   0.531   3.832
 4428TIP3    H113229   0.687   0.501   3.919
 4428TIP3    H213230   0.737   0.521   3.778
 4429TIP3   OH213231   2.612   0.551   2.746
 4429TIP3    H113232   2.546   0.621   2.752
 4429TIP3    H213233   2.694   0.596   2.731
 4430TIP3   OH213234   3.110   4.162   2.820
 4430TIP3    H113235   3.090   4.170   2.914
 4430TIP3    H213236   3.140   4.072   2.809
 4431TIP3   OH213237   0.297   7.071   3.130
 4431TIP3    H113238   0.239   7.026   3.191
 4431TIP3    H213239   0.239   7.128   3.079
 4432TIP3   OH213240   6.297   6.299   5.554
 4432TIP3    H113241   6.329   6.371   5.609
 4432TIP3    H213242   6.300   6.334   5.465
 4433TIP3   OH213243   7.780   0.691   5.901
 4433TIP3    H113244   7.821   0.681   5.815
 4433TIP3    H213245   7.833   0.638   5.960
 4434TIP3   OH213246   4.200   0.774   3.703
 4434TIP3    H113247   4.237   0.862   3.699
 4434TIP3    H213248   4.183   0.760   3.796
 4435TIP3   OH213249   5.332   0.565   4.351
 4435TIP3    H113250   5.366   0.594   4.436
 4435TIP3    H213251   5.239   0.549   4.367
 4436TIP3   OH213252   6.260   2.394   2.757
 4436TIP3    H113253   6.293   2.483   2.744
 4436TIP3    H213254   6.337   2.338   2.747
 4437TIP3   OH213255   4.290   3.326   5.583
 4437TIP3    H113256   4.379   3.300   5.558
 4437TIP3    H213257   4.294   3.339   5.678
 4438TIP3   OH213258   7.327   7.722   5.780
 4438TIP3    H113259   7.273   7.754   5.852
 4438TIP3    H213260   7.279   7.747   5.701
 4439TIP3   OH213261   3.165   1.796   2.021
 4439TIP3    H113262   3.122   1.753   2.094
 4439TIP3    H213263   3.158   1.733   1.949
 4440TIP3   OH213264   5.503   6.857   5.758
 4440TIP3    H113265   5.582   6.911   5.753
 4440TIP3    H213266   5.529   6.773   5.720
 4441TIP3   OH213267   2.161   2.708   4.042
 4441TIP3    H113268   2.084   2.663   4.006
 4441TIP3    H213269   2.220   2.717   3.967
 4442TIP3   OH213270   8.029   7.389   1.229
 4442TIP3    H113271   7.990   7.461   1.180
 4442TIP3    H213272   8.114   7.376   1.187
 4443TIP3   OH213273   6.698   4.651   2.608
 4443TIP3    H113274   6.655   4.697   2.536
 4443TIP3    H213275   6.635   4.655   2.680
 4444TIP3   OH213276   0.911   4.916   5.131
 4444TIP3    H113277   0.986   4.857   5.140
 4444TIP3    H213278   0.945   4.991   5.083
 4445TIP3   OH213279   3.064   6.361   4.108
 4445TIP3    H113280   3.158   6.356   4.124
 4445TIP3    H213281   3.026   6.295   4.166
 4446TIP3   OH213282   1.338   7.244   5.450
 4446TIP3    H113283   1.310   7.257   5.359
 4446TIP3    H213284   1.416   7.189   5.443
 4447TIP3   OH213285   6.008   3.655   1.803
 4447TIP3    H113286   5.929   3.689   1.845
 4447TIP3    H213287   6.017   3.707   1.724
 4448TIP3   OH213288   1.849   7.742   5.962
 4448TIP3    H113289   1.772   7.686   5.972
 4448TIP3    H213290   1.923   7.683   5.975
 4449TIP3   OH213291   1.030   0.463   6.266
 4449TIP3    H113292   1.036   0.388   6.325
 4449TIP3    H213293   0.988   0.532   6.317
 4450TIP3   OH213294   7.144   4.885   0.646
 4450TIP3    H113295   7.138   4.886   0.741
 4450TIP3    H213296   7.057   4.856   0.617
 4451TIP3   OH213297   3.452   1.568   3.813
 4451TIP3    H113298   3.371   1.542   3.858
 4451TIP3    H213299   3.517   1.574   3.883
 4452TIP3   OH213300   5.386   0.348   6.661
 4452TIP3    H113301   5.295   0.375   6.647
 4452TIP3    H213302   5.382   0.253   6.667
 4453TIP3   OH213303   4.764   1.127   2.267
 4453TIP3    H113304   4.685   1.141   2.215
 4453TIP3    H213305   4.822   1.077   2.209
 4454TIP3   OH213306   3.558   7.204   2.958
 4454TIP3    H113307   3.651   7.181   2.950
 4454TIP3    H213308   3.523   7.195   2.869
 4455TIP3   OH213309   3.210   1.814   5.304
 4455TIP3    H113310   3.242   1.794   5.216
 4455TIP3    H213311   3.290   1.833   5.354
 4456TIP3   OH213312   4.293   4.675   2.363
 4456TIP3    H113313   4.297   4.669   2.267
 4456TIP3    H213314   4.313   4.766   2.382
 4457TIP3   OH213315   8.121   2.678   3.832
 4457TIP3    H113316   8.147   2.719   3.750
 4457TIP3    H213317   8.202   2.677   3.884
 4458TIP3   OH213318   7.312   5.120   5.982
 4458TIP3    H113319   7.348   5.123   6.071
 4458TIP3    H213320   7.312   5.212   5.954
 4459TIP3   OH213321   6.355   5.160   4.816
 4459TIP3    H113322   6.329   5.251   4.825
 4459TIP3    H213323   6.273   5.113   4.802
 4460TIP3   OH213324   6.852   3.789   0.366
 4460TIP3    H113325   6.934   3.835   0.348
 4460TIP3    H213326   6.841   3.795   0.460
 4461TIP3   OH213327   2.773   7.473   3.202
 4461TIP3    H113328   2.793   7.405   3.268
 4461TIP3    H213329   2.713   7.532   3.247
 4462TIP3   OH213330   3.845   5.460   1.801
 4462TIP3    H113331   3.906   5.402   1.757
 4462TIP3    H213332   3.803   5.405   1.867
 4463TIP3   OH213333   0.438   1.450   4.499
 4463TIP3    H113334   0.456   1.489   4.584
 4463TIP3    H213335   0.342   1.455   4.490
 4464TIP3   OH213336   8.000   0.610   1.893
 4464TIP3    H113337   8.054   0.627   1.970
 4464TIP3    H213338   8.061   0.610   1.820
 4465TIP3   OH213339   0.575   5.362   3.594
 4465TIP3    H113340   0.522   5.329   3.666
 4465TIP3    H213341   0.637   5.422   3.634
 4466TIP3   OH213342   4.975   4.967   4.945
 4466TIP3    H113343   4.900   4.938   4.894
 4466TIP3    H213344   4.995   5.055   4.912
 4467TIP3   OH213345   0.879   0.026   5.679
 4467TIP3    H113346   0.922  -0.056   5.653
 4467TIP3    H213347   0.888   0.082   5.602
 4468TIP3   OH213348   1.142   6.389   0.644
 4468TIP3    H113349   1.234   6.380   0.617
 4468TIP3    H213350   1.097   6.417   0.564
 4469TIP3   OH213351   0.505   4.835   4.156
 4469TIP3    H113352   0.463   4.909   4.111
 4469TIP3    H213353   0.547   4.785   4.086
 4470TIP3   OH213354   1.941   5.573   6.386
 4470TIP3    H113355   1.850   5.552   6.409
 4470TIP3    H213356   1.934   5.613   6.299
 4471TIP3   OH213357   5.127   4.554   4.179
 4471TIP3    H113358   5.108   4.479   4.123
 4471TIP3    H213359   5.103   4.630   4.126
 4472TIP3   OH213360   7.714   3.928   6.117
 4472TIP3    H113361   7.728   3.922   6.212
 4472TIP3    H213362   7.694   4.021   6.102
 4473TIP3   OH213363   0.720   7.164   6.454
 4473TIP3    H113364   0.693   7.099   6.390
 4473TIP3    H213365   0.642   7.219   6.467
 4474TIP3   OH213366   3.104   5.452   1.116
 4474TIP3    H113367   3.192   5.415   1.115
 4474TIP3    H213368   3.117   5.543   1.144
 4475TIP3   OH213369   3.399   0.064   2.330
 4475TIP3    H113370   3.393   0.012   2.410
 4475TIP3    H213371   3.309   0.093   2.313
 4476TIP3   OH213372   3.360   6.924   3.538
 4476TIP3    H113373   3.420   6.887   3.474
 4476TIP3    H213374   3.311   6.991   3.491
 4477TIP3   OH213375   1.134   3.303   2.438
 4477TIP3    H113376   1.076   3.229   2.420
 4477TIP3    H213377   1.132   3.355   2.358
 4478TIP3   OH213378   5.685   7.656   1.183
 4478TIP3    H113379   5.639   7.573   1.193
 4478TIP3    H213380   5.628   7.721   1.224
 4479TIP3   OH213381   4.209   1.720   5.181
 4479TIP3    H113382   4.300   1.697   5.198
 4479TIP3    H213383   4.211   1.772   5.100
 4480TIP3   OH213384   3.012   1.062   3.416
 4480TIP3    H113385   2.942   1.011   3.455
 4480TIP3    H213386   3.003   1.149   3.454
 4481TIP3   OH213387   1.952   1.956   6.765
 4481TIP3    H113388   1.926   2.006   6.842
 4481TIP3    H213389   1.869   1.930   6.724
 4482TIP3   OH213390   7.598   3.529   0.876
 4482TIP3    H113391   7.657   3.539   0.801
 4482TIP3    H213392   7.548   3.450   0.856
 4483TIP3   OH213393   2.501   6.554   3.435
 4483TIP3    H113394   2.565   6.494   3.473
 4483TIP3    H213395   2.465   6.507   3.360
 4484TIP3   OH213396   6.917   2.944   3.374
 4484TIP3    H113397   6.856   2.968   3.304
 4484TIP3    H213398   7.001   2.980   3.346
 4485TIP3   OH213399   7.555   1.518   0.407
 4485TIP3    H113400   7.530   1.427   0.388
 4485TIP3    H213401   7.625   1.511   0.472
 4486TIP3   OH213402   1.962   6.333   6.061
 4486TIP3    H113403   1.969   6.329   5.966
 4486TIP3    H213404   1.888   6.392   6.077
 4487TIP3   OH213405   8.241   7.081   2.261
 4487TIP3    H113406   8.220   6.988   2.264
 4487TIP3    H213407   8.315   7.087   2.201
 4488TIP3   OH213408   6.593   6.601   3.775
 4488TIP3    H113409   6.573   6.684   3.732
 4488TIP3    H213410   6.510   6.571   3.810
 4489TIP3   OH213411   6.798   0.255   1.123
 4489TIP3    H113412   6.798   0.257   1.028
 4489TIP3    H213413   6.875   0.306   1.149
 4490TIP3   OH213414   7.697   7.137   2.857
 4490TIP3    H113415   7.788   7.109   2.861
 4490TIP3    H213416   7.654   7.071   2.803
 4491TIP3   OH213417   4.295   6.492   5.435
 4491TIP3    H113418   4.219   6.442   5.464
 4491TIP3    H213419   4.272   6.522   5.347
 4492TIP3   OH213420   3.168   3.392   4.856
 4492TIP3    H113421   3.253   3.361   4.886
 4492TIP3    H213422   3.117   3.313   4.839
 4493TIP3   OH213423   7.587   7.551   2.979
 4493TIP3    H113424   7.540   7.634   2.974
 4493TIP3    H213425   7.575   7.511   2.893
 4494TIP3   OH213426   1.668   4.487   0.901
 4494TIP3    H113427   1.581   4.472   0.938
 4494TIP3    H213428   1.709   4.550   0.960
 4495TIP3   OH213429   4.644   0.440   1.023
 4495TIP3    H113430   4.611   0.356   0.992
 4495TIP3    H213431   4.601   0.453   1.108
 4496TIP3   OH213432   1.221   3.611   3.711
 4496TIP3    H113433   1.189   3.521   3.715
 4496TIP3    H213434   1.205   3.638   3.620
 4497TIP3   OH213435   5.727   6.312   6.411
 4497TIP3    H113436   5.739   6.253   6.486
 4497TIP3    H213437   5.797   6.376   6.419
 4498TIP3   OH213438   2.545   0.388   0.877
 4498TIP3    H113439   2.597   0.398   0.797
 4498TIP3    H213440   2.525   0.478   0.903
 4499TIP3   OH213441   4.580   3.738   3.156
 4499TIP3    H113442   4.550   3.718   3.068
 4499TIP3    H213443   4.673   3.716   3.156
 4500TIP3   OH213444   1.528   2.164   6.525
 4500TIP3    H113445   1.456   2.216   6.490
 4500TIP3    H213446   1.606   2.198   6.481
 4501TIP3   OH213447   1.620   7.593   1.044
 4501TIP3    H113448   1.553   7.660   1.031
 4501TIP3    H213449   1.636   7.594   1.139
 4502TIP3   OH213450   0.183   5.944   3.101
 4502TIP3    H113451   0.258   5.944   3.042
 4502TIP3    H213452   0.114   5.989   3.052
 4503TIP3   OH213453   2.451   0.147   3.667
 4503TIP3    H113454   2.480   0.058   3.685
 4503TIP3    H213455   2.514   0.203   3.713
 4504TIP3   OH213456   0.157   3.806   5.286
 4504TIP3    H113457   0.160   3.769   5.198
 4504TIP3    H213458   0.249   3.813   5.312
 4505TIP3   OH213459   4.977   3.244   6.629
 4505TIP3    H113460   5.039   3.178   6.659
 4505TIP3    H213461   4.912   3.248   6.699
 4506TIP3   OH213462   3.611   4.894   4.275
 4506TIP3    H113463   3.683   4.834   4.254
 4506TIP3    H213464   3.652   4.981   4.274
 4507TIP3   OH213465   5.053   0.539   4.922
 4507TIP3    H113466   4.973   0.545   4.869
 4507TIP3    H213467   5.120   0.584   4.870
 4508TIP3   OH213468   7.217   6.629   4.267
 4508TIP3    H113469   7.272   6.631   4.189
 4508TIP3    H213470   7.128   6.620   4.235
 4509TIP3   OH213471   0.440   2.041   5.057
 4509TIP3    H113472   0.533   2.059   5.069
 4509TIP3    H213473   0.437   1.982   4.982
 4510TIP3   OH213474   6.135   7.763   6.198
 4510TIP3    H113475   6.046   7.742   6.170
 4510TIP3    H213476   6.186   7.767   6.117
 4511TIP3   OH213477   5.789   3.183   0.189
 4511TIP3    H113478   5.843   3.258   0.165
 4511TIP3    H213479   5.703   3.221   0.209
 4512TIP3   OH213480   6.339   2.609   3.399
 4512TIP3    H113481   6.253   2.576   3.426
 4512TIP3    H213482   6.397   2.533   3.408
 4513TIP3   OH213483   1.699   0.592   0.867
 4513TIP3    H113484   1.719   0.651   0.940
 4513TIP3    H213485   1.717   0.644   0.789
 4514TIP3   OH213486   4.750   2.379   0.916
 4514TIP3    H113487   4.831   2.385   0.966
 4514TIP3    H213488   4.680   2.387   0.981
 4515TIP3   OH213489   3.998   2.484   3.029
 4515TIP3    H113490   3.928   2.431   3.067
 4515TIP3    H213491   4.051   2.510   3.104
 4516TIP3   OH213492   7.633   1.504   4.510
 4516TIP3    H113493   7.729   1.498   4.511
 4516TIP3    H213494   7.611   1.553   4.589
 4517TIP3   OH213495   6.762   3.087   4.428
 4517TIP3    H113496   6.786   3.178   4.447
 4517TIP3    H213497   6.751   3.048   4.515
 4518TIP3   OH213498   3.332   5.618   0.213
 4518TIP3    H113499   3.315   5.713   0.217
 4518TIP3    H213500   3.397   5.608   0.144
 4519TIP3   OH213501   3.959   3.754   5.962
 4519TIP3    H113502   3.924   3.779   5.876
 4519TIP3    H213503   3.963   3.836   6.011
 4520TIP3   OH213504   3.963   3.893   0.387
 4520TIP3    H113505   4.042   3.903   0.334
 4520TIP3    H213506   3.943   3.982   0.417
 4521TIP3   OH213507   7.483   4.341   1.008
 4521TIP3    H113508   7.571   4.372   0.986
 4521TIP3    H213509   7.425   4.404   0.966
 4522TIP3   OH213510   1.474   2.514   0.066
 4522TIP3    H113511   1.483   2.578   0.137
 4522TIP3    H213512   1.442   2.566  -0.008
 4523TIP3   OH213513   6.939   0.570   3.078
 4523TIP3    H113514   6.903   0.481   3.074
 4523TIP3    H213515   7.034   0.558   3.074
 4524TIP3   OH213516   4.119   3.079   3.652
 4524TIP3    H113517   4.136   3.131   3.731
 4524TIP3    H213518   4.191   3.101   3.593
 4525TIP3   OH213519   6.739   1.276   2.165
 4525TIP3    H113520   6.757   1.182   2.167
 4525TIP3    H213521   6.718   1.298   2.256
 4526TIP3   OH213522   6.578   0.551   1.045
 4526TIP3    H113523   6.574   0.591   1.132
 4526TIP3    H213524   6.515   0.478   1.050
 4527TIP3   OH213525   8.199   3.042   2.169
 4527TIP3    H113526   8.160   2.955   2.156
 4527TIP3    H213527   8.293   3.027   2.167
 4528TIP3   OH213528   5.535   2.187   4.780
 4528TIP3    H113529   5.505   2.164   4.868
 4528TIP3    H213530   5.581   2.270   4.791
 4529TIP3   OH213531   6.699   2.359   6.266
 4529TIP3    H113532   6.789   2.380   6.243
 4529TIP3    H213533   6.706   2.296   6.338
 4530TIP3   OH213534   3.787   4.748   2.922
 4530TIP3    H113535   3.752   4.813   2.983
 4530TIP3    H213536   3.830   4.799   2.854
 4531TIP3   OH213537   1.047   5.631   5.173
 4531TIP3    H113538   1.002   5.559   5.130
 4531TIP3    H213539   1.119   5.588   5.220
 4532TIP3   OH213540   3.960   0.376   1.074
 4532TIP3    H113541   3.922   0.366   0.987
 4532TIP3    H213542   3.904   0.440   1.118
 4533TIP3   OH213543   7.469   7.565   5.334
 4533TIP3    H113544   7.414   7.549   5.410
 4533TIP3    H213545   7.555   7.586   5.370
 4534TIP3   OH213546   0.635   5.577   3.400
 4534TIP3    H113547   0.641   5.501   3.458
 4534TIP3    H213548   0.675   5.548   3.318
 4535TIP3   OH213549   6.945   0.840   0.045
 4535TIP3    H113550   7.030   0.805   0.072
 4535TIP3    H213551   6.900   0.859   0.128
 4536TIP3   OH213552   4.149   0.949   6.172
 4536TIP3    H113553   4.189   0.985   6.251
 4536TIP3    H213554   4.152   1.020   6.109
 4537TIP3   OH213555   2.516   5.303   1.164
 4537TIP3    H113556   2.442   5.364   1.163
 4537TIP3    H213557   2.477   5.219   1.138
 4538TIP3   OH213558   8.078   5.241   5.172
 4538TIP3    H113559   8.138   5.246   5.246
 4538TIP3    H213560   8.022   5.165   5.192
 4539TIP3   OH213561   0.111   7.244   0.117
 4539TIP3    H113562   0.121   7.300   0.040
 4539TIP3    H213563   0.018   7.222   0.120
 4540TIP3   OH213564   0.134   0.830   1.393
 4540TIP3    H113565   0.065   0.882   1.434
 4540TIP3    H213566   0.208   0.836   1.454
 4541TIP3   OH213567   7.974   7.744   3.028
 4541TIP3    H113568   8.024   7.825   3.017
 4541TIP3    H213569   7.976   7.727   3.122
 4542TIP3   OH213570   6.663   0.048   2.353
 4542TIP3    H113571   6.609   0.012   2.423
 4542TIP3    H213572   6.602   0.094   2.296
 4543TIP3   OH213573   6.763   6.058   0.018
 4543TIP3    H113574   6.838   6.017   0.061
 4543TIP3    H213575   6.697   5.990   0.014
 4544TIP3   OH213576   7.023   6.385   0.208
 4544TIP3    H113577   7.110   6.407   0.176
 4544TIP3    H213578   6.963   6.424   0.144
 4545TIP3   OH213579   2.544   1.183   6.700
 4545TIP3    H113580   2.578   1.162   6.787
 4545TIP3    H213581   2.480   1.252   6.715
 4546TIP3   OH213582   4.979   5.626   0.286
 4546TIP3    H113583   4.890   5.642   0.254
 4546TIP3    H213584   5.015   5.561   0.225
 4547TIP3   OH213585   4.889   7.531   2.801
 4547TIP3    H113586   4.820   7.490   2.749
 4547TIP3    H213587   4.903   7.616   2.758
 4548TIP3   OH213588   7.997   6.667   1.022
 4548TIP3    H113589   7.989   6.645   0.929
 4548TIP3    H213590   8.082   6.631   1.048
 4549TIP3   OH213591   5.658   6.625   0.379
 4549TIP3    H113592   5.660   6.609   0.285
 4549TIP3    H213593   5.740   6.673   0.397
 4550TIP3   OH213594   6.602   6.584   1.780
 4550TIP3    H113595   6.626   6.672   1.751
 4550TIP3    H213596   6.643   6.526   1.717
 4551TIP3   OH213597   1.066   3.552   2.962
 4551TIP3    H113598   1.111   3.555   3.046
 4551TIP3    H213599   1.091   3.633   2.918
 4552TIP3   OH213600   4.894   1.582   1.155
 4552TIP3    H113601   4.840   1.568   1.233
 4552TIP3    H213602   4.889   1.500   1.106
 4553TIP3   OH213603   6.681   2.576   5.106
 4553TIP3    H113604   6.601   2.627   5.115
 4553TIP3    H213605   6.744   2.619   5.163
 4554TIP3   OH213606   0.755   0.264   2.208
 4554TIP3    H113607   0.718   0.284   2.122
 4554TIP3    H213608   0.684   0.282   2.269
 4555TIP3   OH213609   2.556   0.270   0.447
 4555TIP3    H113610   2.604   0.247   0.367
 4555TIP3    H213611   2.570   0.364   0.457
 4556TIP3   OH213612   7.651   7.312   4.495
 4556TIP3    H113613   7.610   7.393   4.464
 4556TIP3    H213614   7.578   7.251   4.505
 4557TIP3   OH213615   4.689   1.867   4.221
 4557TIP3    H113616   4.771   1.850   4.175
 4557TIP3    H213617   4.713   1.927   4.292
 4558TIP3   OH213618   7.281   2.275   0.052
 4558TIP3    H113619   7.333   2.296  -0.025
 4558TIP3    H213620   7.240   2.359   0.076
 4559TIP3   OH213621   5.307   0.017   5.896
 4559TIP3    H113622   5.364   0.090   5.919
 4559TIP3    H213623   5.328  -0.051   5.960
 4560TIP3   OH213624   7.907   7.035   3.543
 4560TIP3    H113625   7.855   7.040   3.463
 4560TIP3    H213626   7.868   7.099   3.601
 4561TIP3   OH213627   0.308   4.635   3.620
 4561TIP3    H113628   0.286   4.721   3.583
 4561TIP3    H213629   0.324   4.579   3.543
 4562TIP3   OH213630   3.406   6.016   4.196
 4562TIP3    H113631   3.368   6.007   4.108
 4562TIP3    H213632   3.499   6.031   4.180
 4563TIP3   OH213633   4.651   1.178   4.573
 4563TIP3    H113634   4.694   1.243   4.518
 4563TIP3    H213635   4.558   1.199   4.568
 4564TIP3   OH213636   1.847   6.836   4.196
 4564TIP3    H113637   1.837   6.777   4.121
 4564TIP3    H213638   1.859   6.923   4.156
 4565TIP3   OH213639   6.787   0.456   1.890
 4565TIP3    H113640   6.845   0.384   1.914
 4565TIP3    H213641   6.708   0.441   1.942
 4566TIP3   OH213642   5.151   3.832   0.981
 4566TIP3    H113643   5.138   3.781   0.901
 4566TIP3    H213644   5.062   3.856   1.009
 4567TIP3   OH213645   1.861   3.796   4.947
 4567TIP3    H113646   1.909   3.864   4.900
 4567TIP3    H213647   1.925   3.726   4.961
 4568TIP3   OH213648   8.090   4.265   5.267
 4568TIP3    H113649   8.109   4.304   5.182
 4568TIP3    H213650   8.176   4.255   5.308
 4569TIP3   OH213651   6.301   6.568   3.528
 4569TIP3    H113652   6.210   6.587   3.547
 4569TIP3    H213653   6.349   6.643   3.563
 4570TIP3   OH213654   3.738   7.522   3.322
 4570TIP3    H113655   3.793   7.444   3.314
 4570TIP3    H213656   3.703   7.535   3.234
 4571TIP3   OH213657   0.586   2.266   5.854
 4571TIP3    H113658   0.624   2.197   5.908
 4571TIP3    H213659   0.662   2.304   5.808
 4572TIP3   OH213660   2.997   7.407   5.339
 4572TIP3    H113661   3.025   7.487   5.295
 4572TIP3    H213662   2.905   7.423   5.362
 4573TIP3   OH213663   7.875   7.527   6.197
 4573TIP3    H113664   7.816   7.581   6.144
 4573TIP3    H213665   7.840   7.533   6.286
 4574TIP3   OH213666   0.508   7.392   2.076
 4574TIP3    H113667   0.465   7.436   2.003
 4574TIP3    H213668   0.556   7.462   2.121
 4575TIP3   OH213669   4.853   0.083   0.623
 4575TIP3    H113670   4.867   0.127   0.539
 4575TIP3    H213671   4.821   0.152   0.680
 4576TIP3   OH213672   0.981   4.487   4.303
 4576TIP3    H113673   1.058   4.432   4.316
 4576TIP3    H213674   1.005   4.572   4.338
 4577TIP3   OH213675   1.712   2.686   5.368
 4577TIP3    H113676   1.718   2.724   5.455
 4577TIP3    H213677   1.755   2.601   5.376
 4578TIP3   OH213678   4.651   3.730   6.302
 4578TIP3    H113679   4.633   3.636   6.293
 4578TIP3    H213680   4.746   3.738   6.297
 4579TIP3   OH213681   6.000   2.892   3.333
 4579TIP3    H113682   6.089   2.928   3.338
 4579TIP3    H213683   5.961   2.914   3.417
 4580TIP3   OH213684   4.855   2.627   3.034
 4580TIP3    H113685   4.914   2.651   3.106
 4580TIP3    H213686   4.858   2.532   3.030
 4581TIP3   OH213687   4.926   2.349   6.132
 4581TIP3    H113688   4.902   2.301   6.211
 4581TIP3    H213689   4.903   2.289   6.060
 4582TIP3   OH213690   3.629   7.696   5.167
 4582TIP3    H113691   3.634   7.788   5.191
 4582TIP3    H213692   3.560   7.692   5.101
 4583TIP3   OH213693   5.459   5.625   0.780
 4583TIP3    H113694   5.455   5.715   0.812
 4583TIP3    H213695   5.368   5.595   0.777
 4584TIP3   OH213696   3.595   6.454   3.261
 4584TIP3    H113697   3.554   6.495   3.337
 4584TIP3    H213698   3.627   6.527   3.208
 4585TIP3   OH213699   2.332   5.378   5.563
 4585TIP3    H113700   2.355   5.297   5.519
 4585TIP3    H213701   2.405   5.438   5.545
 4586TIP3   OH213702   6.777   0.360   5.827
 4586TIP3    H113703   6.719   0.305   5.775
 4586TIP3    H213704   6.745   0.449   5.813
 4587TIP3   OH213705   4.825   4.652   3.001
 4587TIP3    H113706   4.783   4.722   2.950
 4587TIP3    H213707   4.869   4.598   2.936
 4588TIP3   OH213708   2.583   2.413   1.715
 4588TIP3    H113709   2.544   2.414   1.802
 4588TIP3    H213710   2.626   2.499   1.707
 4589TIP3   OH213711   1.656   1.013   0.949
 4589TIP3    H113712   1.684   0.999   0.858
 4589TIP3    H213713   1.687   1.101   0.970
 4590TIP3   OH213714   0.021   1.622   0.276
 4590TIP3    H113715   0.075   1.641   0.352
 4590TIP3    H213716  -0.062   1.590   0.312
 4591TIP3   OH213717   8.213   0.305   4.134
 4591TIP3    H113718   8.127   0.318   4.174
 4591TIP3    H213719   8.205   0.223   4.085
 4592TIP3   OH213720   2.909   1.676   2.549
 4592TIP3    H113721   2.911   1.733   2.626
 4592TIP3    H213722   2.995   1.686   2.510
 4593TIP3   OH213723   6.350   0.521   4.711
 4593TIP3    H113724   6.379   0.504   4.801
 4593TIP3    H213725   6.348   0.616   4.703
 4594TIP3   OH213726   3.470   5.109   0.212
 4594TIP3    H113727   3.382   5.076   0.227
 4594TIP3    H213728   3.518   5.034   0.177
 4595TIP3   OH213729   4.412   5.686   5.199
 4595TIP3    H113730   4.357   5.627   5.148
 4595TIP3    H213731   4.404   5.770   5.154
 4596TIP3   OH213732   0.386   4.334   5.395
 4596TIP3    H113733   0.375   4.271   5.324
 4596TIP3    H213734   0.419   4.413   5.352
 4597TIP3   OH213735   5.304   4.235   6.062
 4597TIP3    H113736   5.384   4.282   6.040
 4597TIP3    H213737   5.250   4.240   5.983
 4598TIP3   OH213738   2.794   2.896   2.865
 4598TIP3    H113739   2.703   2.874   2.884
 4598TIP3    H213740   2.792   2.987   2.837
 4599TIP3   OH213741   7.351   7.692   1.742
 4599TIP3    H113742   7.409   7.767   1.730
 4599TIP3    H213743   7.400   7.632   1.797
 4600TIP3   OH213744   8.160   4.688   3.664
 4600TIP3    H113745   8.235   4.662   3.611
 4600TIP3    H213746   8.156   4.624   3.735
 4601TIP3   OH213747   2.782   5.231   5.748
 4601TIP3    H113748   2.730   5.228   5.668
 4601TIP3    H213749   2.837   5.154   5.744
 4602TIP3   OH213750   2.805   7.796   2.970
 4602TIP3    H113751   2.838   7.886   2.976
 4602TIP3    H213752   2.727   7.796   3.025
 4603TIP3   OH213753   1.916   5.868   2.692
 4603TIP3    H113754   1.844   5.883   2.753
 4603TIP3    H213755   1.874   5.831   2.614
 4604TIP3   OH213756   2.192   4.469   1.278
 4604TIP3    H113757   2.100   4.468   1.250
 4604TIP3    H213758   2.219   4.377   1.276
 4605TIP3   OH213759   0.012   6.694   3.134
 4605TIP3    H113760  -0.048   6.707   3.060
 4605TIP3    H213761   0.036   6.601   3.129
 4606TIP3   OH213762   4.129   1.208   1.560
 4606TIP3    H113763   4.072   1.131   1.560
 4606TIP3    H213764   4.124   1.241   1.470
 4607TIP3   OH213765   4.382   6.033   3.456
 4607TIP3    H113766   4.341   5.955   3.494
 4607TIP3    H213767   4.475   6.009   3.447
 4608TIP3   OH213768   4.641   3.755   5.220
 4608TIP3    H113769   4.569   3.809   5.185
 4608TIP3    H213770   4.606   3.717   5.300
 4609TIP3   OH213771   2.957   3.609   0.350
 4609TIP3    H113772   2.906   3.660   0.413
 4609TIP3    H213773   3.045   3.647   0.354
 4610TIP3   OH213774   3.929   3.450   1.770
 4610TIP3    H113775   3.848   3.418   1.730
 4610TIP3    H213776   3.919   3.546   1.769
 4611TIP3   OH213777   6.440   7.225   5.742
 4611TIP3    H113778   6.350   7.256   5.731
 4611TIP3    H213779   6.475   7.221   5.653
 4612TIP3   OH213780   3.769   5.081   6.614
 4612TIP3    H113781   3.680   5.117   6.606
 4612TIP3    H213782   3.796   5.103   6.703
 4613TIP3   OH213783   5.588   1.751   0.605
 4613TIP3    H113784   5.513   1.707   0.567
 4613TIP3    H213785   5.610   1.820   0.543
 4614TIP3   OH213786   0.154   4.039   0.074
 4614TIP3    H113787   0.155   4.046  -0.021
 4614TIP3    H213788   0.084   4.099   0.102
 4615TIP3   OH213789   2.664   5.487   3.911
 4615TIP3    H113790   2.638   5.398   3.887
 4615TIP3    H213791   2.756   5.492   3.889
 4616TIP3   OH213792   4.322   6.697   5.031
 4616TIP3    H113793   4.245   6.734   4.988
 4616TIP3    H213794   4.386   6.688   4.961
 4617TIP3   OH213795   0.813   5.115   5.731
 4617TIP3    H113796   0.845   5.159   5.653
 4617TIP3    H213797   0.794   5.186   5.793
 4618TIP3   OH213798   4.254   4.532   2.994
 4618TIP3    H113799   4.182   4.540   2.932
 4618TIP3    H213800   4.321   4.484   2.947
 4619TIP3   OH213801   1.482   4.762   4.142
 4619TIP3    H113802   1.442   4.845   4.119
 4619TIP3    H213803   1.566   4.785   4.182
 4620TIP3   OH213804   0.215   3.138   3.484
 4620TIP3    H113805   0.122   3.132   3.504
 4620TIP3    H213806   0.257   3.151   3.569
 4621TIP3   OH213807   6.326   2.076   6.552
 4621TIP3    H113808   6.340   2.168   6.529
 4621TIP3    H213809   6.279   2.079   6.636
 4622TIP3   OH213810   5.029   5.742   2.093
 4622TIP3    H113811   5.121   5.726   2.117
 4622TIP3    H213812   4.990   5.655   2.093
 4623TIP3   OH213813   5.402   5.200   0.593
 4623TIP3    H113814   5.360   5.268   0.541
 4623TIP3    H213815   5.487   5.237   0.616
 4624TIP3   OH213816   7.467   4.068   6.330
 4624TIP3    H113817   7.487   4.162   6.328
 4624TIP3    H213818   7.552   4.027   6.348
 4625TIP3   OH213819   2.487   2.781   4.196
 4625TIP3    H113820   2.558   2.771   4.259
 4625TIP3    H213821   2.516   2.731   4.119
 4626TIP3   OH213822   6.290   1.197   4.476
 4626TIP3    H113823   6.291   1.269   4.413
 4626TIP3    H213824   6.219   1.140   4.446
 4627TIP3   OH213825   1.609   1.720   1.094
 4627TIP3    H113826   1.579   1.781   1.026
 4627TIP3    H213827   1.701   1.705   1.073
 4628TIP3   OH213828   3.752   4.609   4.661
 4628TIP3    H113829   3.769   4.704   4.660
 4628TIP3    H213830   3.671   4.600   4.712
 4629TIP3   OH213831   7.239   7.329   2.414
 4629TIP3    H113832   7.284   7.333   2.330
 4629TIP3    H213833   7.163   7.385   2.403
 4630TIP3   OH213834   1.803   2.079   2.313
 4630TIP3    H113835   1.790   2.031   2.395
 4630TIP3    H213836   1.828   2.013   2.249
 4631TIP3   OH213837   5.497   3.139   2.479
 4631TIP3    H113838   5.431   3.081   2.442
 4631TIP3    H213839   5.469   3.227   2.455
 4632TIP3   OH213840   0.252   1.526   5.994
 4632TIP3    H113841   0.234   1.452   5.936
 4632TIP3    H213842   0.346   1.522   6.010
 4633TIP3   OH213843   1.980   4.688   1.410
 4633TIP3    H113844   1.949   4.607   1.370
 4633TIP3    H213845   2.017   4.738   1.337
 4634TIP3   OH213846   5.734   7.148   5.338
 4634TIP3    H113847   5.754   7.054   5.330
 4634TIP3    H213848   5.648   7.150   5.380
 4635TIP3   OH213849   0.335   0.620   5.630
 4635TIP3    H113850   0.255   0.603   5.679
 4635TIP3    H213851   0.306   0.664   5.550
 4636TIP3   OH213852   0.215   4.231   1.978
 4636TIP3    H113853   0.239   4.307   2.032
 4636TIP3    H213854   0.217   4.157   2.039
 4637TIP3   OH213855   0.052   2.827   1.114
 4637TIP3    H113856   0.066   2.736   1.085
 4637TIP3    H213857  -0.039   2.829   1.143
 4638TIP3   OH213858   1.618   0.085   2.834
 4638TIP3    H113859   1.552   0.125   2.892
 4638TIP3    H213860   1.698   0.134   2.852
 4639TIP3   OH213861   6.921   4.753   3.959
 4639TIP3    H113862   6.837   4.797   3.971
 4639TIP3    H213863   6.935   4.706   4.041
 4640TIP3   OH213864   1.710   4.230   1.317
 4640TIP3    H113865   1.761   4.153   1.293
 4640TIP3    H213866   1.766   4.304   1.292
 4641TIP3   OH213867   1.380   1.356   5.290
 4641TIP3    H113868   1.460   1.397   5.324
 4641TIP3    H213869   1.387   1.265   5.317
 4642TIP3   OH213870   5.088   0.211   4.736
 4642TIP3    H113871   5.170   0.182   4.697
 4642TIP3    H213872   5.113   0.248   4.821
 4643TIP3   OH213873   0.861   6.741   6.535
 4643TIP3    H113874   0.881   6.832   6.513
 4643TIP3    H213875   0.939   6.710   6.581
 4644TIP3   OH213876   0.837   4.686   4.716
 4644TIP3    H113877   0.755   4.733   4.723
 4644TIP3    H213878   0.901   4.740   4.762
 4645TIP3   OH213879   7.849   2.344   2.648
 4645TIP3    H113880   7.901   2.329   2.727
 4645TIP3    H213881   7.809   2.430   2.661
 4646TIP3   OH213882   7.078   6.266   0.713
 4646TIP3    H113883   7.066   6.327   0.640
 4646TIP3    H213884   7.152   6.211   0.686
 4647TIP3   OH213885   5.847   1.872   6.064
 4647TIP3    H113886   5.779   1.825   6.112
 4647TIP3    H213887   5.926   1.859   6.115
 4648TIP3   OH213888   0.248   7.116   5.630
 4648TIP3    H113889   0.183   7.090   5.695
 4648TIP3    H213890   0.265   7.037   5.580
 4649TIP3   OH213891   1.786   0.066   4.372
 4649TIP3    H113892   1.801   0.056   4.466
 4649TIP3    H213893   1.754   0.155   4.362
 4650TIP3   OH213894   3.021   4.719   1.394
 4650TIP3    H113895   2.971   4.749   1.318
 4650TIP3    H213896   3.113   4.725   1.365
 4651TIP3   OH213897   5.402   7.242   6.423
 4651TIP3    H113898   5.435   7.264   6.510
 4651TIP3    H213899   5.308   7.257   6.429
 4652TIP3   OH213900   5.393   0.413   2.381
 4652TIP3    H113901   5.383   0.385   2.291
 4652TIP3    H213902   5.484   0.441   2.388
 4653TIP3   OH213903   0.713   3.665   5.913
 4653TIP3    H113904   0.727   3.587   5.967
 4653TIP3    H213905   0.800   3.706   5.908
 4654TIP3   OH213906   4.291   2.031   0.960
 4654TIP3    H113907   4.221   1.967   0.951
 4654TIP3    H213908   4.372   1.980   0.954
 4655TIP3   OH213909   4.479   7.535   2.338
 4655TIP3    H113910   4.571   7.512   2.337
 4655TIP3    H213911   4.439   7.477   2.402
 4656TIP3   OH213912   0.410   2.645   4.832
 4656TIP3    H113913   0.401   2.630   4.926
 4656TIP3    H213914   0.491   2.599   4.808
 4657TIP3   OH213915   7.508   6.801   4.264
 4657TIP3    H113916   7.462   6.878   4.300
 4657TIP3    H213917   7.462   6.782   4.182
 4658TIP3   OH213918   2.795   7.189   4.556
 4658TIP3    H113919   2.731   7.118   4.552
 4658TIP3    H213920   2.823   7.191   4.648
 4659TIP3   OH213921   2.357   2.496   5.714
 4659TIP3    H113922   2.391   2.419   5.760
 4659TIP3    H213923   2.328   2.555   5.784
 4660TIP3   OH213924   4.743   7.043   3.325
 4660TIP3    H113925   4.794   6.983   3.379
 4660TIP3    H213926   4.720   7.115   3.384
 4661TIP3   OH213927   4.108   2.799   3.795
 4661TIP3    H113928   4.099   2.836   3.707
 4661TIP3    H213929   4.073   2.710   3.787
 4662TIP3   OH213930   2.519   4.007   5.302
 4662TIP3    H113931   2.604   4.038   5.331
 4662TIP3    H213932   2.537   3.924   5.259
 4663TIP3   OH213933   1.281   4.050   5.346
 4663TIP3    H113934   1.192   4.044   5.314
 4663TIP3    H213935   1.277   4.014   5.435
 4664TIP3   OH213936   6.186   1.675   3.538
 4664TIP3    H113937   6.117   1.698   3.476
 4664TIP3    H213938   6.255   1.637   3.483
 4665TIP3   OH213939   6.048   6.449   6.724
 4665TIP3    H113940   6.142   6.466   6.733
 4665TIP3    H213941   6.044   6.361   6.687
 4666TIP3   OH213942   7.142   1.041   2.243
 4666TIP3    H113943   7.052   1.053   2.213
 4666TIP3    H213944   7.175   0.967   2.191
 4667TIP3   OH213945   2.914   6.059   6.373
 4667TIP3    H113946   2.873   6.138   6.408
 4667TIP3    H213947   2.909   5.996   6.444
 4668TIP3   OH213948   3.288   3.831   4.281
 4668TIP3    H113949   3.235   3.902   4.318
 4668TIP3    H213950   3.364   3.825   4.339
 4669TIP3   OH213951   3.798   7.203   3.736
 4669TIP3    H113952   3.735   7.251   3.791
 4669TIP3    H213953   3.744   7.157   3.672
 4670TIP3   OH213954   1.906   1.936   2.112
 4670TIP3    H113955   1.888   1.880   2.036
 4670TIP3    H213956   1.968   2.002   2.078
 4671TIP3   OH213957   2.751   3.229   3.365
 4671TIP3    H113958   2.702   3.261   3.441
 4671TIP3    H213959   2.813   3.166   3.403
 4672TIP3   OH213960   0.956   5.885   1.734
 4672TIP3    H113961   0.942   5.838   1.652
 4672TIP3    H213962   0.869   5.919   1.757
 4673TIP3   OH213963   3.435   3.616   3.820
 4673TIP3    H113964   3.503   3.672   3.858
 4673TIP3    H213965   3.461   3.527   3.846
 4674TIP3   OH213966   1.827   0.909   5.004
 4674TIP3    H113967   1.881   0.988   5.010
 4674TIP3    H213968   1.887   0.837   5.024
 4675TIP3   OH213969   4.053   4.096   5.829
 4675TIP3    H113970   4.026   4.051   5.749
 4675TIP3    H213971   4.044   4.189   5.808
 4676TIP3   OH213972   0.741   6.234   0.418
 4676TIP3    H113973   0.699   6.314   0.387
 4676TIP3    H213974   0.834   6.256   0.422
 4677TIP3   OH213975   8.070   4.649   1.445
 4677TIP3    H113976   8.086   4.683   1.357
 4677TIP3    H213977   8.090   4.555   1.438
 4678TIP3   OH213978   1.791   0.104   1.327
 4678TIP3    H113979   1.825   0.062   1.406
 4678TIP3    H213980   1.770   0.031   1.269
 4679TIP3   OH213981   3.925   3.388   5.729
 4679TIP3    H113982   3.858   3.446   5.692
 4679TIP3    H213983   4.005   3.441   5.727
 4680TIP3   OH213984   3.781   5.627   4.951
 4680TIP3    H113985   3.740   5.599   5.033
 4680TIP3    H213986   3.710   5.663   4.899
 4681TIP3   OH213987   2.454   4.551   5.418
 4681TIP3    H113988   2.439   4.583   5.507
 4681TIP3    H213989   2.376   4.501   5.397
 4682TIP3   OH213990   6.011   2.871   6.429
 4682TIP3    H113991   6.031   2.939   6.364
 4682TIP3    H213992   6.077   2.803   6.415
 4683TIP3   OH213993   7.427   0.916   2.365
 4683TIP3    H113994   7.501   0.911   2.304
 4683TIP3    H213995   7.350   0.903   2.310
 4684TIP3   OH213996   5.506   1.032   2.047
 4684TIP3    H113997   5.570   1.055   1.980
 4684TIP3    H213998   5.431   1.090   2.030
 4685TIP3   OH213999   2.598   3.079   4.201
 4685TIP3    H114000   2.635   3.156   4.245
 4685TIP3    H214001   2.539   3.041   4.266
 4686TIP3   OH214002   1.533   0.007   3.119
 4686TIP3    H114003   1.497  -0.059   3.060
 4686TIP3    H214004   1.505  -0.021   3.206
 4687TIP3   OH214005   0.093   5.687   3.028
 4687TIP3    H114006   0.132   5.773   3.011
 4687TIP3    H214007   0.014   5.707   3.079
 4688TIP3   OH214008   1.953   2.046   4.513
 4688TIP3    H114009   1.940   2.052   4.418
 4688TIP3    H214010   1.994   2.130   4.536
 4689TIP3   OH214011   0.474   4.665   5.722
 4689TIP3    H114012   0.523   4.743   5.746
 4689TIP3    H214013   0.396   4.668   5.778
 4690TIP3   OH214014   3.677   2.693   0.709
 4690TIP3    H114015   3.761   2.705   0.754
 4690TIP3    H214016   3.690   2.729   0.622
 4691TIP3   OH214017   1.579   3.145   1.118
 4691TIP3    H114018   1.542   3.222   1.075
 4691TIP3    H214019   1.673   3.166   1.126
 4692TIP3   OH214020   4.575   6.233   4.049
 4692TIP3    H114021   4.578   6.266   3.959
 4692TIP3    H214022   4.666   6.231   4.077
 4693TIP3   OH214023   7.588   6.822   6.695
 4693TIP3    H114024   7.665   6.868   6.727
 4693TIP3    H214025   7.561   6.767   6.769
 4694TIP3   OH214026   4.618   1.139   5.190
 4694TIP3    H114027   4.562   1.210   5.159
 4694TIP3    H214028   4.590   1.124   5.280
 4695TIP3   OH214029   7.166   1.276   0.216
 4695TIP3    H114030   7.132   1.203   0.165
 4695TIP3    H214031   7.246   1.302   0.171
 4696TIP3   OH214032   3.636   5.051   5.121
 4696TIP3    H114033   3.647   4.956   5.114
 4696TIP3    H214034   3.722   5.086   5.098
 4697TIP3   OH214035   5.300   1.295   5.433
 4697TIP3    H114036   5.211   1.322   5.410
 4697TIP3    H214037   5.326   1.355   5.502
 4698TIP3   OH214038   1.103   6.113   1.526
 4698TIP3    H114039   1.036   6.103   1.594
 4698TIP3    H214040   1.104   6.207   1.507
 4699TIP3   OH214041   4.697   2.048   2.338
 4699TIP3    H114042   4.749   2.099   2.276
 4699TIP3    H214043   4.614   2.095   2.346
 4700TIP3   OH214044   6.353   3.607   5.446
 4700TIP3    H114045   6.317   3.537   5.391
 4700TIP3    H214046   6.424   3.645   5.394
 4701TIP3   OH214047   6.350   2.553   2.307
 4701TIP3    H114048   6.339   2.603   2.388
 4701TIP3    H214049   6.401   2.610   2.250
 4702TIP3   OH214050   8.141   7.465   3.786
 4702TIP3    H114051   8.152   7.405   3.711
 4702TIP3    H214052   8.230   7.476   3.820
 4703TIP3   OH214053   3.164   6.637   2.468
 4703TIP3    H114054   3.194   6.585   2.394
 4703TIP3    H214055   3.069   6.630   2.465
 4704TIP3   OH214056   8.039   5.515   5.266
 4704TIP3    H114057   8.030   5.546   5.176
 4704TIP3    H214058   8.034   5.420   5.260
 4705TIP3   OH214059   3.844   3.261   4.020
 4705TIP3    H114060   3.830   3.174   3.982
 4705TIP3    H214061   3.939   3.270   4.025
 4706TIP3   OH214062   1.613   4.045   5.577
 4706TIP3    H114063   1.630   4.132   5.614
 4706TIP3    H214064   1.522   4.026   5.600
 4707TIP3   OH214065   7.138   1.374   0.987
 4707TIP3    H114066   7.070   1.350   1.050
 4707TIP3    H214067   7.106   1.455   0.947
 4708TIP3   OH214068   0.579   6.965   0.872
 4708TIP3    H114069   0.523   7.038   0.898
 4708TIP3    H214070   0.563   6.954   0.778
 4709TIP3   OH214071   7.704   4.744   6.054
 4709TIP3    H114072   7.671   4.765   6.142
 4709TIP3    H214073   7.797   4.765   6.059
 4710TIP3   OH214074   2.083   2.756   4.290
 4710TIP3    H114075   2.102   2.723   4.202
 4710TIP3    H214076   2.169   2.770   4.330
 4711TIP3   OH214077   3.115   2.584   3.684
 4711TIP3    H114078   3.143   2.502   3.725
 4711TIP3    H214079   3.145   2.577   3.594
 4712TIP3   OH214080   6.017   4.210   5.691
 4712TIP3    H114081   5.964   4.278   5.650
 4712TIP3    H214082   5.960   4.174   5.760
 4713TIP3   OH214083   7.614   4.854   6.286
 4713TIP3    H114084   7.680   4.920   6.266
 4713TIP3    H214085   7.646   4.810   6.364
 4714TIP3   OH214086   1.045   4.558   6.273
 4714TIP3    H114087   0.982   4.510   6.326
 4714TIP3    H214088   1.122   4.502   6.270
 4715TIP3   OH214089   2.034   0.098   5.871
 4715TIP3    H114090   2.039   0.150   5.951
 4715TIP3    H214091   2.124   0.097   5.838
 4716TIP3   OH214092   4.875   4.907   3.561
 4716TIP3    H114093   4.857   4.912   3.467
 4716TIP3    H214094   4.811   4.965   3.602
 4717TIP3   OH214095   3.769   0.911   1.864
 4717TIP3    H114096   3.857   0.878   1.851
 4717TIP3    H214097   3.773   1.002   1.837
 4718TIP3   OH214098   3.664   0.062   5.921
 4718TIP3    H114099   3.728   0.017   5.866
 4718TIP3    H214100   3.628   0.131   5.865
 4719TIP3   OH214101   6.704   7.108   2.848
 4719TIP3    H114102   6.741   7.191   2.877
 4719TIP3    H214103   6.775   7.045   2.861
 4720TIP3   OH214104   6.286   1.965   5.323
 4720TIP3    H114105   6.294   2.044   5.268
 4720TIP3    H214106   6.207   1.922   5.290
 4721TIP3   OH214107   6.124   4.936   3.091
 4721TIP3    H114108   6.190   5.004   3.078
 4721TIP3    H214109   6.066   4.971   3.158
 4722TIP3   OH214110   7.620   7.369   5.684
 4722TIP3    H114111   7.705   7.327   5.673
 4722TIP3    H214112   7.639   7.452   5.727
 4723TIP3   OH214113   0.788   5.631   0.810
 4723TIP3    H114114   0.701   5.646   0.773
 4723TIP3    H214115   0.786   5.678   0.893
 4724TIP3   OH214116   6.531   7.328   2.562
 4724TIP3    H114117   6.576   7.386   2.499
 4724TIP3    H214118   6.587   7.251   2.567
 4725TIP3   OH214119   5.186   7.722   4.965
 4725TIP3    H114120   5.278   7.704   4.987
 4725TIP3    H214121   5.156   7.780   5.036
 4726TIP3   OH214122   1.629   6.416   3.857
 4726TIP3    H114123   1.650   6.327   3.829
 4726TIP3    H214124   1.625   6.466   3.775
 4727TIP3   OH214125   1.573   7.801   0.007
 4727TIP3    H114126   1.625   7.863   0.060
 4727TIP3    H214127   1.596   7.715   0.043
 4728TIP3   OH214128   4.763   7.727   3.722
 4728TIP3    H114129   4.727   7.713   3.635
 4728TIP3    H214130   4.688   7.717   3.781
 4729TIP3   OH214131   8.220   2.163   5.212
 4729TIP3    H114132   8.285   2.092   5.209
 4729TIP3    H214133   8.157   2.135   5.279
 4730TIP3   OH214134   5.420   4.125   1.807
 4730TIP3    H114135   5.390   4.126   1.716
 4730TIP3    H214136   5.343   4.100   1.858
 4731TIP3   OH214137   7.557   2.677   3.477
 4731TIP3    H114138   7.498   2.749   3.455
 4731TIP3    H214139   7.538   2.610   3.411
 4732TIP3   OH214140   6.313   4.818   2.137
 4732TIP3    H114141   6.392   4.868   2.157
 4732TIP3    H214142   6.340   4.726   2.145
 4733TIP3   OH214143   2.354   2.977   5.587
 4733TIP3    H114144   2.306   2.923   5.650
 4733TIP3    H214145   2.295   3.050   5.569
 4734TIP3   OH214146   1.092   7.360   2.859
 4734TIP3    H114147   1.156   7.421   2.824
 4734TIP3    H214148   1.115   7.351   2.952
 4735TIP3   OH214149   5.641   6.570   6.583
 4735TIP3    H114150   5.583   6.579   6.507
 4735TIP3    H214151   5.729   6.580   6.548
 4736TIP3   OH214152   7.020   3.518   3.613
 4736TIP3    H114153   6.955   3.513   3.543
 4736TIP3    H214154   6.977   3.569   3.682
 4737TIP3   OH214155   6.227   0.328   6.369
 4737TIP3    H114156   6.218   0.265   6.297
 4737TIP3    H214157   6.137   0.353   6.390
 4738TIP3   OH214158   0.286   2.138   4.706
 4738TIP3    H114159   0.257   2.201   4.772
 4738TIP3    H214160   0.379   2.157   4.693
 4739TIP3   OH214161   8.089   1.019   1.878
 4739TIP3    H114162   8.028   0.975   1.937
 4739TIP3    H214163   8.137   0.948   1.835
 4740TIP3   OH214164   0.139   4.021   6.718
 4740TIP3    H114165   0.134   3.928   6.695
 4740TIP3    H214166   0.232   4.039   6.723
 4741TIP3   OH214167   3.856   1.891   2.772
 4741TIP3    H114168   3.761   1.890   2.770
 4741TIP3    H214169   3.883   1.818   2.716
 4742TIP3   OH214170   2.521   7.381   1.421
 4742TIP3    H114171   2.462   7.339   1.358
 4742TIP3    H214172   2.586   7.313   1.443
 4743TIP3   OH214173   0.067   6.402   6.463
 4743TIP3    H114174   0.135   6.391   6.529
 4743TIP3    H214175   0.108   6.456   6.395
 4744TIP3   OH214176   3.795   5.124   4.087
 4744TIP3    H114177   3.773   5.168   4.169
 4744TIP3    H214178   3.858   5.057   4.112
 4745TIP3   OH214179   6.824   1.709   5.708
 4745TIP3    H114180   6.892   1.776   5.702
 4745TIP3    H214181   6.873   1.626   5.706
 4746TIP3   OH214182   4.671   0.103   1.977
 4746TIP3    H114183   4.685   0.009   1.968
 4746TIP3    H214184   4.591   0.110   2.030
 4747TIP3   OH214185   3.511   6.158   0.674
 4747TIP3    H114186   3.438   6.101   0.697
 4747TIP3    H214187   3.503   6.170   0.579
 4748TIP3   OH214188   5.281   4.683   0.657
 4748TIP3    H114189   5.255   4.701   0.748
 4748TIP3    H214190   5.300   4.770   0.620
 4749TIP3   OH214191   6.157   0.289   0.066
 4749TIP3    H114192   6.218   0.306   0.138
 4749TIP3    H214193   6.201   0.325  -0.011
 4750TIP3   OH214194   3.289   0.477   5.901
 4750TIP3    H114195   3.323   0.500   5.987
 4750TIP3    H214196   3.196   0.499   5.905
 4751TIP3   OH214197   5.623   4.694   3.467
 4751TIP3    H114198   5.592   4.753   3.398
 4751TIP3    H214199   5.545   4.643   3.491
 4752TIP3   OH214200   6.353   7.250   2.223
 4752TIP3    H114201   6.447   7.257   2.236
 4752TIP3    H214202   6.330   7.162   2.254
 4753TIP3   OH214203   6.199   4.521   0.077
 4753TIP3    H114204   6.127   4.462   0.054
 4753TIP3    H214205   6.167   4.608   0.052
 4754TIP3   OH214206   0.080   2.029   1.913
 4754TIP3    H114207   0.127   2.111   1.927
 4754TIP3    H214208   0.146   1.961   1.925
 4755TIP3   OH214209   5.070   2.120   3.854
 4755TIP3    H114210   5.005   2.069   3.902
 4755TIP3    H214211   5.024   2.149   3.775
 4756TIP3   OH214212   3.403   0.863   5.834
 4756TIP3    H114213   3.455   0.860   5.754
 4756TIP3    H214214   3.441   0.935   5.885
 4757TIP3   OH214215   8.100   4.632   2.717
 4757TIP3    H114216   8.125   4.641   2.625
 4757TIP3    H214217   8.106   4.538   2.735
 4758TIP3   OH214218   6.144   4.301   2.537
 4758TIP3    H114219   6.098   4.379   2.506
 4758TIP3    H214220   6.127   4.234   2.471
 4759TIP3   OH214221   1.999   0.678   1.720
 4759TIP3    H114222   1.912   0.643   1.701
 4759TIP3    H214223   1.986   0.738   1.794
 4760TIP3   OH214224   5.712   3.603   0.508
 4760TIP3    H114225   5.618   3.585   0.497
 4760TIP3    H214226   5.723   3.691   0.472
 4761TIP3   OH214227   3.457   5.333   4.317
 4761TIP3    H114228   3.552   5.328   4.306
 4761TIP3    H214229   3.429   5.241   4.319
 4762TIP3   OH214230   4.313   1.700   3.103
 4762TIP3    H114231   4.308   1.621   3.158
 4762TIP3    H214232   4.295   1.772   3.163
 4763TIP3   OH214233   1.799   1.409   5.160
 4763TIP3    H114234   1.723   1.461   5.186
 4763TIP3    H214235   1.792   1.329   5.212
 4764TIP3   OH214236   5.375   7.366   4.298
 4764TIP3    H114237   5.337   7.302   4.238
 4764TIP3    H214238   5.331   7.351   4.381
 4765TIP3   OH214239   3.511   0.817   2.449
 4765TIP3    H114240   3.604   0.804   2.430
 4765TIP3    H214241   3.506   0.818   2.545
 4766TIP3   OH214242   2.569   6.337   2.643
 4766TIP3    H114243   2.508   6.344   2.717
 4766TIP3    H214244   2.633   6.407   2.657
 4767TIP3   OH214245   1.301   3.537   0.317
 4767TIP3    H114246   1.308   3.624   0.355
 4767TIP3    H214247   1.368   3.535   0.249
 4768TIP3   OH214248   0.603   1.817   2.800
 4768TIP3    H114249   0.680   1.850   2.847
 4768TIP3    H214250   0.633   1.737   2.758
 4769TIP3   OH214251   1.747   4.023   5.145
 4769TIP3    H114252   1.815   4.067   5.094
 4769TIP3    H214253   1.794   3.984   5.219
 4770TIP3   OH214254   5.874   1.298   6.536
 4770TIP3    H114255   5.843   1.301   6.626
 4770TIP3    H214256   5.805   1.253   6.488
 4771TIP3   OH214257   5.023   1.384   2.138
 4771TIP3    H114258   5.080   1.380   2.061
 4771TIP3    H214259   4.936   1.403   2.102
 4772TIP3   OH214260   0.999   7.546   3.809
 4772TIP3    H114261   0.912   7.511   3.789
 4772TIP3    H214262   0.988   7.641   3.805
 4773TIP3   OH214263   2.876   5.779   3.732
 4773TIP3    H114264   2.963   5.771   3.695
 4773TIP3    H214265   2.890   5.807   3.822
 4774TIP3   OH214266   4.746   6.595   4.557
 4774TIP3    H114267   4.828   6.547   4.561
 4774TIP3    H214268   4.709   6.573   4.471
 4775TIP3   OH214269   0.851   4.324   4.119
 4775TIP3    H114270   0.882   4.375   4.193
 4775TIP3    H214271   0.770   4.284   4.150
 4776TIP3   OH214272   4.817   5.872   4.478
 4776TIP3    H114273   4.826   5.780   4.501
 4776TIP3    H214274   4.861   5.919   4.549
 4777TIP3   OH214275   5.599   0.121   2.195
 4777TIP3    H114276   5.682   0.097   2.236
 4777TIP3    H214277   5.591   0.062   2.120
 4778TIP3   OH214278   3.205   4.731   1.053
 4778TIP3    H114279   3.235   4.808   1.101
 4778TIP3    H214280   3.275   4.714   0.989
 4779TIP3   OH214281   5.661   4.414   4.501
 4779TIP3    H114282   5.678   4.504   4.473
 4779TIP3    H214283   5.567   4.412   4.520
 4780TIP3   OH214284   4.370   2.053   4.568
 4780TIP3    H114285   4.320   2.124   4.528
 4780TIP3    H214286   4.453   2.094   4.593
 4781TIP3   OH214287   3.947   3.582   6.590
 4781TIP3    H114288   4.010   3.517   6.559
 4781TIP3    H214289   3.876   3.580   6.526
 4782TIP3   OH214290   2.905   5.125   3.135
 4782TIP3    H114291   2.937   5.212   3.111
 4782TIP3    H214292   2.863   5.092   3.055
 4783TIP3   OH214293   7.369   7.192   5.850
 4783TIP3    H114294   7.437   7.146   5.800
 4783TIP3    H214295   7.418   7.239   5.917
 4784TIP3   OH214296   8.269   2.207   6.558
 4784TIP3    H114297   8.335   2.142   6.532
 4784TIP3    H214298   8.320   2.279   6.595
 4785TIP3   OH214299   1.824   7.731   0.188
 4785TIP3    H114300   1.873   7.811   0.206
 4785TIP3    H214301   1.891   7.669   0.158
 4786TIP3   OH214302   0.875   1.622   2.631
 4786TIP3    H114303   0.787   1.606   2.664
 4786TIP3    H214304   0.861   1.662   2.545
 4787TIP3   OH214305   0.916   1.128   5.751
 4787TIP3    H114306   0.934   1.050   5.698
 4787TIP3    H214307   0.984   1.190   5.726
 4788TIP3   OH214308   3.387   0.728   0.240
 4788TIP3    H114309   3.373   0.641   0.203
 4788TIP3    H214310   3.323   0.784   0.194
 4789TIP3   OH214311   0.329   0.948   1.591
 4789TIP3    H114312   0.333   1.043   1.599
 4789TIP3    H214313   0.420   0.921   1.582
 4790TIP3   OH214314   3.950   0.790   0.581
 4790TIP3    H114315   3.897   0.857   0.624
 4790TIP3    H214316   3.904   0.773   0.499
 4791TIP3   OH214317   1.293   5.411   1.233
 4791TIP3    H114318   1.229   5.467   1.188
 4791TIP3    H214319   1.239   5.354   1.288
 4792TIP3   OH214320   5.611   0.824   1.789
 4792TIP3    H114321   5.644   0.910   1.816
 4792TIP3    H214322   5.646   0.764   1.854
 4793TIP3   OH214323   4.289   3.813   2.663
 4793TIP3    H114324   4.215   3.753   2.649
 4793TIP3    H214325   4.309   3.805   2.756
 4794TIP3   OH214326   3.721   7.675   5.472
 4794TIP3    H114327   3.775   7.753   5.484
 4794TIP3    H214328   3.752   7.636   5.390
 4795TIP3   OH214329   1.836   1.965   1.665
 4795TIP3    H114330   1.883   1.985   1.746
 4795TIP3    H214331   1.836   1.870   1.660
 4796TIP3   OH214332   3.812   4.018   2.025
 4796TIP3    H114333   3.778   4.088   2.080
 4796TIP3    H214334   3.857   3.959   2.085
 4797TIP3   OH214335   3.842   7.361   5.294
 4797TIP3    H114336   3.919   7.417   5.285
 4797TIP3    H214337   3.859   7.309   5.372
 4798TIP3   OH214338   3.354   5.363   1.025
 4798TIP3    H114339   3.422   5.350   1.090
 4798TIP3    H214340   3.372   5.450   0.989
 4799TIP3   OH214341   4.607   7.165   6.432
 4799TIP3    H114342   4.670   7.145   6.363
 4799TIP3    H214343   4.642   7.119   6.509
 4800TIP3   OH214344   5.101   2.999   6.442
 4800TIP3    H114345   5.125   3.054   6.367
 4800TIP3    H214346   5.180   2.995   6.496
 4801TIP3   OH214347   5.272   2.293   6.222
 4801TIP3    H114348   5.195   2.317   6.273
 4801TIP3    H214349   5.272   2.355   6.148
 4802TIP3   OH214350   7.190   0.031   3.334
 4802TIP3    H114351   7.259   0.068   3.388
 4802TIP3    H214352   7.120   0.009   3.395
 4803TIP3   OH214353   5.440   1.561   2.585
 4803TIP3    H114354   5.420   1.509   2.507
 4803TIP3    H214355   5.403   1.511   2.657
 4804TIP3   OH214356   1.405   2.031   5.697
 4804TIP3    H114357   1.401   1.966   5.628
 4804TIP3    H214358   1.341   2.098   5.672
 4805TIP3   OH214359   0.775   1.466   2.344
 4805TIP3    H114360   0.680   1.471   2.339
 4805TIP3    H214361   0.796   1.379   2.310
 4806TIP3   OH214362   0.680   2.810   0.163
 4806TIP3    H114363   0.688   2.716   0.148
 4806TIP3    H214364   0.759   2.832   0.214
 4807TIP3   OH214365   5.486   2.808   5.426
 4807TIP3    H114366   5.486   2.735   5.488
 4807TIP3    H214367   5.394   2.827   5.411
 4808TIP3   OH214368   6.523   5.856   5.362
 4808TIP3    H114369   6.564   5.819   5.440
 4808TIP3    H214370   6.470   5.928   5.395
 4809TIP3   OH214371   1.871   5.624   2.492
 4809TIP3    H114372   1.848   5.547   2.544
 4809TIP3    H214373   1.962   5.609   2.466
 4810TIP3   OH214374   1.227   6.779   0.788
 4810TIP3    H114375   1.320   6.799   0.797
 4810TIP3    H214376   1.201   6.744   0.874
 4811TIP3   OH214377   1.852   5.488   1.029
 4811TIP3    H114378   1.764   5.525   1.032
 4811TIP3    H214379   1.876   5.476   1.121
 4812TIP3   OH214380   7.209   3.352   0.964
 4812TIP3    H114381   7.226   3.435   1.008
 4812TIP3    H214382   7.114   3.340   0.971
 4813TIP3   OH214383   1.544   5.466   1.106
 4813TIP3    H114384   1.453   5.457   1.134
 4813TIP3    H214385   1.576   5.376   1.097
 4814TIP3   OH214386   3.076   5.871   2.409
 4814TIP3    H114387   2.982   5.885   2.400
 4814TIP3    H214388   3.099   5.814   2.336
 4815TIP3   OH214389   3.033   2.030   1.909
 4815TIP3    H114390   3.081   1.948   1.898
 4815TIP3    H214391   2.943   2.002   1.931
 4816TIP3   OH214392   1.275   6.941   3.859
 4816TIP3    H114393   1.199   6.886   3.876
 4816TIP3    H214394   1.332   6.889   3.802
 4817TIP3   OH214395   6.874   5.390   0.426
 4817TIP3    H114396   6.949   5.362   0.373
 4817TIP3    H214397   6.806   5.326   0.406
 4818TIP3   OH214398   0.422   2.376   3.544
 4818TIP3    H114399   0.362   2.425   3.601
 4818TIP3    H214400   0.366   2.334   3.479
 4819TIP3   OH214401   7.330   7.031   0.671
 4819TIP3    H114402   7.318   7.076   0.587
 4819TIP3    H214403   7.255   7.058   0.724
 4820TIP3   OH214404   1.465   3.723   2.852
 4820TIP3    H114405   1.468   3.715   2.757
 4820TIP3    H214406   1.539   3.672   2.883
 4821TIP3   OH214407   1.621   0.092   4.773
 4821TIP3    H114408   1.697   0.034   4.769
 4821TIP3    H214409   1.589   0.098   4.683
 4822TIP3   OH214410   8.005   1.708   2.088
 4822TIP3    H114411   8.039   1.640   2.146
 4822TIP3    H214412   8.033   1.790   2.129
 4823TIP3   OH214413   0.520   4.252   3.681
 4823TIP3    H114414   0.506   4.210   3.767
 4823TIP3    H214415   0.456   4.210   3.624
 4824TIP3   OH214416   1.181   6.273   2.570
 4824TIP3    H114417   1.157   6.355   2.526
 4824TIP3    H214418   1.155   6.286   2.661
 4825TIP3   OH214419   3.109   2.784   0.691
 4825TIP3    H114420   3.180   2.808   0.632
 4825TIP3    H214421   3.125   2.835   0.770
 4826TIP3   OH214422   6.942   4.830   3.471
 4826TIP3    H114423   6.922   4.875   3.553
 4826TIP3    H214424   6.892   4.878   3.404
 4827TIP3   OH214425   8.027   4.425   1.850
 4827TIP3    H114426   8.110   4.383   1.874
 4827TIP3    H214427   8.052   4.490   1.784
 4828TIP3   OH214428   7.827   4.728   1.519
 4828TIP3    H114429   7.792   4.723   1.430
 4828TIP3    H214430   7.916   4.694   1.512
 4829TIP3   OH214431   5.000   6.767   0.028
 4829TIP3    H114432   4.932   6.714   0.071
 4829TIP3    H214433   5.076   6.758   0.086
 4830TIP3   OH214434   6.286   5.870   6.528
 4830TIP3    H114435   6.364   5.904   6.573
 4830TIP3    H214436   6.313   5.785   6.493
 4831TIP3   OH214437   3.745   4.475   1.657
 4831TIP3    H114438   3.780   4.405   1.713
 4831TIP3    H214439   3.779   4.454   1.570
 4832TIP3   OH214440   3.276   3.026   4.468
 4832TIP3    H114441   3.207   2.967   4.435
 4832TIP3    H214442   3.357   2.991   4.431
 4833TIP3   OH214443   5.062   0.571   5.710
 4833TIP3    H114444   4.996   0.621   5.662
 4833TIP3    H214445   5.053   0.482   5.677
 4834TIP3   OH214446   0.263   7.413   1.569
 4834TIP3    H114447   0.230   7.491   1.613
 4834TIP3    H214448   0.238   7.424   1.477
 4835TIP3   OH214449   7.484   5.793   0.107
 4835TIP3    H114450   7.569   5.750   0.105
 4835TIP3    H214451   7.483   5.843   0.188
 4836TIP3   OH214452   3.778   4.737   5.714
 4836TIP3    H114453   3.815   4.671   5.772
 4836TIP3    H214454   3.838   4.811   5.721
 4837TIP3   OH214455   1.983   7.577   3.555
 4837TIP3    H114456   2.069   7.569   3.514
 4837TIP3    H214457   1.932   7.629   3.494
 4838TIP3   OH214458   5.580   5.596   1.576
 4838TIP3    H114459   5.618   5.508   1.569
 4838TIP3    H214460   5.533   5.608   1.493
 4839TIP3   OH214461   7.473   6.346   1.141
 4839TIP3    H114462   7.542   6.401   1.176
 4839TIP3    H214463   7.473   6.268   1.196
 4840TIP3   OH214464   8.199   0.830   4.322
 4840TIP3    H114465   8.114   0.794   4.347
 4840TIP3    H214466   8.231   0.772   4.253
 4841TIP3   OH214467   6.735   1.768   0.820
 4841TIP3    H114468   6.704   1.763   0.911
 4841TIP3    H214469   6.673   1.826   0.777
 4842TIP3   OH214470   7.303   1.351   5.928
 4842TIP3    H114471   7.389   1.311   5.912
 4842TIP3    H214472   7.263   1.295   5.994
 4843TIP3   OH214473   3.857   3.064   3.633
 4843TIP3    H114474   3.949   3.084   3.651
 4843TIP3    H214475   3.858   3.028   3.544
 4844TIP3   OH214476   7.367   5.996   1.665
 4844TIP3    H114477   7.420   5.935   1.717
 4844TIP3    H214478   7.408   6.081   1.679
 4845TIP3   OH214479   5.171   0.357   5.885
 4845TIP3    H114480   5.170   0.304   5.964
 4845TIP3    H214481   5.199   0.444   5.915
 4846TIP3   OH214482   5.964   0.918   5.692
 4846TIP3    H114483   5.897   0.986   5.693
 4846TIP3    H214484   6.047   0.965   5.703
 4847TIP3   OH214485   6.599   6.537   0.988
 4847TIP3    H114486   6.674   6.485   0.957
 4847TIP3    H214487   6.561   6.484   1.057
 4848TIP3   OH214488   4.822   6.344   1.806
 4848TIP3    H114489   4.780   6.290   1.738
 4848TIP3    H214490   4.915   6.344   1.783
 4849TIP3   OH214491   4.991   1.703   5.487
 4849TIP3    H114492   5.030   1.667   5.567
 4849TIP3    H214493   4.910   1.744   5.517
 4850TIP3   OH214494   6.350   5.061   6.034
 4850TIP3    H114495   6.371   5.151   6.057
 4850TIP3    H214496   6.303   5.027   6.110
 4851TIP3   OH214497   3.176   1.666   4.601
 4851TIP3    H114498   3.159   1.578   4.568
 4851TIP3    H214499   3.264   1.687   4.570
 4852TIP3   OH214500   1.040   7.039   4.355
 4852TIP3    H114501   0.981   6.964   4.343
 4852TIP3    H214502   1.102   7.009   4.422
 4853TIP3   OH214503   7.031   2.167   6.299
 4853TIP3    H114504   7.077   2.236   6.250
 4853TIP3    H214505   6.967   2.134   6.237
 4854TIP3   OH214506   7.855   2.755   1.654
 4854TIP3    H114507   7.794   2.687   1.627
 4854TIP3    H214508   7.918   2.710   1.711
 4855TIP3   OH214509   1.744   7.560   4.838
 4855TIP3    H114510   1.821   7.563   4.781
 4855TIP3    H214511   1.780   7.554   4.926
 4856TIP3   OH214512   6.832   3.680   3.858
 4856TIP3    H114513   6.770   3.644   3.922
 4856TIP3    H214514   6.854   3.767   3.892
 4857TIP3   OH214515   6.110   3.257   1.644
 4857TIP3    H114516   6.099   3.273   1.737
 4857TIP3    H214517   6.108   3.344   1.604
 4858TIP3   OH214518   4.871   2.992   5.224
 4858TIP3    H114519   4.943   3.050   5.198
 4858TIP3    H214520   4.909   2.904   5.218
 4859TIP3   OH214521   7.933   3.136   2.453
 4859TIP3    H114522   7.849   3.123   2.496
 4859TIP3    H214523   7.987   3.064   2.484
 4860TIP3   OH214524   0.750   4.898   0.341
 4860TIP3    H114525   0.775   4.891   0.433
 4860TIP3    H214526   0.830   4.928   0.297
 4861TIP3   OH214527   5.959   1.258   5.561
 4861TIP3    H114528   5.948   1.228   5.471
 4861TIP3    H214529   6.052   1.277   5.569
 4862TIP3   OH214530   2.523   3.761   3.120
 4862TIP3    H114531   2.511   3.700   3.047
 4862TIP3    H214532   2.538   3.705   3.196
 4863TIP3   OH214533   3.191   5.832   4.922
 4863TIP3    H114534   3.114   5.776   4.932
 4863TIP3    H214535   3.193   5.884   5.002
 4864TIP3   OH214536   3.665   0.715   6.173
 4864TIP3    H114537   3.674   0.687   6.082
 4864TIP3    H214538   3.574   0.742   6.182
 4865TIP3   OH214539   0.203   6.565   6.313
 4865TIP3    H114540   0.177   6.604   6.230
 4865TIP3    H214541   0.250   6.635   6.359
 4866TIP3   OH214542   2.618   7.749   0.368
 4866TIP3    H114543   2.529   7.771   0.396
 4866TIP3    H214544   2.652   7.829   0.329
 4867TIP3   OH214545   3.971   0.798   3.114
 4867TIP3    H114546   4.009   0.734   3.174
 4867TIP3    H214547   3.946   0.747   3.037
 4868TIP3   OH214548   2.583   0.178   6.263
 4868TIP3    H114549   2.599   0.085   6.245
 4868TIP3    H214550   2.494   0.193   6.232
 4869TIP3   OH214551   7.905   6.882   2.498
 4869TIP3    H114552   7.922   6.826   2.422
 4869TIP3    H214553   7.818   6.919   2.481
 4870TIP3   OH214554   5.886   0.576   4.210
 4870TIP3    H114555   5.955   0.538   4.155
 4870TIP3    H214556   5.933   0.618   4.282
 4871TIP3   OH214557   0.255   1.538   6.768
 4871TIP3    H114558   0.342   1.508   6.741
 4871TIP3    H214559   0.203   1.458   6.775
 4872TIP3   OH214560   0.480   0.708   0.151
 4872TIP3    H114561   0.448   0.770   0.217
 4872TIP3    H214562   0.415   0.638   0.151
 4873TIP3   OH214563   4.613   0.627   3.588
 4873TIP3    H114564   4.598   0.683   3.511
 4873TIP3    H214565   4.527   0.588   3.606
 4874TIP3   OH214566   1.124   4.452   6.606
 4874TIP3    H114567   1.159   4.389   6.669
 4874TIP3    H214568   1.170   4.432   6.524
 4875TIP3   OH214569   0.342   6.963   4.426
 4875TIP3    H114570   0.422   6.970   4.479
 4875TIP3    H214571   0.336   7.047   4.381
 4876TIP3   OH214572   1.403   6.562   0.710
 4876TIP3    H114573   1.329   6.612   0.743
 4876TIP3    H214574   1.459   6.548   0.786
 4877TIP3   OH214575   1.179   6.921   0.550
 4877TIP3    H114576   1.195   6.850   0.612
 4877TIP3    H214577   1.124   6.881   0.483
 4878TIP3   OH214578   5.892   3.415   0.080
 4878TIP3    H114579   5.916   3.504   0.055
 4878TIP3    H214580   5.861   3.375  -0.001
 4879TIP3   OH214581   1.263   4.276   1.821
 4879TIP3    H114582   1.321   4.328   1.877
 4879TIP3    H214583   1.220   4.215   1.882
 4880TIP3   OH214584   5.381   6.118   5.573
 4880TIP3    H114585   5.318   6.097   5.643
 4880TIP3    H214586   5.449   6.169   5.617
 4881TIP3   OH214587   3.838   7.796   5.774
 4881TIP3    H114588   3.855   7.815   5.682
 4881TIP3    H214589   3.905   7.733   5.799
 4882TIP3   OH214590   8.050   4.341   4.054
 4882TIP3    H114591   8.040   4.375   3.965
 4882TIP3    H214592   8.135   4.296   4.053
 4883TIP3   OH214593   3.287   5.362   6.046
 4883TIP3    H114594   3.232   5.419   5.993
 4883TIP3    H214595   3.327   5.420   6.110
 4884TIP3   OH214596   3.709   3.824   5.138
 4884TIP3    H114597   3.662   3.751   5.176
 4884TIP3    H214598   3.802   3.804   5.153
 4885TIP3   OH214599   1.985   1.431   1.443
 4885TIP3    H114600   2.019   1.399   1.527
 4885TIP3    H214601   2.062   1.471   1.401
 4886TIP3   OH214602   4.230   0.432   1.778
 4886TIP3    H114603   4.166   0.399   1.841
 4886TIP3    H214604   4.276   0.353   1.747
 4887TIP3   OH214605   3.759   5.324   0.652
 4887TIP3    H114606   3.738   5.268   0.577
 4887TIP3    H214607   3.811   5.395   0.614
 4888TIP3   OH214608   8.103   1.414   4.709
 4888TIP3    H114609   8.152   1.338   4.742
 4888TIP3    H214610   8.170   1.481   4.695
 4889TIP3   OH214611   2.974   4.223   0.682
 4889TIP3    H114612   3.053   4.175   0.707
 4889TIP3    H214613   2.997   4.315   0.696
 4890TIP3   OH214614   3.435   1.167   3.668
 4890TIP3    H114615   3.474   1.129   3.589
 4890TIP3    H214616   3.353   1.120   3.679
 4891TIP3   OH214617   4.167   2.026   3.503
 4891TIP3    H114618   4.185   2.120   3.497
 4891TIP3    H214619   4.155   2.010   3.596
 4892TIP3   OH214620   6.238   4.769   0.625
 4892TIP3    H114621   6.290   4.800   0.551
 4892TIP3    H214622   6.296   4.780   0.701
 4893TIP3   OH214623   3.629   4.361   3.952
 4893TIP3    H114624   3.656   4.334   4.040
 4893TIP3    H214625   3.539   4.393   3.963
 4894TIP3   OH214626   8.008   1.342   5.213
 4894TIP3    H114627   8.082   1.336   5.153
 4894TIP3    H214628   8.018   1.268   5.272
 4895TIP3   OH214629   2.443   6.864   0.054
 4895TIP3    H114630   2.491   6.888   0.133
 4895TIP3    H214631   2.454   6.769   0.047
 4896TIP3   OH214632   3.968   6.578   1.780
 4896TIP3    H114633   4.038   6.612   1.835
 4896TIP3    H214634   3.974   6.483   1.789
 4897TIP3   OH214635   7.849   0.674   4.672
 4897TIP3    H114636   7.767   0.630   4.648
 4897TIP3    H214637   7.886   0.702   4.588
 4898TIP3   OH214638   5.228   2.444   1.000
 4898TIP3    H114639   5.141   2.403   1.003
 4898TIP3    H214640   5.284   2.378   0.960
 4899TIP3   OH214641   2.534   2.874   2.960
 4899TIP3    H114642   2.475   2.947   2.977
 4899TIP3    H214643   2.525   2.817   3.036
 4900TIP3   OH214644   5.360   4.971   3.495
 4900TIP3    H114645   5.270   4.954   3.467
 4900TIP3    H214646   5.414   4.929   3.429
 4901TIP3   OH214647   4.167   2.934   5.828
 4901TIP3    H114648   4.125   2.863   5.878
 4901TIP3    H214649   4.162   3.010   5.886
 4902TIP3   OH214650   5.995   2.786   6.043
 4902TIP3    H114651   6.052   2.856   6.011
 4902TIP3    H214652   5.936   2.829   6.105
 4903TIP3   OH214653   3.483   4.506   1.401
 4903TIP3    H114654   3.486   4.601   1.411
 4903TIP3    H214655   3.394   4.482   1.425
 4904TIP3   OH214656   4.288   1.139   5.002
 4904TIP3    H114657   4.378   1.117   4.979
 4904TIP3    H214658   4.278   1.230   4.976
 4905TIP3   OH214659   6.673   7.539   2.420
 4905TIP3    H114660   6.724   7.616   2.396
 4905TIP3    H214661   6.586   7.573   2.440
 4906TIP3   OH214662   6.836   6.651   2.283
 4906TIP3    H114663   6.842   6.561   2.315
 4906TIP3    H214664   6.924   6.687   2.295
 4907TIP3   OH214665   6.752   0.975   2.195
 4907TIP3    H114666   6.689   0.923   2.145
 4907TIP3    H214667   6.820   0.913   2.219
 4908TIP3   OH214668   1.540   0.040   2.582
 4908TIP3    H114669   1.569   0.120   2.538
 4908TIP3    H214670   1.573   0.050   2.672
 4909TIP3   OH214671   4.673   0.721   4.842
 4909TIP3    H114672   4.674   0.677   4.927
 4909TIP3    H214673   4.586   0.760   4.836
 4910TIP3   OH214674   5.023   6.153   5.803
 4910TIP3    H114675   5.095   6.208   5.834
 4910TIP3    H214676   5.054   6.064   5.816
 4911TIP3   OH214677   3.981   2.541   6.177
 4911TIP3    H114678   3.909   2.478   6.179
 4911TIP3    H214679   4.057   2.489   6.154
 4912TIP3   OH214680   7.739   3.037   3.533
 4912TIP3    H114681   7.809   3.100   3.551
 4912TIP3    H214682   7.748   3.017   3.439
 4913TIP3   OH214683   4.824   0.328   2.158
 4913TIP3    H114684   4.893   0.351   2.096
 4913TIP3    H214685   4.747   0.311   2.103
 4914TIP3   OH214686   7.312   5.302   2.051
 4914TIP3    H114687   7.255   5.227   2.069
 4914TIP3    H214688   7.260   5.359   1.994
 4915TIP3   OH214689   5.318   4.533   4.783
 4915TIP3    H114690   5.351   4.482   4.856
 4915TIP3    H214691   5.260   4.598   4.824
 4916TIP3   OH214692   5.350   4.747   0.285
 4916TIP3    H114693   5.424   4.727   0.227
 4916TIP3    H214694   5.387   4.804   0.352
 4917TIP3   OH214695   7.185   0.269   1.895
 4917TIP3    H114696   7.109   0.240   1.944
 4917TIP3    H214697   7.201   0.358   1.926
 4918TIP3   OH214698   5.887   6.518   5.968
 4918TIP3    H114699   5.909   6.427   5.947
 4918TIP3    H214700   5.972   6.559   5.985
 4919TIP3   OH214701   1.350   3.014   4.301
 4919TIP3    H114702   1.410   2.940   4.299
 4919TIP3    H214703   1.332   3.028   4.394
 4920TIP3   OH214704   7.459   7.042   4.839
 4920TIP3    H114705   7.447   6.971   4.777
 4920TIP3    H214706   7.539   7.086   4.810
 4921TIP3   OH214707   0.612   6.988   0.599
 4921TIP3    H114708   0.655   6.907   0.571
 4921TIP3    H214709   0.684   7.050   0.613
 4922TIP3   OH214710   7.268   3.287   6.460
 4922TIP3    H114711   7.226   3.222   6.516
 4922TIP3    H214712   7.241   3.263   6.372
 4923TIP3   OH214713   4.430   7.782   5.481
 4923TIP3    H114714   4.358   7.780   5.544
 4923TIP3    H214715   4.492   7.845   5.518
 4924TIP3   OH214716   0.407   0.421   0.961
 4924TIP3    H114717   0.343   0.434   0.891
 4924TIP3    H214718   0.379   0.340   1.004
 4925TIP3   OH214719   0.485   7.209   1.399
 4925TIP3    H114720   0.437   7.126   1.403
 4925TIP3    H214721   0.424   7.269   1.356
 4926TIP3   OH214722   2.699   4.110   6.285
 4926TIP3    H114723   2.757   4.038   6.261
 4926TIP3    H214724   2.622   4.098   6.228
 4927TIP3   OH214725   1.447   4.317   5.096
 4927TIP3    H114726   1.441   4.248   5.029
 4927TIP3    H214727   1.482   4.273   5.173
 4928TIP3   OH214728   1.274   0.514   6.133
 4928TIP3    H114729   1.278   0.439   6.073
 4928TIP3    H214730   1.198   0.497   6.188
 4929TIP3   OH214731   5.746   3.325   2.212
 4929TIP3    H114732   5.825   3.271   2.199
 4929TIP3    H214733   5.747   3.345   2.305
 4930TIP3   OH214734   2.417   0.681   5.562
 4930TIP3    H114735   2.481   0.750   5.544
 4930TIP3    H214736   2.442   0.609   5.504
 4931TIP3   OH214737   2.853   1.014   2.094
 4931TIP3    H114738   2.838   1.093   2.146
 4931TIP3    H214739   2.825   1.038   2.006
 4932TIP3   OH214740   4.915   0.028   4.887
 4932TIP3    H114741   4.860  -0.011   4.818
 4932TIP3    H214742   4.959   0.101   4.844
 4933TIP3   OH214743   7.233   6.891   3.422
 4933TIP3    H114744   7.179   6.925   3.493
 4933TIP3    H214745   7.196   6.805   3.402
 4934TIP3   OH214746   1.861   7.818   4.487
 4934TIP3    H114747   1.896   7.750   4.429
 4934TIP3    H214748   1.769   7.794   4.498
 4935TIP3   OH214749   2.285   3.422   1.642
 4935TIP3    H114750   2.234   3.347   1.674
 4935TIP3    H214751   2.293   3.479   1.718
 4936TIP3   OH214752   7.889   7.402   2.447
 4936TIP3    H114753   7.923   7.488   2.472
 4936TIP3    H214754   7.800   7.420   2.416
 4937TIP3   OH214755   6.133   6.621   1.196
 4937TIP3    H114756   6.044   6.624   1.231
 4937TIP3    H214757   6.141   6.534   1.158
 4938TIP3   OH214758   7.428   5.516   4.555
 4938TIP3    H114759   7.344   5.479   4.582
 4938TIP3    H214760   7.491   5.480   4.617
 4939TIP3   OH214761   2.043   0.896   5.330
 4939TIP3    H114762   2.052   0.804   5.354
 4939TIP3    H214763   2.074   0.899   5.239
 4940TIP3   OH214764   2.701   0.631   3.483
 4940TIP3    H114765   2.791   0.651   3.456
 4940TIP3    H214766   2.685   0.543   3.449
 4941TIP3   OH214767   0.209   7.515   6.027
 4941TIP3    H114768   0.233   7.565   5.949
 4941TIP3    H214769   0.113   7.521   6.030
 4942TIP3   OH214770   5.722   1.825   3.053
 4942TIP3    H114771   5.646   1.855   3.102
 4942TIP3    H214772   5.765   1.905   3.023
 4943TIP3   OH214773   0.440   5.247   4.068
 4943TIP3    H114774   0.473   5.240   3.978
 4943TIP3    H214775   0.394   5.332   4.071
 4944TIP3   OH214776   6.934   4.873   4.478
 4944TIP3    H114777   6.957   4.798   4.533
 4944TIP3    H214778   6.937   4.947   4.538
 4945TIP3   OH214779   2.970   1.065   0.272
 4945TIP3    H114780   2.941   1.102   0.188
 4945TIP3    H214781   3.065   1.072   0.270
 4946TIP3   OH214782   6.061   5.610   5.753
 4946TIP3    H114783   6.126   5.596   5.683
 4946TIP3    H214784   5.999   5.672   5.715
 4947TIP3   OH214785   0.310   6.356   0.328
 4947TIP3    H114786   0.230   6.389   0.286
 4947TIP3    H214787   0.379   6.371   0.263
 4948TIP3   OH214788   3.605   6.342   2.976
 4948TIP3    H114789   3.541   6.274   2.996
 4948TIP3    H214790   3.564   6.423   3.005
 4949TIP3   OH214791   4.635   3.301   2.813
 4949TIP3    H114792   4.645   3.206   2.803
 4949TIP3    H214793   4.548   3.312   2.850
 4950TIP3   OH214794   5.844   5.670   1.437
 4950TIP3    H114795   5.857   5.614   1.361
 4950TIP3    H214796   5.774   5.628   1.487
 4951TIP3   OH214797   4.314   1.582   4.003
 4951TIP3    H114798   4.401   1.585   3.963
 4951TIP3    H214799   4.289   1.489   4.000
 4952TIP3   OH214800   4.030   7.693   1.190
 4952TIP3    H114801   4.048   7.676   1.283
 4952TIP3    H214802   3.935   7.705   1.186
 4953TIP3   OH214803   8.186   2.841   5.354
 4953TIP3    H114804   8.108   2.843   5.409
 4953TIP3    H214805   8.179   2.920   5.300
 4954TIP3   OH214806   0.135   6.788   2.036
 4954TIP3    H114807   0.046   6.811   2.060
 4954TIP3    H214808   0.143   6.815   1.945
 4955TIP3   OH214809   0.161   4.604   4.857
 4955TIP3    H114810   0.202   4.568   4.778
 4955TIP3    H214811   0.141   4.528   4.911
 4956TIP3   OH214812   1.161   5.834   6.542
 4956TIP3    H114813   1.124   5.907   6.491
 4956TIP3    H214814   1.240   5.810   6.494
 4957TIP3   OH214815   5.668   1.482   4.958
 4957TIP3    H114816   5.585   1.447   4.989
 4957TIP3    H214817   5.735   1.431   5.004
 4958TIP3   OH214818   6.227   3.665   5.680
 4958TIP3    H114819   6.281   3.652   5.602
 4958TIP3    H214820   6.289   3.660   5.753
 4959TIP3   OH214821   8.234   6.843   4.377
 4959TIP3    H114822   8.182   6.851   4.457
 4959TIP3    H214823   8.191   6.901   4.314
 4960TIP3   OH214824   0.999   6.585   5.081
 4960TIP3    H114825   0.970   6.667   5.040
 4960TIP3    H214826   0.918   6.537   5.097
 4961TIP3   OH214827   3.737   4.168   6.572
 4961TIP3    H114828   3.643   4.149   6.565
 4961TIP3    H214829   3.772   4.146   6.485
 4962TIP3   OH214830   5.715   4.525   6.318
 4962TIP3    H114831   5.722   4.432   6.341
 4962TIP3    H214832   5.763   4.533   6.235
 4963TIP3   OH214833   6.575   7.576   5.700
 4963TIP3    H114834   6.614   7.489   5.692
 4963TIP3    H214835   6.601   7.621   5.619
 4964TIP3   OH214836   2.917   7.100   0.403
 4964TIP3    H114837   2.933   7.159   0.477
 4964TIP3    H214838   2.892   7.158   0.331
 4965TIP3   OH214839   8.077   1.218   4.427
 4965TIP3    H114840   8.071   1.272   4.348
 4965TIP3    H214841   8.004   1.248   4.482
 4966TIP3   OH214842   6.882   1.132   1.888
 4966TIP3    H114843   6.797   1.090   1.879
 4966TIP3    H214844   6.937   1.065   1.930
 4967TIP3   OH214845   6.201   7.756   6.464
 4967TIP3    H114846   6.164   7.762   6.376
 4967TIP3    H214847   6.189   7.843   6.501
 4968TIP3   OH214848   6.264   6.991   0.855
 4968TIP3    H114849   6.346   6.943   0.848
 4968TIP3    H214850   6.283   7.062   0.916
 4969TIP3   OH214851   2.988   7.007   2.679
 4969TIP3    H114852   3.082   6.997   2.670
 4969TIP3    H214853   2.959   7.038   2.593
 4970TIP3   OH214854   3.611   1.738   1.355
 4970TIP3    H114855   3.680   1.677   1.329
 4970TIP3    H214856   3.611   1.736   1.450
 4971TIP3   OH214857   2.139   4.440   6.471
 4971TIP3    H114858   2.210   4.470   6.414
 4971TIP3    H214859   2.181   4.378   6.531
 4972TIP3   OH214860   1.785   5.881   3.493
 4972TIP3    H114861   1.880   5.889   3.484
 4972TIP3    H214862   1.769   5.892   3.587
 4973TIP3   OH214863   8.282   6.223   2.915
 4973TIP3    H114864   8.322   6.158   2.857
 4973TIP3    H214865   8.239   6.285   2.855
 4974TIP3   OH214866   5.167   6.215   4.935
 4974TIP3    H114867   5.128   6.183   5.016
 4974TIP3    H214868   5.175   6.310   4.948
 4975TIP3   OH214869   1.339   4.115   4.225
 4975TIP3    H114870   1.337   4.033   4.273
 4975TIP3    H214871   1.409   4.105   4.161
 4976TIP3   OH214872   2.072   2.298   4.582
 4976TIP3    H114873   2.114   2.384   4.590
 4976TIP3    H214874   2.125   2.251   4.517
 4977TIP3   OH214875   7.727   7.371   6.384
 4977TIP3    H114876   7.682   7.438   6.435
 4977TIP3    H214877   7.663   7.301   6.375
 4978TIP3   OH214878   4.621   4.442   3.063
 4978TIP3    H114879   4.706   4.480   3.042
 4978TIP3    H214880   4.569   4.453   2.984
 4979TIP3   OH214881   0.156   2.423   2.514
 4979TIP3    H114882   0.160   2.328   2.511
 4979TIP3    H214883   0.069   2.444   2.480
 4980TIP3   OH214884   3.712   4.067   1.706
 4980TIP3    H114885   3.617   4.060   1.721
 4980TIP3    H214886   3.745   4.114   1.782
 4981TIP3   OH214887   1.012   7.098   5.942
 4981TIP3    H114888   0.948   7.060   6.001
 4981TIP3    H214889   0.978   7.186   5.923
 4982TIP3   OH214890   2.569   1.454   4.468
 4982TIP3    H114891   2.507   1.414   4.407
 4982TIP3    H214892   2.591   1.538   4.428
 4983TIP3   OH214893   0.596   3.687   6.325
 4983TIP3    H114894   0.631   3.679   6.236
 4983TIP3    H214895   0.506   3.720   6.312
 4984TIP3   OH214896   0.097   0.570   1.290
 4984TIP3    H114897   0.123   0.573   1.198
 4984TIP3    H214898   0.104   0.661   1.320
 4985TIP3   OH214899   7.150   3.473   2.297
 4985TIP3    H114900   7.055   3.482   2.289
 4985TIP3    H214901   7.177   3.427   2.217
 4986TIP3   OH214902   7.035   5.922   0.241
 4986TIP3    H114903   7.006   5.964   0.322
 4986TIP3    H214904   7.095   5.853   0.270
 4987TIP3   OH214905   1.795   4.897   1.893
 4987TIP3    H114906   1.709   4.879   1.856
 4987TIP3    H214907   1.799   4.992   1.901
 4988TIP3   OH214908   7.242   2.558   5.900
 4988TIP3    H114909   7.276   2.637   5.940
 4988TIP3    H214910   7.267   2.565   5.808
 4989TIP3   OH214911   1.638   6.363   4.154
 4989TIP3    H114912   1.626   6.360   4.059
 4989TIP3    H214913   1.721   6.319   4.170
 4990TIP3   OH214914   7.227   6.325   2.111
 4990TIP3    H114915   7.257   6.383   2.181
 4990TIP3    H214916   7.294   6.258   2.104
 4991TIP3   OH214917   0.913   7.262   1.775
 4991TIP3    H114918   0.941   7.347   1.807
 4991TIP3    H214919   0.940   7.200   1.843
 4992TIP3   OH214920   2.469   4.635   5.089
 4992TIP3    H114921   2.432   4.546   5.092
 4992TIP3    H214922   2.453   4.670   5.177
 4993TIP3   OH214923   0.929   4.036   1.359
 4993TIP3    H114924   0.983   3.980   1.415
 4993TIP3    H214925   0.956   4.125   1.381
 4994TIP3   OH214926   4.500   0.299   5.715
 4994TIP3    H114927   4.567   0.338   5.658
 4994TIP3    H214928   4.506   0.349   5.796
 4995TIP3   OH214929   3.562   3.655   1.726
 4995TIP3    H114930   3.607   3.703   1.796
 4995TIP3    H214931   3.583   3.704   1.646
 4996TIP3   OH214932   3.160   1.295   1.984
 4996TIP3    H114933   3.247   1.290   1.944
 4996TIP3    H214934   3.119   1.211   1.964
 4997TIP3   OH214935   2.407   5.904   3.737
 4997TIP3    H114936   2.500   5.925   3.734
 4997TIP3    H214937   2.403   5.810   3.751
 4998TIP3   OH214938   6.248   0.821   1.848
 4998TIP3    H114939   6.331   0.829   1.802
 4998TIP3    H214940   6.188   0.879   1.800
 4999TIP3   OH214941   2.528   4.929   4.706
 4999TIP3    H114942   2.515   4.899   4.616
 4999TIP3    H214943   2.502   5.021   4.705
 5000TIP3   OH214944   4.583   3.634   2.665
 5000TIP3    H114945   4.612   3.620   2.575
 5000TIP3    H214946   4.645   3.584   2.718
 5001TIP3   OH214947   5.731   6.394   1.015
 5001TIP3    H114948   5.710   6.340   1.091
 5001TIP3    H214949   5.673   6.470   1.023
 5002TIP3   OH214950   0.215   1.429   4.993
 5002TIP3    H114951   0.302   1.405   5.024
 5002TIP3    H214952   0.189   1.501   5.050
 5003TIP3   OH214953   1.092   2.706   6.596
 5003TIP3    H114954   1.134   2.690   6.680
 5003TIP3    H214955   1.080   2.801   6.592
 5004TIP3   OH214956   6.752   3.767   1.831
 5004TIP3    H114957   6.700   3.735   1.906
 5004TIP3    H214958   6.822   3.702   1.821
 5005TIP3   OH214959   2.282   6.623   3.191
 5005TIP3    H114960   2.279   6.527   3.189
 5005TIP3    H214961   2.205   6.649   3.242
 5006TIP3   OH214962   2.394   5.768   1.919
 5006TIP3    H114963   2.310   5.750   1.960
 5006TIP3    H214964   2.373   5.786   1.828
 5007TIP3   OH214965   7.183   4.356   3.324
 5007TIP3    H114966   7.186   4.380   3.231
 5007TIP3    H214967   7.235   4.276   3.329
 5008TIP3   OH214968   6.925   5.310   0.941
 5008TIP3    H114969   6.998   5.328   1.001
 5008TIP3    H214970   6.899   5.396   0.909
 5009TIP3   OH214971   5.952   3.117   6.576
 5009TIP3    H114972   5.862   3.097   6.552
 5009TIP3    H214973   5.990   3.032   6.601
 5010TIP3   OH214974   1.847   2.360   4.907
 5010TIP3    H114975   1.834   2.307   4.828
 5010TIP3    H214976   1.914   2.314   4.957
 5011TIP3   OH214977   5.352   5.669   2.548
 5011TIP3    H114978   5.295   5.595   2.572
 5011TIP3    H214979   5.435   5.628   2.524
 5012TIP3   OH214980   8.102   5.196   6.240
 5012TIP3    H114981   8.047   5.190   6.162
 5012TIP3    H214982   8.057   5.257   6.297
 5013TIP3   OH214983   3.647   4.438   6.685
 5013TIP3    H114984   3.568   4.394   6.655
 5013TIP3    H214985   3.698   4.453   6.606
 5014TIP3   OH214986   3.409   2.304   2.592
 5014TIP3    H114987   3.430   2.392   2.560
 5014TIP3    H214988   3.333   2.316   2.648
 5015TIP3   OH214989   4.693   6.903   5.369
 5015TIP3    H114990   4.734   6.851   5.299
 5015TIP3    H214991   4.608   6.862   5.383
 5016TIP3   OH214992   3.473   0.699   0.498
 5016TIP3    H114993   3.481   0.741   0.412
 5016TIP3    H214994   3.427   0.617   0.480
 5017TIP3   OH214995   8.216   7.631   5.173
 5017TIP3    H114996   8.222   7.539   5.197
 5017TIP3    H214997   8.249   7.635   5.083
 5018TIP3   OH214998   7.734   5.163   5.891
 5018TIP3    H114999   7.748   5.094   5.826
 5018TIP3    H215000   7.682   5.229   5.845
 5019TIP3   OH215001   3.177   6.042   6.272
 5019TIP3    H115002   3.081   6.045   6.266
 5019TIP3    H215003   3.202   6.130   6.300
 5020TIP3   OH215004   5.246   2.002   4.474
 5020TIP3    H115005   5.256   1.907   4.474
 5020TIP3    H215006   5.183   2.020   4.405
 5021TIP3   OH215007   0.694   2.990   6.344
 5021TIP3    H115008   0.706   3.036   6.261
 5021TIP3    H215009   0.765   3.021   6.400
 5022TIP3   OH215010   4.276   1.430   6.460
 5022TIP3    H115011   4.226   1.459   6.383
 5022TIP3    H215012   4.356   1.481   6.457
 5023TIP3   OH215013   3.885   6.201   2.606
 5023TIP3    H115014   3.895   6.115   2.565
 5023TIP3    H215015   3.793   6.206   2.630
 5024TIP3   OH215016   6.683   2.717   6.528
 5024TIP3    H115017   6.772   2.742   6.504
 5024TIP3    H215018   6.646   2.797   6.568
 5025TIP3   OH215019   3.655   6.660   0.100
 5025TIP3    H115020   3.748   6.651   0.077
 5025TIP3    H215021   3.646   6.611   0.181
 5026TIP3   OH215022   6.445   1.235   0.348
 5026TIP3    H115023   6.533   1.247   0.385
 5026TIP3    H215024   6.435   1.308   0.287
 5027TIP3   OH215025   0.567   3.882   2.449
 5027TIP3    H115026   0.627   3.844   2.385
 5027TIP3    H215027   0.624   3.924   2.514
 5028TIP3   OH215028   8.218   5.979   0.593
 5028TIP3    H115029   8.287   6.041   0.616
 5028TIP3    H215030   8.246   5.942   0.509
 5029TIP3   OH215031   8.089   4.669   1.739
 5029TIP3    H115032   8.101   4.764   1.735
 5029TIP3    H215033   8.133   4.636   1.661
 5030TIP3   OH215034   3.900   5.494   2.670
 5030TIP3    H115035   3.871   5.403   2.684
 5030TIP3    H215036   3.835   5.530   2.609
 5031TIP3   OH215037   0.639   2.378   2.052
 5031TIP3    H115038   0.605   2.404   1.967
 5031TIP3    H215039   0.731   2.357   2.036
 5032TIP3   OH215040   1.826   3.180   3.487
 5032TIP3    H115041   1.732   3.189   3.477
 5032TIP3    H215042   1.839   3.157   3.579
 5033TIP3   OH215043   7.102   2.476   5.390
 5033TIP3    H115044   7.188   2.434   5.395
 5033TIP3    H215045   7.055   2.443   5.467
 5034TIP3   OH215046   2.495   4.166   5.743
 5034TIP3    H115047   2.480   4.259   5.728
 5034TIP3    H215048   2.410   4.132   5.772
 5035TIP3   OH215049   2.976   4.889   5.159
 5035TIP3    H115050   3.067   4.901   5.185
 5035TIP3    H215051   2.973   4.913   5.066
 5036TIP3   OH215052   4.897   0.870   2.194
 5036TIP3    H115053   4.873   0.782   2.222
 5036TIP3    H215054   4.912   0.863   2.100
 5037TIP3   OH215055   3.679   1.934   2.505
 5037TIP3    H115056   3.591   1.972   2.505
 5037TIP3    H215057   3.737   2.010   2.508
 5038TIP3   OH215058   5.984   3.967   5.996
 5038TIP3    H115059   5.934   4.029   6.049
 5038TIP3    H215060   5.942   3.970   5.909
 5039TIP3   OH215061   1.899   0.154   5.383
 5039TIP3    H115062   1.925   0.080   5.437
 5039TIP3    H215063   1.839   0.117   5.318
 5040TIP3   OH215064   5.433   0.807   3.423
 5040TIP3    H115065   5.433   0.781   3.331
 5040TIP3    H215066   5.519   0.781   3.456
 5041TIP3   OH215067   0.394   0.537   3.740
 5041TIP3    H115068   0.486   0.515   3.756
 5041TIP3    H215069   0.372   0.598   3.810
 5042TIP3   OH215070   3.761   3.544   6.395
 5042TIP3    H115071   3.778   3.591   6.314
 5042TIP3    H215072   3.758   3.452   6.370
 5043TIP3   OH215073   4.013   6.910   1.512
 5043TIP3    H115074   4.048   6.998   1.523
 5043TIP3    H215075   3.919   6.922   1.506
 5044TIP3   OH215076   1.960   4.633   0.473
 5044TIP3    H115077   1.895   4.609   0.540
 5044TIP3    H215078   1.954   4.563   0.408
 5045TIP3   OH215079   3.936   7.606   0.079
 5045TIP3    H115080   3.856   7.562   0.051
 5045TIP3    H215081   3.906   7.682   0.128
 5046TIP3   OH215082   8.193   3.001   0.743
 5046TIP3    H115083   8.115   3.052   0.764
 5046TIP3    H215084   8.171   2.911   0.768
 5047TIP3   OH215085   6.462   4.722   4.268
 5047TIP3    H115086   6.444   4.663   4.341
 5047TIP3    H215087   6.510   4.669   4.205
 5048TIP3   OH215088   8.065   1.085   3.050
 5048TIP3    H115089   8.018   1.107   2.969
 5048TIP3    H215090   8.156   1.107   3.031
 5049TIP3   OH215091   1.285   0.246   2.708
 5049TIP3    H115092   1.295   0.340   2.726
 5049TIP3    H215093   1.271   0.207   2.794
 5050TIP3   OH215094   0.975   2.734   0.675
 5050TIP3    H115095   0.899   2.789   0.656
 5050TIP3    H215096   0.982   2.677   0.598
 5051TIP3   OH215097   4.127   6.213   3.385
 5051TIP3    H115098   4.211   6.225   3.429
 5051TIP3    H215099   4.102   6.300   3.355
 5052TIP3   OH215100   3.385   0.177   4.661
 5052TIP3    H115101   3.340   0.094   4.648
 5052TIP3    H215102   3.317   0.237   4.692
 5053TIP3   OH215103   8.046   2.294   4.364
 5053TIP3    H115104   8.036   2.329   4.276
 5053TIP3    H215105   8.049   2.372   4.420
 5054TIP3   OH215106   3.940   2.361   6.570
 5054TIP3    H115107   4.002   2.340   6.500
 5054TIP3    H215108   3.963   2.301   6.641
 5055TIP3   OH215109   4.200   0.360   5.530
 5055TIP3    H115110   4.242   0.275   5.548
 5055TIP3    H215111   4.271   0.414   5.496
 5056TIP3   OH215112   0.621   3.206   2.329
 5056TIP3    H115113   0.639   3.162   2.412
 5056TIP3    H215114   0.645   3.298   2.346
 5057TIP3   OH215115   0.443   4.225   5.841
 5057TIP3    H115116   0.534   4.202   5.825
 5057TIP3    H215117   0.422   4.289   5.773
 5058TIP3   OH215118   6.503   1.593   1.940
 5058TIP3    H115119   6.584   1.543   1.924
 5058TIP3    H215120   6.437   1.526   1.959
 5059TIP3   OH215121   6.149   4.752   3.390
 5059TIP3    H115122   6.217   4.709   3.338
 5059TIP3    H215123   6.109   4.681   3.441
 5060TIP3   OH215124   2.727   2.965   6.604
 5060TIP3    H115125   2.822   2.958   6.595
 5060TIP3    H215126   2.714   3.045   6.655
 5061TIP3   OH215127   0.857   2.488   3.071
 5061TIP3    H115128   0.872   2.539   3.151
 5061TIP3    H215129   0.764   2.502   3.051
 5062TIP3   OH215130   5.794   1.335   1.910
 5062TIP3    H115131   5.845   1.328   1.829
 5062TIP3    H215132   5.731   1.405   1.893
 5063TIP3   OH215133   4.939   0.307   4.477
 5063TIP3    H115134   4.993   0.229   4.466
 5063TIP3    H215135   4.857   0.275   4.514
 5064TIP3   OH215136   2.702   5.276   2.242
 5064TIP3    H115137   2.626   5.332   2.224
 5064TIP3    H215138   2.734   5.305   2.328
 5065TIP3   OH215139   3.518   4.740   2.246
 5065TIP3    H115140   3.604   4.773   2.221
 5065TIP3    H215141   3.464   4.819   2.259
 5066TIP3   OH215142   7.452   7.231   4.169
 5066TIP3    H115143   7.500   7.289   4.111
 5066TIP3    H215144   7.488   7.250   4.256
 5067TIP3   OH215145   6.493   7.202   4.142
 5067TIP3    H115146   6.463   7.282   4.097
 5067TIP3    H215147   6.586   7.197   4.123
 5068TIP3   OH215148   8.265   2.076   5.678
 5068TIP3    H115149   8.184   2.032   5.651
 5068TIP3    H215150   8.334   2.027   5.635
 5069TIP3   OH215151   2.618   6.910   6.371
 5069TIP3    H115152   2.636   6.966   6.447
 5069TIP3    H215153   2.559   6.963   6.317
 5070TIP3   OH215154   5.431   1.066   0.702
 5070TIP3    H115155   5.364   1.134   0.711
 5070TIP3    H215156   5.488   1.098   0.632
 5071TIP3   OH215157   5.571   2.398   4.997
 5071TIP3    H115158   5.568   2.444   5.081
 5071TIP3    H215159   5.629   2.451   4.943
 5072TIP3   OH215160   3.848   1.404   0.408
 5072TIP3    H115161   3.924   1.451   0.442
 5072TIP3    H215162   3.799   1.379   0.486
 5073TIP3   OH215163   5.405   2.331   1.393
 5073TIP3    H115164   5.369   2.272   1.326
 5073TIP3    H215165   5.360   2.306   1.473
 5074TIP3   OH215166   6.710   4.117   4.311
 5074TIP3    H115167   6.783   4.154   4.262
 5074TIP3    H215168   6.708   4.168   4.393
 5075TIP3   OH215169   4.575   4.268   0.669
 5075TIP3    H115170   4.558   4.175   0.657
 5075TIP3    H215171   4.667   4.279   0.645
 5076TIP3   OH215172   3.589   3.099   2.365
 5076TIP3    H115173   3.645   3.040   2.314
 5076TIP3    H215174   3.646   3.132   2.435
 5077TIP3   OH215175   5.757   7.568   0.939
 5077TIP3    H115176   5.746   7.586   1.032
 5077TIP3    H215177   5.791   7.650   0.903
 5078TIP3   OH215178   0.944   7.802   1.724
 5078TIP3    H115179   0.924   7.795   1.818
 5078TIP3    H215180   0.859   7.819   1.683
 5079TIP3   OH215181   3.159   1.781   1.718
 5079TIP3    H115182   3.232   1.835   1.687
 5079TIP3    H215183   3.192   1.692   1.717
 5080TIP3   OH215184   6.685   6.313   3.801
 5080TIP3    H115185   6.606   6.352   3.763
 5080TIP3    H215186   6.716   6.252   3.733
 5081TIP3   OH215187   6.102   7.598   1.777
 5081TIP3    H115188   6.028   7.555   1.819
 5081TIP3    H215189   6.154   7.633   1.849
 5082TIP3   OH215190   4.664   3.248   1.581
 5082TIP3    H115191   4.713   3.278   1.658
 5082TIP3    H215192   4.578   3.223   1.616
 5083TIP3   OH215193   4.034   2.044   1.364
 5083TIP3    H115194   3.966   1.977   1.373
 5083TIP3    H215195   3.999   2.105   1.299
 5084TIP3   OH215196   6.991   5.903   2.208
 5084TIP3    H115197   7.008   5.816   2.172
 5084TIP3    H215198   6.924   5.889   2.274
 5085TIP3   OH215199   7.783   4.772   5.498
 5085TIP3    H115200   7.869   4.742   5.468
 5085TIP3    H215201   7.744   4.695   5.540
 5086TIP3   OH215202   1.363   6.267   0.554
 5086TIP3    H115203   1.372   6.336   0.488
 5086TIP3    H215204   1.452   6.253   0.587
 5087TIP3   OH215205   7.697   3.632   2.281
 5087TIP3    H115206   7.703   3.713   2.330
 5087TIP3    H215207   7.647   3.655   2.203
 5088TIP3   OH215208   4.895   4.492   2.796
 5088TIP3    H115209   4.965   4.538   2.750
 5088TIP3    H215210   4.826   4.480   2.731
 5089TIP3   OH215211   8.201   7.612   1.335
 5089TIP3    H115212   8.225   7.654   1.252
 5089TIP3    H215213   8.178   7.685   1.392
 5090TIP3   OH215214   5.177   1.090   5.959
 5090TIP3    H115215   5.098   1.120   6.004
 5090TIP3    H215216   5.150   1.011   5.913
 5091TIP3   OH215217   3.780   6.993   6.196
 5091TIP3    H115218   3.779   7.088   6.207
 5091TIP3    H215219   3.751   6.979   6.106
 5092TIP3   OH215220   3.367   0.887   0.657
 5092TIP3    H115221   3.382   0.798   0.627
 5092TIP3    H215222   3.335   0.934   0.580
 5093TIP3   OH215223   5.051   3.328   0.074
 5093TIP3    H115224   5.073   3.419   0.095
 5093TIP3    H215225   5.133   3.289   0.044
 5094TIP3   OH215226   3.003   2.989   2.222
 5094TIP3    H115227   3.061   2.913   2.229
 5094TIP3    H215228   2.997   3.006   2.128
 5095TIP3   OH215229   4.203   5.625   2.003
 5095TIP3    H115230   4.221   5.665   1.918
 5095TIP3    H215231   4.290   5.610   2.041
 5096TIP3   OH215232   4.709   3.031   2.847
 5096TIP3    H115233   4.689   3.022   2.940
 5096TIP3    H215234   4.768   2.959   2.827
 5097TIP3   OH215235   3.566   0.865   1.342
 5097TIP3    H115236   3.596   0.782   1.305
 5097TIP3    H215237   3.472   0.855   1.352
 5098TIP3   OH215238   2.804   3.480   2.833
 5098TIP3    H115239   2.857   3.526   2.768
 5098TIP3    H215240   2.789   3.545   2.902
 5099TIP3   OH215241   0.289   4.278   2.633
 5099TIP3    H115242   0.355   4.335   2.673
 5099TIP3    H215243   0.332   4.240   2.556
 5100TIP3   OH215244   7.591   4.051   4.113
 5100TIP3    H115245   7.572   4.022   4.024
 5100TIP3    H215246   7.651   4.125   4.101
 5101TIP3   OH215247   3.517   7.129   0.265
 5101TIP3    H115248   3.483   7.051   0.221
 5101TIP3    H215249   3.440   7.172   0.301
 5102TIP3   OH215250   1.795   3.315   6.097
 5102TIP3    H115251   1.721   3.373   6.119
 5102TIP3    H215252   1.841   3.303   6.180
 5103TIP3   OH215253   3.209   1.296   1.204
 5103TIP3    H115254   3.136   1.317   1.146
 5103TIP3    H215255   3.281   1.350   1.173
 5104TIP3   OH215256   3.186   6.006   3.063
 5104TIP3    H115257   3.092   6.014   3.046
 5104TIP3    H215258   3.196   5.920   3.102
 5105TIP3   OH215259   7.791   6.118   5.294
 5105TIP3    H115260   7.863   6.122   5.356
 5105TIP3    H215261   7.792   6.029   5.260
 5106TIP3   OH215262   6.705   2.236   2.541
 5106TIP3    H115263   6.679   2.272   2.626
 5106TIP3    H215264   6.730   2.312   2.489
 5107TIP3   OH215265   8.027   6.655   0.664
 5107TIP3    H115266   8.043   6.617   0.577
 5107TIP3    H215267   7.958   6.601   0.701
 5108TIP3   OH215268   4.855   5.368   4.063
 5108TIP3    H115269   4.867   5.305   4.134
 5108TIP3    H215270   4.882   5.321   3.985
 5109TIP3   OH215271   5.768   5.697   5.148
 5109TIP3    H115272   5.733   5.770   5.199
 5109TIP3    H215273   5.756   5.620   5.204
 5110TIP3   OH215274   0.358   2.838   1.915
 5110TIP3    H115275   0.413   2.876   1.984
 5110TIP3    H215276   0.333   2.753   1.949
 5111TIP3   OH215277   6.034   4.829   5.989
 5111TIP3    H115278   5.966   4.890   5.960
 5111TIP3    H215279   6.113   4.859   5.945
 5112TIP3   OH215280   7.995   3.719   0.737
 5112TIP3    H115281   7.913   3.767   0.748
 5112TIP3    H215282   7.973   3.647   0.678
 5113TIP3   OH215283   5.855   2.221   2.759
 5113TIP3    H115284   5.817   2.302   2.792
 5113TIP3    H215285   5.884   2.242   2.670
 5114TIP3   OH215286   6.746   4.270   0.891
 5114TIP3    H115287   6.660   4.310   0.876
 5114TIP3    H215288   6.738   4.183   0.854
 5115TIP3   OH215289   5.452   5.331   6.098
 5115TIP3    H115290   5.494   5.416   6.110
 5115TIP3    H215291   5.394   5.343   6.023
 5116TIP3   OH215292   4.292   6.165   0.022
 5116TIP3    H115293   4.259   6.107  -0.047
 5116TIP3    H215294   4.274   6.118   0.104
 5117TIP3   OH215295   7.524   2.979   5.842
 5117TIP3    H115296   7.611   2.965   5.804
 5117TIP3    H215297   7.540   2.998   5.934
 5118TIP3   OH215298   3.453   1.956   6.430
 5118TIP3    H115299   3.454   1.944   6.335
 5118TIP3    H215300   3.540   1.989   6.451
 5119TIP3   OH215301   1.694   0.524   5.956
 5119TIP3    H115302   1.618   0.473   5.929
 5119TIP3    H215303   1.672   0.615   5.934
 5120TIP3   OH215304   3.202   2.044   3.554
 5120TIP3    H115305   3.172   2.134   3.566
 5120TIP3    H215306   3.128   1.989   3.580
 5121TIP3   OH215307   7.117   0.173   4.657
 5121TIP3    H115308   7.108   0.142   4.567
 5121TIP3    H215309   7.188   0.121   4.693
 5122TIP3   OH215310   2.327   1.172   0.548
 5122TIP3    H115311   2.240   1.203   0.523
 5122TIP3    H215312   2.386   1.244   0.526
 5123TIP3   OH215313   3.752   2.728   3.881
 5123TIP3    H115314   3.749   2.641   3.841
 5123TIP3    H215315   3.743   2.788   3.808
 5124TIP3   OH215316   3.746   3.463   1.104
 5124TIP3    H115317   3.741   3.407   1.027
 5124TIP3    H215318   3.786   3.544   1.072
 5125TIP3   OH215319   2.025   6.862   6.305
 5125TIP3    H115320   1.937   6.884   6.276
 5125TIP3    H215321   2.015   6.833   6.396
 5126TIP3   OH215322   5.243   7.808   0.708
 5126TIP3    H115323   5.212   7.848   0.627
 5126TIP3    H215324   5.324   7.854   0.729
 5127TIP3   OH215325   0.263   1.200   0.116
 5127TIP3    H115326   0.216   1.207   0.199
 5127TIP3    H215327   0.346   1.246   0.132
 5128TIP3   OH215328   6.385   5.982   2.765
 5128TIP3    H115329   6.407   5.988   2.672
 5128TIP3    H215330   6.371   5.889   2.782
 5129TIP3   OH215331   5.060   7.402   4.177
 5129TIP3    H115332   5.011   7.425   4.098
 5129TIP3    H215333   5.113   7.326   4.152
 5130TIP3   OH215334   6.278   0.695   1.501
 5130TIP3    H115335   6.318   0.739   1.576
 5130TIP3    H215336   6.311   0.742   1.425
 5131TIP3   OH215337   5.683   5.080   4.269
 5131TIP3    H115338   5.664   5.018   4.339
 5131TIP3    H215339   5.599   5.096   4.227
 5132TIP3   OH215340   1.883   6.954   6.537
 5132TIP3    H115341   1.904   6.907   6.618
 5132TIP3    H215342   1.804   7.003   6.558
 5133TIP3   OH215343   0.442   7.361   3.724
 5133TIP3    H115344   0.535   7.339   3.733
 5133TIP3    H215345   0.404   7.284   3.682
 5134TIP3   OH215346   2.469   0.160   2.673
 5134TIP3    H115347   2.497   0.072   2.696
 5134TIP3    H215348   2.459   0.158   2.578
 5135TIP3   OH215349   7.833   2.043   4.401
 5135TIP3    H115350   7.880   2.060   4.482
 5135TIP3    H215351   7.750   2.090   4.411
 5136TIP3   OH215352   4.384   7.210   3.195
 5136TIP3    H115353   4.330   7.276   3.150
 5136TIP3    H215354   4.338   7.193   3.277
 5137TIP3   OH215355   1.188   2.239   2.043
 5137TIP3    H115356   1.239   2.220   1.965
 5137TIP3    H215357   1.176   2.154   2.086
 5138TIP3   OH215358   4.012   6.328   4.986
 5138TIP3    H115359   3.966   6.336   4.903
 5138TIP3    H215360   4.104   6.319   4.962
 5139TIP3   OH215361   6.225   5.153   2.040
 5139TIP3    H115362   6.263   5.241   2.031
 5139TIP3    H215363   6.266   5.117   2.118
 5140TIP3   OH215364   4.644   2.061   2.875
 5140TIP3    H115365   4.589   2.113   2.815
 5140TIP3    H215366   4.591   2.052   2.954
 5141TIP3   OH215367   5.581   5.317   3.034
 5141TIP3    H115368   5.628   5.347   2.956
 5141TIP3    H215369   5.549   5.398   3.075
 5142TIP3   OH215370   4.934   1.641   2.568
 5142TIP3    H115371   4.974   1.714   2.615
 5142TIP3    H215372   4.859   1.680   2.522
 5143TIP3   OH215373   7.968   5.235   1.422
 5143TIP3    H115374   7.950   5.321   1.459
 5143TIP3    H215375   7.930   5.238   1.333
 5144TIP3   OH215376   7.032   3.110   5.063
 5144TIP3    H115377   7.058   3.099   5.154
 5144TIP3    H215378   7.065   3.196   5.038
 5145TIP3   OH215379   5.407   4.558   3.530
 5145TIP3    H115380   5.325   4.602   3.551
 5145TIP3    H215381   5.380   4.478   3.484
 5146TIP3   OH215382   1.698   5.312   6.699
 5146TIP3    H115383   1.780   5.361   6.711
 5146TIP3    H215384   1.725   5.234   6.651
 5147TIP3   OH215385   1.620   7.752   1.950
 5147TIP3    H115386   1.693   7.697   1.921
 5147TIP3    H215387   1.591   7.798   1.871
 5148TIP3   OH215388   6.778   4.401   6.371
 5148TIP3    H115389   6.753   4.437   6.286
 5148TIP3    H215390   6.718   4.443   6.434
 5149TIP3   OH215391   8.248   0.588   0.647
 5149TIP3    H115392   8.275   0.632   0.566
 5149TIP3    H215393   8.161   0.625   0.666
 5150TIP3   OH215394   7.827   5.654   0.784
 5150TIP3    H115395   7.889   5.717   0.748
 5150TIP3    H215396   7.842   5.657   0.878
 5151TIP3   OH215397   3.490   3.743   0.418
 5151TIP3    H115398   3.514   3.666   0.469
 5151TIP3    H215399   3.415   3.780   0.464
 5152TIP3   OH215400   4.908   0.486   0.459
 5152TIP3    H115401   4.841   0.477   0.392
 5152TIP3    H215402   4.959   0.563   0.433
 5153TIP3   OH215403   0.309   3.673   6.522
 5153TIP3    H115404   0.228   3.637   6.486
 5153TIP3    H215405   0.358   3.703   6.445
 5154TIP3   OH215406   2.380   2.840   3.845
 5154TIP3    H115407   2.338   2.887   3.773
 5154TIP3    H215408   2.446   2.901   3.879
 5155TIP3   OH215409   6.838   7.818   4.602
 5155TIP3    H115410   6.889   7.739   4.620
 5155TIP3    H215411   6.776   7.792   4.533
 5156TIP3   OH215412   3.414   1.878   0.838
 5156TIP3    H115413   3.465   1.797   0.832
 5156TIP3    H215414   3.343   1.866   0.774
 5157TIP3   OH215415   1.000   1.601   5.193
 5157TIP3    H115416   1.035   1.515   5.171
 5157TIP3    H215417   1.046   1.661   5.135
 5158TIP3   OH215418   0.712   2.147   6.567
 5158TIP3    H115419   0.721   2.205   6.490
 5158TIP3    H215420   0.662   2.073   6.535
 5159TIP3   OH215421   6.967   0.808   2.243
 5159TIP3    H115422   6.994   0.826   2.153
 5159TIP3    H215423   7.031   0.744   2.274
 5160TIP3   OH215424   0.315   3.460   3.895
 5160TIP3    H115425   0.274   3.547   3.895
 5160TIP3    H215426   0.360   3.454   3.979
 5161TIP3   OH215427   6.922   5.450   1.274
 5161TIP3    H115428   6.856   5.507   1.234
 5161TIP3    H215429   6.946   5.495   1.355
 5162TIP3   OH215430   1.336   2.783   1.840
 5162TIP3    H115431   1.352   2.688   1.836
 5162TIP3    H215432   1.366   2.815   1.755
 5163TIP3   OH215433   4.362   1.782   0.300
 5163TIP3    H115434   4.364   1.735   0.216
 5163TIP3    H215435   4.453   1.810   0.313
 5164TIP3   OH215436   0.927   0.037   5.388
 5164TIP3    H115437   0.917   0.116   5.333
 5164TIP3    H215438   0.906  -0.035   5.329
 5165TIP3   OH215439   0.807   0.961   5.384
 5165TIP3    H115440   0.718   0.981   5.354
 5165TIP3    H215441   0.857   1.041   5.366
 5166TIP3   OH215442   1.132   1.413   1.915
 5166TIP3    H115443   1.084   1.374   1.988
 5166TIP3    H215444   1.166   1.338   1.866
 5167TIP3   OH215445   6.786   2.412   1.479
 5167TIP3    H115446   6.881   2.417   1.477
 5167TIP3    H215447   6.766   2.345   1.544
 5168TIP3   OH215448   2.852   6.895   2.095
 5168TIP3    H115449   2.947   6.885   2.103
 5168TIP3    H215450   2.825   6.820   2.042
 5169TIP3   OH215451   4.722   6.923   6.121
 5169TIP3    H115452   4.638   6.941   6.164
 5169TIP3    H215453   4.701   6.921   6.028
 5170TIP3   OH215454   7.592   6.297   2.406
 5170TIP3    H115455   7.604   6.253   2.490
 5170TIP3    H215456   7.660   6.260   2.350
 5171TIP3   OH215457   7.267   6.043   0.997
 5171TIP3    H115458   7.196   5.982   0.977
 5171TIP3    H215459   7.224   6.118   1.037
 5172TIP3   OH215460   6.869   2.878   2.689
 5172TIP3    H115461   6.911   2.917   2.766
 5172TIP3    H215462   6.826   2.952   2.645
 5173TIP3   OH215463   7.496   6.704   2.340
 5173TIP3    H115464   7.586   6.727   2.318
 5173TIP3    H215465   7.464   6.777   2.392
 5174TIP3   OH215466   5.220   4.474   2.101
 5174TIP3    H115467   5.169   4.439   2.029
 5174TIP3    H215468   5.287   4.529   2.060
 5175TIP3   OH215469   3.246   3.281   1.880
 5175TIP3    H115470   3.270   3.320   1.964
 5175TIP3    H215471   3.151   3.289   1.875
 5176TIP3   OH215472   4.443   2.997   6.064
 5176TIP3    H115473   4.489   2.922   6.101
 5176TIP3    H215474   4.414   3.048   6.140
 5177TIP3   OH215475   1.552   6.669   5.090
 5177TIP3    H115476   1.482   6.630   5.142
 5177TIP3    H215477   1.623   6.604   5.095
 5178TIP3   OH215478   0.975   6.004   5.738
 5178TIP3    H115479   0.999   5.919   5.702
 5178TIP3    H215480   1.059   6.045   5.759
 5179TIP3   OH215481   2.796   6.054   5.651
 5179TIP3    H115482   2.881   6.013   5.664
 5179TIP3    H215483   2.806   6.143   5.685
 5180TIP3   OH215484   3.356   2.193   0.119
 5180TIP3    H115485   3.362   2.237   0.035
 5180TIP3    H215486   3.262   2.185   0.135
 5181TIP3   OH215487   4.973   1.003   0.787
 5181TIP3    H115488   5.047   1.023   0.844
 5181TIP3    H215489   5.014   0.974   0.705
 5182TIP3   OH215490   7.988   4.301   3.507
 5182TIP3    H115491   7.968   4.305   3.413
 5182TIP3    H215492   7.907   4.331   3.549
 5183TIP3   OH215493   8.007   0.808   5.214
 5183TIP3    H115494   8.007   0.886   5.158
 5183TIP3    H215495   8.047   0.836   5.296
 5184TIP3   OH215496   2.466   0.774   3.491
 5184TIP3    H115497   2.540   0.714   3.480
 5184TIP3    H215498   2.397   0.720   3.530
 5185TIP3   OH215499   2.362   7.452   0.256
 5185TIP3    H115500   2.332   7.414   0.339
 5185TIP3    H215501   2.457   7.464   0.268
 5186TIP3   OH215502   6.165   3.283   5.810
 5186TIP3    H115503   6.121   3.367   5.821
 5186TIP3    H215504   6.249   3.305   5.771
 5187TIP3   OH215505   4.710   1.843   1.382
 5187TIP3    H115506   4.718   1.880   1.294
 5187TIP3    H215507   4.730   1.916   1.440
 5188TIP3   OH215508   1.111   7.560   4.244
 5188TIP3    H115509   1.132   7.511   4.164
 5188TIP3    H215510   1.145   7.506   4.315
 5189TIP3   OH215511   0.530   4.718   0.380
 5189TIP3    H115512   0.596   4.763   0.327
 5189TIP3    H215513   0.537   4.759   0.466
 5190TIP3   OH215514   1.589   3.368   3.428
 5190TIP3    H115515   1.552   3.280   3.440
 5190TIP3    H215516   1.601   3.402   3.516
 5191TIP3   OH215517   6.999   7.498   6.106
 5191TIP3    H115518   6.979   7.515   6.014
 5191TIP3    H215519   6.930   7.544   6.155
 5192TIP3   OH215520   1.958   4.978   4.415
 5192TIP3    H115521   1.983   4.923   4.340
 5192TIP3    H215522   2.041   5.017   4.444
 5193TIP3   OH215523   7.043   1.124   4.477
 5193TIP3    H115524   7.069   1.177   4.402
 5193TIP3    H215525   7.061   1.034   4.450
 5194TIP3   OH215526   1.108   5.599   0.793
 5194TIP3    H115527   1.026   5.648   0.787
 5194TIP3    H215528   1.102   5.554   0.877
 5195TIP3   OH215529   1.812   7.355   3.270
 5195TIP3    H115530   1.907   7.363   3.284
 5195TIP3    H215531   1.804   7.289   3.201
 5196TIP3   OH215532   6.120   2.919   5.375
 5196TIP3    H115533   6.101   2.921   5.469
 5196TIP3    H215534   6.206   2.877   5.368
 5197TIP3   OH215535   4.835   6.967   1.412
 5197TIP3    H115536   4.827   6.939   1.503
 5197TIP3    H215537   4.787   7.049   1.407
 5198TIP3   OH215538   7.624   6.213   0.006
 5198TIP3    H115539   7.573   6.195   0.085
 5198TIP3    H215540   7.716   6.206   0.035
 5199TIP3   OH215541   2.148   0.272   4.553
 5199TIP3    H115542   2.182   0.213   4.621
 5199TIP3    H215543   2.142   0.357   4.596
 5200TIP3   OH215544   3.529   6.051   1.626
 5200TIP3    H115545   3.525   6.143   1.601
 5200TIP3    H215546   3.440   6.030   1.653
 5201TIP3   OH215547   1.863   6.840   1.453
 5201TIP3    H115548   1.822   6.779   1.392
 5201TIP3    H215549   1.822   6.821   1.538
 5202TIP3   OH215550   4.079   2.406   2.042
 5202TIP3    H115551   4.148   2.396   1.977
 5202TIP3    H215552   4.072   2.500   2.056
 5203TIP3   OH215553   2.726   7.754   5.187
 5203TIP3    H115554   2.652   7.798   5.230
 5203TIP3    H215555   2.710   7.766   5.093
 5204TIP3   OH215556   4.110   1.283   3.024
 5204TIP3    H115557   4.136   1.252   2.938
 5204TIP3    H215558   4.042   1.348   3.007
 5205TIP3   OH215559   2.700   6.402   6.290
 5205TIP3    H115560   2.701   6.373   6.199
 5205TIP3    H215561   2.715   6.497   6.285
 5206TIP3   OH215562   4.276   2.432   2.229
 5206TIP3    H115563   4.338   2.368   2.193
 5206TIP3    H215564   4.193   2.411   2.186
 5207TIP3   OH215565   6.752   0.775   3.079
 5207TIP3    H115566   6.826   0.715   3.081
 5207TIP3    H215567   6.749   0.808   2.990
 5208TIP3   OH215568   2.884   0.461   2.318
 5208TIP3    H115569   2.875   0.520   2.393
 5208TIP3    H215570   2.861   0.375   2.352
 5209TIP3   OH215571   0.315   7.099   3.659
 5209TIP3    H115572   0.231   7.117   3.701
 5209TIP3    H215573   0.317   7.004   3.649
 5210TIP3   OH215574   7.780   4.926   3.780
 5210TIP3    H115575   7.866   4.903   3.745
 5210TIP3    H215576   7.778   5.021   3.779
 5211TIP3   OH215577   2.293   6.919   5.970
 5211TIP3    H115578   2.213   6.866   5.966
 5211TIP3    H215579   2.285   6.979   5.895
 5212TIP3   OH215580   2.859   6.379   3.941
 5212TIP3    H115581   2.885   6.351   3.854
 5212TIP3    H215582   2.933   6.358   3.997
 5213TIP3   OH215583   5.613   3.410   1.088
 5213TIP3    H115584   5.583   3.501   1.089
 5213TIP3    H215585   5.688   3.410   1.147
 5214TIP3   OH215586   3.200   1.563   6.494
 5214TIP3    H115587   3.151   1.572   6.412
 5214TIP3    H215588   3.270   1.502   6.473
 5215TIP3   OH215589   5.046   3.580   2.344
 5215TIP3    H115590   5.132   3.542   2.329
 5215TIP3    H215591   5.050   3.665   2.300
 5216TIP3   OH215592   1.144   3.828   4.544
 5216TIP3    H115593   1.162   3.920   4.523
 5216TIP3    H215594   1.186   3.779   4.473
 5217TIP3   OH215595   3.724   0.282   3.352
 5217TIP3    H115596   3.669   0.346   3.397
 5217TIP3    H215597   3.805   0.279   3.403
 5218TIP3   OH215598   6.733   6.778   3.448
 5218TIP3    H115599   6.748   6.813   3.360
 5218TIP3    H215600   6.792   6.703   3.454
 5219TIP3   OH215601   0.922   7.030   3.051
 5219TIP3    H115602   0.891   7.120   3.056
 5219TIP3    H215603   0.845   6.976   3.069
 5220TIP3   OH215604   2.324   4.578   2.755
 5220TIP3    H115605   2.259   4.534   2.702
 5220TIP3    H215606   2.274   4.625   2.821
 5221TIP3   OH215607   2.448   5.495   2.358
 5221TIP3    H115608   2.429   5.451   2.441
 5221TIP3    H215609   2.485   5.580   2.383
 5222TIP3   OH215610   8.183   3.842   5.123
 5222TIP3    H115611   8.247   3.898   5.168
 5222TIP3    H215612   8.162   3.890   5.043
 5223TIP3   OH215613   5.521   4.161   3.010
 5223TIP3    H115614   5.533   4.251   3.042
 5223TIP3    H215615   5.432   4.160   2.974
 5224TIP3   OH215616   4.706   7.363   3.786
 5224TIP3    H115617   4.682   7.446   3.827
 5224TIP3    H215618   4.656   7.362   3.704
 5225TIP3   OH215619   5.997   2.028   4.228
 5225TIP3    H115620   6.018   2.098   4.289
 5225TIP3    H215621   5.962   1.958   4.282
 5226TIP3   OH215622   7.756   2.290   0.330
 5226TIP3    H115623   7.759   2.231   0.255
 5226TIP3    H215624   7.672   2.272   0.372
 5227TIP3   OH215625   2.964   0.919   0.742
 5227TIP3    H115626   3.050   0.884   0.716
 5227TIP3    H215627   2.919   0.936   0.659
 5228TIP3   OH215628   0.471   3.806   4.569
 5228TIP3    H115629   0.481   3.783   4.477
 5228TIP3    H215630   0.377   3.796   4.586
 5229TIP3   OH215631   0.978   3.399   1.539
 5229TIP3    H115632   1.026   3.323   1.572
 5229TIP3    H215633   1.011   3.472   1.592
 5230TIP3   OH215634   7.193   0.381   4.792
 5230TIP3    H115635   7.285   0.358   4.800
 5230TIP3    H215636   7.155   0.312   4.738
 5231TIP3   OH215637   5.588   4.081   6.224
 5231TIP3    H115638   5.657   4.016   6.237
 5231TIP3    H215639   5.574   4.083   6.130
 5232TIP3   OH215640   3.077   2.686   5.860
 5232TIP3    H115641   3.092   2.715   5.770
 5232TIP3    H215642   3.153   2.631   5.880
 5233TIP3   OH215643   4.888   6.714   5.224
 5233TIP3    H115644   4.876   6.653   5.151
 5233TIP3    H215645   4.962   6.679   5.273
 5234TIP3   OH215646   2.290   1.032   1.725
 5234TIP3    H115647   2.383   1.031   1.703
 5234TIP3    H215648   2.250   0.972   1.662
 5235TIP3   OH215649   5.490   6.036   5.995
 5235TIP3    H115650   5.542   6.115   6.006
 5235TIP3    H215651   5.400   6.064   6.011
 5236TIP3   OH215652   5.251   1.249   4.371
 5236TIP3    H115653   5.254   1.334   4.415
 5236TIP3    H215654   5.191   1.197   4.424
 5237TIP3   OH215655   3.374   7.005   1.708
 5237TIP3    H115656   3.405   6.946   1.639
 5237TIP3    H215657   3.453   7.026   1.758
 5238TIP3   OH215658   3.636   1.628   0.607
 5238TIP3    H115659   3.689   1.603   0.683
 5238TIP3    H215660   3.697   1.674   0.550
 5239TIP3   OH215661   2.259   2.557   5.468
 5239TIP3    H115662   2.304   2.525   5.547
 5239TIP3    H215663   2.226   2.643   5.494
 5240TIP3   OH215664   0.895   6.752   2.734
 5240TIP3    H115665   0.857   6.816   2.795
 5240TIP3    H215666   0.949   6.805   2.675
 5241TIP3   OH215667   4.608   3.034   0.573
 5241TIP3    H115668   4.655   2.973   0.630
 5241TIP3    H215669   4.673   3.066   0.511
 5242TIP3   OH215670   1.861   0.374   0.192
 5242TIP3    H115671   1.844   0.465   0.218
 5242TIP3    H215672   1.929   0.344   0.252
 5243TIP3   OH215673   1.799   4.055   4.347
 5243TIP3    H115674   1.746   3.982   4.314
 5243TIP3    H215675   1.862   4.015   4.406
 5244TIP3   OH215676   0.585   2.922   3.176
 5244TIP3    H115677   0.548   2.866   3.108
 5244TIP3    H215678   0.551   2.888   3.258
 5245TIP3   OH215679   4.732   3.218   4.143
 5245TIP3    H115680   4.732   3.176   4.229
 5245TIP3    H215681   4.824   3.224   4.119
 5246TIP3   OH215682   0.651   0.571   3.297
 5246TIP3    H115683   0.638   0.666   3.308
 5246TIP3    H215684   0.563   0.537   3.279
 5247TIP3   OH215685   5.060   0.507   3.970
 5247TIP3    H115686   5.139   0.520   4.023
 5247TIP3    H215687   5.052   0.586   3.917
 5248TIP3   OH215688   0.997   0.848   4.167
 5248TIP3    H115689   1.075   0.883   4.125
 5248TIP3    H215690   0.927   0.907   4.141
 5249TIP3   OH215691   1.293   6.932   6.590
 5249TIP3    H115692   1.298   6.932   6.686
 5249TIP3    H215693   1.209   6.892   6.570
 5250TIP3   OH215694   6.985   3.439   2.841
 5250TIP3    H115695   7.062   3.492   2.819
 5250TIP3    H215696   7.016   3.375   2.904
 5251TIP3   OH215697   7.555   3.992   0.357
 5251TIP3    H115698   7.479   4.049   0.343
 5251TIP3    H215699   7.630   4.051   0.357
 5252TIP3   OH215700   4.089   2.280   2.434
 5252TIP3    H115701   4.073   2.254   2.525
 5252TIP3    H215702   4.184   2.277   2.425
 5253TIP3   OH215703   4.519   2.072   1.179
 5253TIP3    H115704   4.500   2.142   1.117
 5253TIP3    H215705   4.563   2.115   1.252
 5254TIP3   OH215706   0.428   1.415   5.160
 5254TIP3    H115707   0.518   1.417   5.128
 5254TIP3    H215708   0.433   1.450   5.249
 5255TIP3   OH215709   6.753   2.224   1.662
 5255TIP3    H115710   6.818   2.237   1.731
 5255TIP3    H215711   6.704   2.146   1.689
 5256TIP3   OH215712   3.174   5.455   3.402
 5256TIP3    H115713   3.149   5.467   3.493
 5256TIP3    H215714   3.094   5.473   3.352
 5257TIP3   OH215715   7.006   1.785   1.755
 5257TIP3    H115716   7.052   1.847   1.698
 5257TIP3    H215717   7.077   1.737   1.799
 5258TIP3   OH215718   3.575   6.869   6.369
 5258TIP3    H115719   3.647   6.850   6.308
 5258TIP3    H215720   3.531   6.785   6.381
 5259TIP3   OH215721   7.629   6.871   5.991
 5259TIP3    H115722   7.619   6.777   5.979
 5259TIP3    H215723   7.714   6.881   6.034
 5260TIP3   OH215724   4.103   1.364   0.746
 5260TIP3    H115725   4.036   1.354   0.813
 5260TIP3    H215726   4.186   1.347   0.791
 5261TIP3   OH215727   4.607   6.238   5.468
 5261TIP3    H115728   4.682   6.190   5.504
 5261TIP3    H215729   4.571   6.180   5.401
 5262TIP3   OH215730   5.568   4.593   0.634
 5262TIP3    H115731   5.478   4.613   0.606
 5262TIP3    H215732   5.615   4.675   0.623
 5263TIP3   OH215733   7.784   4.313   1.817
 5263TIP3    H115734   7.878   4.329   1.819
 5263TIP3    H215735   7.756   4.345   1.731
 5264TIP3   OH215736   3.533   5.591   1.881
 5264TIP3    H115737   3.583   5.553   1.953
 5264TIP3    H215738   3.571   5.678   1.868
 5265TIP3   OH215739   0.985   2.592   3.902
 5265TIP3    H115740   0.977   2.641   3.984
 5265TIP3    H215741   0.905   2.541   3.897
 5266TIP3   OH215742   0.322   2.160   3.149
 5266TIP3    H115743   0.378   2.124   3.080
 5266TIP3    H215744   0.368   2.141   3.231
 5267TIP3   OH215745   3.233   2.912   4.172
 5267TIP3    H115746   3.312   2.876   4.211
 5267TIP3    H215747   3.161   2.868   4.217
 5268TIP3   OH215748   3.996   2.721   5.453
 5268TIP3    H115749   4.056   2.782   5.497
 5268TIP3    H215750   3.987   2.648   5.514
 5269TIP3   OH215751   3.764   5.413   5.404
 5269TIP3    H115752   3.765   5.321   5.433
 5269TIP3    H215753   3.803   5.461   5.477
 5270TIP3   OH215754   7.449   7.599   5.988
 5270TIP3    H115755   7.374   7.545   6.015
 5270TIP3    H215756   7.413   7.660   5.924
 5271TIP3   OH215757   3.583   1.004   6.491
 5271TIP3    H115758   3.557   1.021   6.400
 5271TIP3    H215759   3.588   1.091   6.531
 5272TIP3   OH215760   7.399   7.717   5.109
 5272TIP3    H115761   7.488   7.741   5.083
 5272TIP3    H215762   7.409   7.676   5.195
 5273TIP3   OH215763   6.074   5.292   0.427
 5273TIP3    H115764   6.047   5.362   0.367
 5273TIP3    H215765   5.999   5.234   0.432
 5274TIP3   OH215766   2.921   5.518   2.171
 5274TIP3    H115767   2.954   5.599   2.211
 5274TIP3    H215768   2.827   5.534   2.161
 5275TIP3   OH215769   0.849   4.368   0.378
 5275TIP3    H115770   0.882   4.455   0.357
 5275TIP3    H215771   0.755   4.373   0.365
 5276TIP3   OH215772   2.121   7.783   0.246
 5276TIP3    H115773   2.090   7.866   0.282
 5276TIP3    H215774   2.147   7.804   0.156
 5277TIP3   OH215775   3.225   5.557   6.234
 5277TIP3    H115776   3.281   5.596   6.166
 5277TIP3    H215777   3.209   5.627   6.296
 5278TIP3   OH215778   2.761   5.010   4.355
 5278TIP3    H115779   2.849   4.992   4.390
 5278TIP3    H215780   2.722   5.070   4.419
 5279TIP3   OH215781   5.985   7.046   0.447
 5279TIP3    H115782   6.010   7.062   0.538
 5279TIP3    H215783   5.982   7.133   0.407
 5280TIP3   OH215784   3.723   5.186   3.101
 5280TIP3    H115785   3.654   5.180   3.035
 5280TIP3    H215786   3.762   5.272   3.087
 5281TIP3   OH215787   6.674   6.855   2.232
 5281TIP3    H115788   6.729   6.922   2.272
 5281TIP3    H215789   6.717   6.772   2.255
 5282TIP3   OH215790   6.516   5.002   1.890
 5282TIP3    H115791   6.495   5.007   1.797
 5282TIP3    H215792   6.492   5.088   1.925
 5283TIP3   OH215793   7.137   2.668   3.669
 5283TIP3    H115794   7.180   2.698   3.589
 5283TIP3    H215795   7.045   2.658   3.644
 5284TIP3   OH215796   3.261   2.437   2.854
 5284TIP3    H115797   3.283   2.371   2.921
 5284TIP3    H215798   3.346   2.470   2.824
 5285TIP3   OH215799   0.032   4.981   3.064
 5285TIP3    H115800  -0.008   4.981   3.151
 5285TIP3    H215801   0.011   4.896   3.027
 5286TIP3   OH215802   6.692   2.925   5.037
 5286TIP3    H115803   6.608   2.881   5.047
 5286TIP3    H215804   6.719   2.944   5.127
 5287TIP3   OH215805   0.518   2.813   3.835
 5287TIP3    H115806   0.487   2.875   3.901
 5287TIP3    H215807   0.574   2.753   3.885
 5288TIP3   OH215808   5.164   3.733   3.779
 5288TIP3    H115809   5.244   3.755   3.730
 5288TIP3    H215810   5.127   3.818   3.803
 5289TIP3   OH215811   3.230   3.716   0.542
 5289TIP3    H115812   3.192   3.768   0.470
 5289TIP3    H215813   3.207   3.764   0.621
 5290TIP3   OH215814   5.013   5.445   6.079
 5290TIP3    H115815   4.933   5.395   6.097
 5290TIP3    H215816   5.008   5.464   5.985
 5291TIP3   OH215817   2.432   6.300   3.765
 5291TIP3    H115818   2.446   6.259   3.851
 5291TIP3    H215819   2.518   6.295   3.723
 5292TIP3   OH215820   4.408   7.572   2.951
 5292TIP3    H115821   4.419   7.571   2.856
 5292TIP3    H215822   4.314   7.555   2.964
 5293TIP3   OH215823   7.152   6.521   6.049
 5293TIP3    H115824   7.195   6.583   6.109
 5293TIP3    H215825   7.122   6.576   5.976
 5294TIP3   OH215826   6.103   5.223   4.437
 5294TIP3    H115827   6.063   5.185   4.359
 5294TIP3    H215828   6.119   5.148   4.495
 5295TIP3   OH215829   4.322   5.672   0.168
 5295TIP3    H115830   4.354   5.583   0.181
 5295TIP3    H215831   4.230   5.669   0.197
 5296TIP3   OH215832   2.352   3.589   1.847
 5296TIP3    H115833   2.400   3.609   1.927
 5296TIP3    H215834   2.260   3.581   1.875
 5297TIP3   OH215835   4.339   7.250   0.676
 5297TIP3    H115836   4.339   7.158   0.703
 5297TIP3    H215837   4.260   7.287   0.716
 5298TIP3   OH215838   2.972   7.361   2.739
 5298TIP3    H115839   2.968   7.446   2.695
 5298TIP3    H215840   2.890   7.318   2.714
 5299TIP3   OH215841   3.316   1.980   4.886
 5299TIP3    H115842   3.407   1.970   4.861
 5299TIP3    H215843   3.315   2.057   4.944
 5300TIP3   OH215844   6.748   2.625   4.001
 5300TIP3    H115845   6.769   2.586   4.086
 5300TIP3    H215846   6.671   2.679   4.018
 5301TIP3   OH215847   4.094   3.218   2.276
 5301TIP3    H115848   4.130   3.257   2.356
 5301TIP3    H215849   4.040   3.288   2.239
 5302TIP3   OH215850   1.654   1.893   4.385
 5302TIP3    H115851   1.619   1.887   4.296
 5302TIP3    H215852   1.733   1.945   4.376
 5303TIP3   OH215853   6.013   3.768   4.786
 5303TIP3    H115854   6.049   3.806   4.865
 5303TIP3    H215855   6.080   3.706   4.756
 5304TIP3   OH215856   5.130   5.613   1.506
 5304TIP3    H115857   5.214   5.621   1.462
 5304TIP3    H215858   5.067   5.597   1.435
 5305TIP3   OH215859   3.283   2.477   0.795
 5305TIP3    H115860   3.319   2.545   0.738
 5305TIP3    H215861   3.329   2.489   0.878
 5306TIP3   OH215862   5.886   6.144   2.971
 5306TIP3    H115863   5.936   6.100   3.039
 5306TIP3    H215864   5.805   6.172   3.015
 5307TIP3   OH215865   5.965   6.883   4.680
 5307TIP3    H115866   6.017   6.960   4.703
 5307TIP3    H215867   5.988   6.818   4.746
 5308TIP3   OH215868   5.682   6.186   3.172
 5308TIP3    H115869   5.589   6.173   3.152
 5308TIP3    H215870   5.712   6.099   3.199
 5309TIP3   OH215871   2.468   2.232   0.700
 5309TIP3    H115872   2.491   2.241   0.608
 5309TIP3    H215873   2.375   2.211   0.700
 5310TIP3   OH215874   1.466   1.508   6.079
 5310TIP3    H115875   1.545   1.534   6.127
 5310TIP3    H215876   1.416   1.589   6.071
 5311TIP3   OH215877   7.786   6.900   5.705
 5311TIP3    H115878   7.851   6.850   5.655
 5311TIP3    H215879   7.807   6.881   5.796
 5312TIP3   OH215880   5.767   1.786   3.908
 5312TIP3    H115881   5.835   1.853   3.902
 5312TIP3    H215882   5.703   1.822   3.969
 5313TIP3   OH215883   1.159   3.361   0.017
 5313TIP3    H115884   1.084   3.332   0.068
 5313TIP3    H215885   1.234   3.317   0.057
 5314TIP3   OH215886   3.285   4.217   3.405
 5314TIP3    H115887   3.373   4.232   3.370
 5314TIP3    H215888   3.281   4.123   3.420
 5315TIP3   OH215889   3.772   5.196   1.334
 5315TIP3    H115890   3.730   5.154   1.259
 5315TIP3    H215891   3.787   5.125   1.397
 5316TIP3   OH215892   1.473   4.798   6.065
 5316TIP3    H115893   1.421   4.809   5.986
 5316TIP3    H215894   1.562   4.819   6.038
 5317TIP3   OH215895   1.565   7.032   4.762
 5317TIP3    H115896   1.502   7.098   4.732
 5317TIP3    H215897   1.539   7.013   4.852
 5318TIP3   OH215898   7.269   1.192   4.891
 5318TIP3    H115899   7.359   1.173   4.863
 5318TIP3    H215900   7.279   1.260   4.958
 5319TIP3   OH215901   3.880   3.541   4.955
 5319TIP3    H115902   3.960   3.493   4.933
 5319TIP3    H215903   3.911   3.618   5.004
 5320TIP3   OH215904   8.068   3.499   4.420
 5320TIP3    H115905   8.099   3.479   4.508
 5320TIP3    H215906   8.137   3.555   4.383
 5321TIP3   OH215907   0.399   7.685   4.876
 5321TIP3    H115908   0.415   7.729   4.792
 5321TIP3    H215909   0.397   7.755   4.940
 5322TIP3   OH215910   0.139   5.918   1.654
 5322TIP3    H115911   0.183   5.834   1.641
 5322TIP3    H215912   0.211   5.979   1.673
 5323TIP3   OH215913   3.782   7.274   5.757
 5323TIP3    H115914   3.766   7.368   5.757
 5323TIP3    H215915   3.703   7.236   5.794
 5324TIP3   OH215916   2.096   3.624   1.794
 5324TIP3    H115917   2.073   3.592   1.707
 5324TIP3    H215918   2.020   3.674   1.823
 5325TIP3   OH215919   7.058   3.448   0.598
 5325TIP3    H115920   7.003   3.388   0.647
 5325TIP3    H215921   7.001   3.482   0.529
 5326TIP3   OH215922   3.507   7.501   6.525
 5326TIP3    H115923   3.582   7.444   6.544
 5326TIP3    H215924   3.545   7.589   6.521
 5327TIP3   OH215925   5.564   7.775   4.285
 5327TIP3    H115926   5.543   7.806   4.197
 5327TIP3    H215927   5.571   7.854   4.337
 5328TIP3   OH215928   4.687   7.612   5.767
 5328TIP3    H115929   4.706   7.647   5.680
 5328TIP3    H215930   4.658   7.522   5.751
 5329TIP3   OH215931   7.401   4.006   1.548
 5329TIP3    H115932   7.394   4.097   1.519
 5329TIP3    H215933   7.486   3.977   1.513
 5330TIP3   OH215934   6.436   6.225   2.062
 5330TIP3    H115935   6.434   6.296   1.997
 5330TIP3    H215936   6.527   6.225   2.094
 5331TIP3   OH215937   5.510   1.890   4.007
 5331TIP3    H115938   5.461   1.830   3.952
 5331TIP3    H215939   5.495   1.859   4.097
 5332TIP3   OH215940   4.840   0.712   5.574
 5332TIP3    H115941   4.896   0.762   5.515
 5332TIP3    H215942   4.762   0.766   5.585
 5333TIP3   OH215943   0.773   5.467   1.848
 5333TIP3    H115944   0.833   5.472   1.774
 5333TIP3    H215945   0.696   5.423   1.812
 5334TIP3   OH215946   3.805   0.883   5.165
 5334TIP3    H115947   3.881   0.886   5.107
 5334TIP3    H215948   3.740   0.830   5.118
 5335TIP3   OH215949   1.557   3.094   5.093
 5335TIP3    H115950   1.521   3.007   5.113
 5335TIP3    H215951   1.496   3.131   5.030
 5336TIP3   OH215952   5.018   2.914   2.464
 5336TIP3    H115953   4.942   2.939   2.517
 5336TIP3    H215954   5.041   2.827   2.495
 5337TIP3   OH215955   8.238   6.301   3.611
 5337TIP3    H115956   8.229   6.206   3.612
 5337TIP3    H215957   8.148   6.334   3.601
 5338TIP3   OH215958   5.284   1.961   1.627
 5338TIP3    H115959   5.321   1.940   1.541
 5338TIP3    H215960   5.346   1.924   1.690
 5339TIP3   OH215961   5.052   0.674   0.286
 5339TIP3    H115962   5.019   0.663   0.197
 5339TIP3    H215963   4.999   0.745   0.323
 5340TIP3   OH215964   1.002   0.608   1.409
 5340TIP3    H115965   0.935   0.542   1.392
 5340TIP3    H215966   1.056   0.609   1.330
 5341TIP3   OH215967   4.558   3.105   6.418
 5341TIP3    H115968   4.533   3.170   6.483
 5341TIP3    H215969   4.651   3.090   6.434
 5342TIP3   OH215970   7.966   3.055   4.042
 5342TIP3    H115971   7.876   3.069   4.014
 5342TIP3    H215972   8.019   3.086   3.968
 5343TIP3   OH215973   7.432   0.409   5.585
 5343TIP3    H115974   7.346   0.426   5.544
 5343TIP3    H215975   7.483   0.487   5.566
 5344TIP3   OH215976   5.979   3.998   1.332
 5344TIP3    H115977   6.012   4.088   1.331
 5344TIP3    H215978   5.988   3.971   1.423
 5345TIP3   OH215979   5.545   1.006   3.881
 5345TIP3    H115980   5.598   1.017   3.961
 5345TIP3    H215981   5.504   1.091   3.868
 5346TIP3   OH215982   8.166   1.761   3.836
 5346TIP3    H115983   8.177   1.779   3.929
 5346TIP3    H215984   8.255   1.754   3.802
 5347TIP3   OH215985   1.294   4.426   2.713
 5347TIP3    H115986   1.242   4.403   2.636
 5347TIP3    H215987   1.383   4.396   2.691
 5348TIP3   OH215988   3.572   0.437   6.660
 5348TIP3    H115989   3.550   0.510   6.718
 5348TIP3    H215990   3.645   0.470   6.608
 5349TIP3   OH215991   4.333   3.669   1.631
 5349TIP3    H115992   4.320   3.602   1.698
 5349TIP3    H215993   4.324   3.752   1.679
 5350TIP3   OH215994   2.104   6.852   5.425
 5350TIP3    H115995   2.115   6.830   5.517
 5350TIP3    H215996   2.112   6.947   5.421
 5351TIP3   OH215997   4.467   0.019   4.830
 5351TIP3    H115998   4.503  -0.065   4.856
 5351TIP3    H215999   4.518   0.083   4.880
 5352TIP3   OH216000   3.564   5.810   3.938
 5352TIP3    H116001   3.595   5.727   3.976
 5352TIP3    H216002   3.589   5.877   4.002
 5353TIP3   OH216003   3.260   7.780   0.477
 5353TIP3    H116004   3.221   7.865   0.496
 5353TIP3    H216005   3.224   7.721   0.543
 5354TIP3   OH216006   0.016   3.676   6.430
 5354TIP3    H116007  -0.014   3.725   6.506
 5354TIP3    H216008  -0.059   3.622   6.405
 5355TIP3   OH216009   5.277   5.002   5.063
 5355TIP3    H116010   5.238   4.951   5.135
 5355TIP3    H216011   5.207   5.009   4.998
 5356TIP3   OH216012   8.211   3.818   1.435
 5356TIP3    H116013   8.291   3.866   1.414
 5356TIP3    H216014   8.213   3.809   1.530
 5357TIP3   OH216015   0.193   3.390   0.907
 5357TIP3    H116016   0.246   3.438   0.970
 5357TIP3    H216017   0.192   3.300   0.940
 5358TIP3   OH216018   3.751   1.369   3.909
 5358TIP3    H116019   3.802   1.315   3.848
 5358TIP3    H216020   3.798   1.452   3.912
 5359TIP3   OH216021   1.528   4.933   5.605
 5359TIP3    H116022   1.588   5.007   5.601
 5359TIP3    H216023   1.575   4.866   5.653
 5360TIP3   OH216024   5.037   2.531   4.022
 5360TIP3    H116025   5.071   2.442   4.030
 5360TIP3    H216026   5.023   2.544   3.929
 5361TIP3   OH216027   4.242   0.569   2.322
 5361TIP3    H116028   4.268   0.483   2.356
 5361TIP3    H216029   4.165   0.551   2.268
 5362TIP3   OH216030   1.183   2.422   2.294
 5362TIP3    H116031   1.176   2.380   2.209
 5362TIP3    H216032   1.240   2.364   2.345
 5363TIP3   OH216033   5.232   5.005   6.767
 5363TIP3    H116034   5.288   4.973   6.838
 5363TIP3    H216035   5.268   4.964   6.688
 5364TIP3   OH216036   3.853   0.771   0.333
 5364TIP3    H116037   3.761   0.792   0.319
 5364TIP3    H216038   3.863   0.682   0.300
 5365TIP3   OH216039   1.624   3.418   2.158
 5365TIP3    H116040   1.664   3.334   2.181
 5365TIP3    H216041   1.589   3.451   2.241
 5366TIP3   OH216042   0.503   3.851   0.307
 5366TIP3    H116043   0.462   3.827   0.390
 5366TIP3    H216044   0.547   3.934   0.324
 5367TIP3   OH216045   5.761   3.237   4.875
 5367TIP3    H116046   5.837   3.295   4.865
 5367TIP3    H216047   5.717   3.239   4.790
 5368TIP3   OH216048   0.301   4.043   3.983
 5368TIP3    H116049   0.251   4.032   3.903
 5368TIP3    H216050   0.375   4.099   3.959
 5369TIP3   OH216051   7.061   7.710   0.113
 5369TIP3    H116052   7.002   7.700   0.038
 5369TIP3    H216053   7.003   7.732   0.185
 5370TIP3   OH216054   0.472   2.725   1.258
 5370TIP3    H116055   0.454   2.770   1.340
 5370TIP3    H216056   0.391   2.732   1.208
 5371TIP3   OH216057   6.381   3.038   4.222
 5371TIP3    H116058   6.462   2.996   4.250
 5371TIP3    H216059   6.316   3.013   4.288
 5372TIP3   OH216060   3.843   2.975   3.364
 5372TIP3    H116061   3.849   3.062   3.324
 5372TIP3    H216062   3.752   2.948   3.349
 5373TIP3   OH216063   2.189   7.420   5.917
 5373TIP3    H116064   2.113   7.378   5.956
 5373TIP3    H216065   2.183   7.401   5.824
 5374TIP3   OH216066   5.994   3.330   6.351
 5374TIP3    H116067   5.925   3.344   6.416
 5374TIP3    H216068   5.973   3.245   6.312
 5375TIP3   OH216069   6.848   2.146   3.696
 5375TIP3    H116070   6.899   2.220   3.729
 5375TIP3    H216071   6.913   2.078   3.680
 5376TIP3   OH216072   3.893   1.871   4.109
 5376TIP3    H116073   3.913   1.920   4.189
 5376TIP3    H216074   3.978   1.841   4.077
 5377TIP3   OH216075   1.284   7.383   1.168
 5377TIP3    H116076   1.338   7.366   1.245
 5377TIP3    H216077   1.255   7.296   1.140
 5378TIP3   OH216078   5.627   5.213   5.853
 5378TIP3    H116079   5.644   5.305   5.831
 5378TIP3    H216080   5.593   5.215   5.942
 5379TIP3   OH216081   6.117   7.785   2.488
 5379TIP3    H116082   6.153   7.797   2.576
 5379TIP3    H216083   6.027   7.755   2.502
 5380TIP3   OH216084   1.913   2.427   0.147
 5380TIP3    H116085   1.876   2.489   0.210
 5380TIP3    H216086   1.939   2.351   0.199
 5381TIP3   OH216087   1.346   5.961   3.325
 5381TIP3    H116088   1.433   5.996   3.345
 5381TIP3    H216089   1.311   5.934   3.410
 5382TIP3   OH216090   4.127   4.090   2.048
 5382TIP3    H116091   4.217   4.086   2.079
 5382TIP3    H216092   4.074   4.067   2.124
 5383TIP3   OH216093   1.748   1.440   3.030
 5383TIP3    H116094   1.776   1.510   3.088
 5383TIP3    H216095   1.784   1.464   2.944
 5384TIP3   OH216096   7.291   1.430   3.046
 5384TIP3    H116097   7.328   1.361   3.100
 5384TIP3    H216098   7.297   1.396   2.956
 5385TIP3   OH216099   0.482   2.878   6.497
 5385TIP3    H116100   0.429   2.958   6.501
 5385TIP3    H216101   0.569   2.909   6.474
 5386TIP3   OH216102   4.220   0.091   5.700
 5386TIP3    H116103   4.282   0.030   5.660
 5386TIP3    H216104   4.267   0.125   5.777
 5387TIP3   OH216105   4.817   2.807   4.965
 5387TIP3    H116106   4.805   2.893   5.007
 5387TIP3    H216107   4.737   2.794   4.915
 5388TIP3   OH216108   6.972   1.408   1.800
 5388TIP3    H116109   6.955   1.315   1.786
 5388TIP3    H216110   6.911   1.434   1.869
 5389TIP3   OH216111   7.277   7.258   2.120
 5389TIP3    H116112   7.292   7.297   2.033
 5389TIP3    H216113   7.329   7.178   2.119
 5390TIP3   OH216114   1.617   1.074   6.229
 5390TIP3    H116115   1.676   1.106   6.160
 5390TIP3    H216116   1.675   1.054   6.303
 5391TIP3   OH216117   3.385   1.178   0.566
 5391TIP3    H116118   3.427   1.259   0.536
 5391TIP3    H216119   3.363   1.196   0.658
 5392TIP3   OH216120   1.984   3.498   5.127
 5392TIP3    H116121   2.077   3.481   5.140
 5392TIP3    H216122   1.940   3.435   5.184
 5393TIP3   OH216123   3.068   1.115   4.542
 5393TIP3    H116124   3.145   1.135   4.488
 5393TIP3    H216125   3.014   1.060   4.486
 5394TIP3   OH216126   5.312   7.002   4.586
 5394TIP3    H116127   5.266   7.027   4.506
 5394TIP3    H216128   5.282   6.913   4.605
 5395TIP3   OH216129   2.459   5.359   6.389
 5395TIP3    H116130   2.532   5.418   6.367
 5395TIP3    H216131   2.494   5.271   6.373
 5396TIP3   OH216132   5.343   0.803   0.115
 5396TIP3    H116133   5.390   0.763   0.188
 5396TIP3    H216134   5.396   0.878   0.090
 5397TIP3   OH216135   2.571   1.049   1.157
 5397TIP3    H116136   2.579   1.135   1.199
 5397TIP3    H216137   2.489   1.014   1.189
 5398TIP3   OH216138   0.166   0.383   6.187
 5398TIP3    H116139   0.146   0.335   6.267
 5398TIP3    H216140   0.187   0.472   6.217
 5399TIP3   OH216141   2.910   5.734   6.261
 5399TIP3    H116142   2.902   5.649   6.304
 5399TIP3    H216143   2.995   5.768   6.291
 5400TIP3   OH216144   8.021   3.218   5.319
 5400TIP3    H116145   8.087   3.260   5.374
 5400TIP3    H216146   8.071   3.175   5.249
 5401TIP3   OH216147   4.461   0.408   2.127
 5401TIP3    H116148   4.384   0.380   2.079
 5401TIP3    H216149   4.473   0.500   2.103
 5402TIP3   OH216150   4.523   3.003   3.717
 5402TIP3    H116151   4.610   2.964   3.723
 5402TIP3    H216152   4.509   3.044   3.803
 5403TIP3   OH216153   8.054   7.475   1.523
 5403TIP3    H116154   7.971   7.475   1.477
 5403TIP3    H216155   8.113   7.526   1.467
 5404TIP3   OH216156   0.062   0.095   3.544
 5404TIP3    H116157   0.073   0.014   3.593
 5404TIP3    H216158   0.041   0.066   3.455
 5405TIP3   OH216159   7.061   1.479   4.781
 5405TIP3    H116160   7.047   1.389   4.751
 5405TIP3    H216161   7.099   1.524   4.706
 5406TIP3   OH216162   6.827   1.715   0.380
 5406TIP3    H116163   6.850   1.643   0.438
 5406TIP3    H216164   6.802   1.672   0.298
 5407TIP3   OH216165   3.872   7.456   3.007
 5407TIP3    H116166   3.825   7.390   3.057
 5407TIP3    H216167   3.831   7.455   2.921
 5408TIP3   OH216168   8.118   4.977   3.251
 5408TIP3    H116169   8.027   4.995   3.274
 5408TIP3    H216170   8.168   5.013   3.325
 5409TIP3   OH216171   6.689   0.042   1.958
 5409TIP3    H116172   6.755   0.013   1.894
 5409TIP3    H216173   6.620   0.081   1.905
 5410TIP3   OH216174   5.057   2.376   2.057
 5410TIP3    H116175   5.077   2.466   2.081
 5410TIP3    H216176   4.985   2.383   1.993
 5411TIP3   OH216177   5.539   3.673   1.055
 5411TIP3    H116178   5.469   3.701   1.114
 5411TIP3    H216179   5.615   3.725   1.081
 5412TIP3   OH216180   6.401   4.154   2.403
 5412TIP3    H116181   6.311   4.145   2.371
 5412TIP3    H216182   6.399   4.116   2.491
 5413TIP3   OH216183   5.564   7.126   4.519
 5413TIP3    H116184   5.584   7.082   4.436
 5413TIP3    H216185   5.518   7.060   4.570
 5414TIP3   OH216186   8.062   2.930   5.782
 5414TIP3    H116187   8.070   2.901   5.692
 5414TIP3    H216188   8.151   2.924   5.818
 5415TIP3   OH216189   5.523   0.122   4.080
 5415TIP3    H116190   5.566   0.207   4.086
 5415TIP3    H216191   5.582   0.061   4.123
 5416TIP3   OH216192   2.966   3.843   2.865
 5416TIP3    H116193   2.889   3.885   2.903
 5416TIP3    H216194   3.022   3.822   2.940
 5417TIP3   OH216195   2.207   5.725   5.082
 5417TIP3    H116196   2.154   5.664   5.031
 5417TIP3    H216197   2.223   5.680   5.165
 5418TIP3   OH216198   6.796   0.616   4.363
 5418TIP3    H116199   6.824   0.707   4.363
 5418TIP3    H216200   6.701   0.621   4.376
 5419TIP3   OH216201   4.046   4.935   3.452
 5419TIP3    H116202   3.976   4.913   3.515
 5419TIP3    H216203   4.101   4.997   3.499
 5420TIP3   OH216204   2.603   4.300   5.488
 5420TIP3    H116205   2.626   4.226   5.432
 5420TIP3    H216206   2.545   4.354   5.434
 5421TIP3   OH216207   0.220   4.052   0.332
 5421TIP3    H116208   0.207   4.037   0.238
 5421TIP3    H216209   0.133   4.073   0.365
 5422TIP3   OH216210   5.870   7.612   3.346
 5422TIP3    H116211   5.840   7.565   3.424
 5422TIP3    H216212   5.951   7.654   3.374
 5423TIP3   OH216213   0.127   1.716   2.286
 5423TIP3    H116214   0.160   1.670   2.363
 5423TIP3    H216215   0.198   1.775   2.260
 5424TIP3   OH216216   5.965   4.372   0.015
 5424TIP3    H116217   5.886   4.344   0.062
 5424TIP3    H216218   5.935   4.385  -0.075
 5425TIP3   OH216219   8.187   6.630   2.887
 5425TIP3    H116220   8.210   6.718   2.857
 5425TIP3    H216221   8.091   6.629   2.887
 5426TIP3   OH216222   3.829   5.863   0.841
 5426TIP3    H116223   3.766   5.841   0.910
 5426TIP3    H216224   3.849   5.955   0.855
 5427TIP3   OH216225   0.439   3.204   0.251
 5427TIP3    H116226   0.524   3.198   0.296
 5427TIP3    H216227   0.375   3.177   0.317
 5428TIP3   OH216228   2.505   3.324   6.685
 5428TIP3    H116229   2.454   3.405   6.681
 5428TIP3    H216230   2.440   3.256   6.701
 5429TIP3   OH216231   7.824   7.266   3.668
 5429TIP3    H116232   7.798   7.312   3.747
 5429TIP3    H216233   7.757   7.287   3.604
 5430TIP3   OH216234   2.834   2.471   4.948
 5430TIP3    H116235   2.812   2.531   5.019
 5430TIP3    H216236   2.818   2.384   4.985
 5431TIP3   OH216237   3.820   3.208   5.230
 5431TIP3    H116238   3.764   3.267   5.181
 5431TIP3    H216239   3.903   3.208   5.182
 5432TIP3   OH216240   6.350   0.505   0.421
 5432TIP3    H116241   6.278   0.513   0.483
 5432TIP3    H216242   6.322   0.559   0.346
 5433TIP3   OH216243   6.450   1.058   3.400
 5433TIP3    H116244   6.356   1.037   3.400
 5433TIP3    H216245   6.486   1.007   3.327
 5434TIP3   OH216246   1.633   4.140   4.565
 5434TIP3    H116247   1.688   4.117   4.491
 5434TIP3    H216248   1.587   4.220   4.537
 5435TIP3   OH216249   0.975   0.017   4.555
 5435TIP3    H116250   1.042   0.026   4.488
 5435TIP3    H216251   0.916  -0.051   4.522
 5436TIP3   OH216252   2.787   1.114   5.763
 5436TIP3    H116253   2.787   1.061   5.683
 5436TIP3    H216254   2.750   1.056   5.830
 5437TIP3   OH216255   7.969   0.332   1.838
 5437TIP3    H116256   8.056   0.294   1.845
 5437TIP3    H216257   7.982   0.425   1.856
 5438TIP3   OH216258   4.063   6.795   1.255
 5438TIP3    H116259   4.079   6.845   1.335
 5438TIP3    H216260   4.131   6.727   1.256
 5439TIP3   OH216261   6.255   4.556   5.135
 5439TIP3    H116262   6.347   4.534   5.122
 5439TIP3    H216263   6.207   4.483   5.095
 5440TIP3   OH216264   1.979   7.717   4.722
 5440TIP3    H116265   1.928   7.780   4.672
 5440TIP3    H216266   2.001   7.648   4.659
 5441TIP3   OH216267   0.765   5.076   1.514
 5441TIP3    H116268   0.802   5.159   1.485
 5441TIP3    H216269   0.729   5.094   1.600
 5442TIP3   OH216270   5.844   7.705   4.317
 5442TIP3    H116271   5.752   7.726   4.328
 5442TIP3    H216272   5.881   7.781   4.273
 5443TIP3   OH216273   3.822   4.677   1.230
 5443TIP3    H116274   3.867   4.608   1.181
 5443TIP3    H216275   3.742   4.694   1.180
 5444TIP3   OH216276   1.549   6.619   2.884
 5444TIP3    H116277   1.487   6.602   2.813
 5444TIP3    H216278   1.625   6.657   2.840
 5445TIP3   OH216279   5.094   5.277   0.533
 5445TIP3    H116280   5.160   5.346   0.525
 5445TIP3    H216281   5.046   5.300   0.613
 5446TIP3   OH216282   1.462   6.941   1.515
 5446TIP3    H116283   1.526   7.009   1.536
 5446TIP3    H216284   1.498   6.899   1.436
 5447TIP3   OH216285   6.574   3.383   5.320
 5447TIP3    H116286   6.556   3.337   5.402
 5447TIP3    H216287   6.492   3.376   5.270
 5448TIP3   OH216288   8.266   5.381   6.399
 5448TIP3    H116289   8.320   5.459   6.382
 5448TIP3    H216290   8.267   5.371   6.494
 5449TIP3   OH216291   2.416   2.229   2.508
 5449TIP3    H116292   2.426   2.138   2.536
 5449TIP3    H216293   2.443   2.229   2.416
 5450TIP3   OH216294   4.874   6.932   5.614
 5450TIP3    H116295   4.794   6.931   5.562
 5450TIP3    H216296   4.935   6.876   5.564
 5451TIP3   OH216297   7.510   1.636   6.243
 5451TIP3    H116298   7.445   1.567   6.255
 5451TIP3    H216299   7.490   1.700   6.312
 5452TIP3   OH216300   6.378   1.457   2.850
 5452TIP3    H116301   6.428   1.381   2.881
 5452TIP3    H216302   6.407   1.529   2.906
 5453TIP3   OH216303   6.289   1.447   2.042
 5453TIP3    H116304   6.205   1.491   2.058
 5453TIP3    H216305   6.329   1.438   2.128
 5454TIP3   OH216306   3.587   1.051   6.229
 5454TIP3    H116307   3.522   1.121   6.221
 5454TIP3    H216308   3.599   1.019   6.140
 5455TIP3   OH216309   0.674   0.471   4.117
 5455TIP3    H116310   0.749   0.524   4.145
 5455TIP3    H216311   0.679   0.392   4.172
 5456TIP3   OH216312   0.048   2.377   5.549
 5456TIP3    H116313   0.064   2.368   5.643
 5456TIP3    H216314   0.087   2.299   5.510
 5457TIP3   OH216315   0.981   6.379   3.958
 5457TIP3    H116316   0.923   6.445   3.996
 5457TIP3    H216317   1.055   6.374   4.018
 5458TIP3   OH216318   3.821   1.138   0.251
 5458TIP3    H116319   3.809   1.218   0.303
 5458TIP3    H216320   3.893   1.158   0.192
 5459TIP3   OH216321   7.032   4.449   3.889
 5459TIP3    H116322   7.030   4.524   3.948
 5459TIP3    H216323   7.003   4.485   3.805
 5460TIP3   OH216324   5.685   1.269   5.575
 5460TIP3    H116325   5.780   1.277   5.585
 5460TIP3    H216326   5.664   1.187   5.620
 5461TIP3   OH216327   6.947   7.119   6.680
 5461TIP3    H116328   6.883   7.089   6.616
 5461TIP3    H216329   6.905   7.103   6.765
 5462TIP3   OH216330   5.262   7.602   6.411
 5462TIP3    H116331   5.217   7.518   6.420
 5462TIP3    H216332   5.305   7.615   6.495
 5463TIP3   OH216333   4.516   3.667   0.177
 5463TIP3    H116334   4.482   3.704   0.258
 5463TIP3    H216335   4.480   3.579   0.174
 5464TIP3   OH216336   7.993   6.469   3.628
 5464TIP3    H116337   7.907   6.430   3.610
 5464TIP3    H216338   8.023   6.500   3.543
 5465TIP3   OH216339   3.689   2.496   2.609
 5465TIP3    H116340   3.772   2.464   2.574
 5465TIP3    H216341   3.682   2.585   2.576
 5466TIP3   OH216342   2.066   7.146   5.375
 5466TIP3    H116343   1.988   7.192   5.341
 5466TIP3    H216344   2.082   7.186   5.460
 5467TIP3   OH216345   5.634   4.128   5.599
 5467TIP3    H116346   5.661   4.145   5.508
 5467TIP3    H216347   5.662   4.205   5.647
 5468TIP3   OH216348   1.046   1.333   1.256
 5468TIP3    H116349   1.025   1.421   1.286
 5468TIP3    H216350   1.012   1.329   1.167
 5469TIP3   OH216351   5.855   3.019   5.368
 5469TIP3    H116352   5.785   3.036   5.430
 5469TIP3    H216353   5.930   2.996   5.422
 5470TIP3   OH216354   3.516   1.070   5.083
 5470TIP3    H116355   3.516   1.128   5.159
 5470TIP3    H216356   3.541   1.127   5.009
 5471TIP3   OH216357   3.263   5.264   0.364
 5471TIP3    H116358   3.340   5.223   0.403
 5471TIP3    H216359   3.240   5.207   0.291
 5472TIP3   OH216360   6.857   7.302   0.910
 5472TIP3    H116361   6.839   7.353   0.831
 5472TIP3    H216362   6.943   7.264   0.895
 5473TIP3   OH216363   5.925   6.636   3.360
 5473TIP3    H116364   5.899   6.566   3.420
 5473TIP3    H216365   5.908   6.717   3.408
 5474TIP3   OH216366   4.240   0.711   2.032
 5474TIP3    H116367   4.172   0.649   2.055
 5474TIP3    H216368   4.279   0.676   1.952
 5475TIP3   OH216369   0.225   7.758   3.628
 5475TIP3    H116370   0.260   7.837   3.669
 5475TIP3    H216371   0.237   7.773   3.534
 5476TIP3   OH216372   3.851   2.769   6.770
 5476TIP3    H116373   3.765   2.755   6.810
 5476TIP3    H216374   3.836   2.760   6.676
 5477TIP3   OH216375   3.228   3.143   5.603
 5477TIP3    H116376   3.170   3.193   5.545
 5477TIP3    H216377   3.305   3.199   5.612
 5478TIP3   OH216378   2.391   4.596   5.682
 5478TIP3    H116379   2.315   4.539   5.691
 5478TIP3    H216380   2.450   4.568   5.752
 5479TIP3   OH216381   2.970   3.310   5.159
 5479TIP3    H116382   3.056   3.342   5.184
 5479TIP3    H216383   2.979   3.281   5.068
 5480TIP3   OH216384   4.752   2.278   4.242
 5480TIP3    H116385   4.761   2.364   4.281
 5480TIP3    H216386   4.760   2.292   4.148
 5481TIP3   OH216387   6.776   6.424   1.961
 5481TIP3    H116388   6.718   6.479   1.908
 5481TIP3    H216389   6.864   6.442   1.928
 5482TIP3   OH216390   3.875   7.017   1.778
 5482TIP3    H116391   3.948   7.077   1.766
 5482TIP3    H216392   3.891   6.978   1.864
 5483TIP3   OH216393   4.864   5.914   1.955
 5483TIP3    H116394   4.922   5.857   2.006
 5483TIP3    H216395   4.821   5.855   1.893
 5484TIP3   OH216396   5.893   5.440   6.595
 5484TIP3    H116397   5.822   5.377   6.601
 5484TIP3    H216398   5.853   5.517   6.555
 5485TIP3   OH216399   7.012   4.941   0.159
 5485TIP3    H116400   6.966   4.903   0.235
 5485TIP3    H216401   6.953   4.925   0.085
 5486TIP3   OH216402   5.815   2.911   6.255
 5486TIP3    H116403   5.843   2.855   6.327
 5486TIP3    H216404   5.780   2.990   6.298
 5487TIP3   OH216405   3.157   4.554   5.038
 5487TIP3    H116406   3.072   4.583   5.071
 5487TIP3    H216407   3.138   4.515   4.953
 5488TIP3   OH216408   1.626   6.678   5.597
 5488TIP3    H116409   1.564   6.694   5.668
 5488TIP3    H216410   1.663   6.764   5.578
 5489TIP3   OH216411   1.174   1.963   0.745
 5489TIP3    H116412   1.127   1.923   0.819
 5489TIP3    H216413   1.249   1.905   0.732
 5490TIP3   OH216414   1.400   3.002   4.556
 5490TIP3    H116415   1.378   2.925   4.608
 5490TIP3    H216416   1.490   2.989   4.529
 5491TIP3   OH216417   5.933   3.323   4.587
 5491TIP3    H116418   6.010   3.357   4.543
 5491TIP3    H216419   5.923   3.233   4.555
 5492TIP3   OH216420   4.858   3.350   1.758
 5492TIP3    H116421   4.934   3.304   1.794
 5492TIP3    H216422   4.896   3.427   1.714
 5493TIP3   OH216423   0.991   2.145   3.911
 5493TIP3    H116424   0.910   2.150   3.961
 5493TIP3    H216425   1.059   2.132   3.978
 5494TIP3   OH216426   4.051   4.723   1.823
 5494TIP3    H116427   3.988   4.750   1.756
 5494TIP3    H216428   4.083   4.806   1.860
 5495TIP3   OH216429   7.865   4.156   0.614
 5495TIP3    H116430   7.943   4.202   0.647
 5495TIP3    H216431   7.803   4.159   0.686
 5496TIP3   OH216432   4.627   4.228   3.402
 5496TIP3    H116433   4.697   4.242   3.338
 5496TIP3    H216434   4.672   4.210   3.484
 5497TIP3   OH216435   5.761   3.580   3.005
 5497TIP3    H116436   5.792   3.616   3.088
 5497TIP3    H216437   5.837   3.536   2.968
 5498TIP3   OH216438   7.514   1.523   1.906
 5498TIP3    H116439   7.541   1.493   1.993
 5498TIP3    H216440   7.595   1.548   1.862
 5499TIP3   OH216441   6.348   0.406   4.176
 5499TIP3    H116442   6.330   0.380   4.267
 5499TIP3    H216443   6.386   0.328   4.136
 5500TIP3   OH216444   3.069   7.626   1.669
 5500TIP3    H116445   3.133   7.555   1.664
 5500TIP3    H216446   3.107   7.696   1.616
 5501TIP3   OH216447   4.448   1.378   1.279
 5501TIP3    H116448   4.515   1.311   1.292
 5501TIP3    H216449   4.369   1.328   1.255
 5502TIP3   OH216450   5.534   1.935   1.792
 5502TIP3    H116451   5.588   1.861   1.817
 5502TIP3    H216452   5.591   2.011   1.801
 5503TIP3   OH216453   2.994   3.673   3.290
 5503TIP3    H116454   3.060   3.625   3.339
 5503TIP3    H216455   3.040   3.748   3.254
 5504TIP3   OH216456   3.582   0.819   0.951
 5504TIP3    H116457   3.617   0.735   0.980
 5504TIP3    H216458   3.510   0.838   1.011
 5505TIP3   OH216459   3.297   1.110   4.373
 5505TIP3    H116460   3.321   1.041   4.311
 5505TIP3    H216461   3.380   1.137   4.411
 5506TIP3   OH216462   5.065   1.389   1.447
 5506TIP3    H116463   5.122   1.465   1.461
 5506TIP3    H216464   4.978   1.427   1.430
 5507TIP3   OH216465   0.466   2.959   4.676
 5507TIP3    H116466   0.553   2.937   4.708
 5507TIP3    H216467   0.429   2.876   4.646
 5508TIP3   OH216468   3.052   0.259   6.087
 5508TIP3    H116469   3.048   0.355   6.095
 5508TIP3    H216470   3.055   0.243   5.993
 5509TIP3   OH216471   0.943   6.041   5.402
 5509TIP3    H116472   0.871   5.988   5.370
 5509TIP3    H216473   0.915   6.069   5.489
 5510TIP3   OH216474   1.370   1.922   0.118
 5510TIP3    H116475   1.289   1.958   0.153
 5510TIP3    H216476   1.364   1.937   0.023
 5511TIP3   OH216477   7.974   7.737   4.046
 5511TIP3    H116478   8.051   7.707   4.093
 5511TIP3    H216479   7.975   7.832   4.056
 5512TIP3   OH216480   5.376   1.271   5.985
 5512TIP3    H116481   5.315   1.197   5.980
 5512TIP3    H216482   5.374   1.297   6.077
 5513TIP3   OH216483   7.183   4.947   3.676
 5513TIP3    H116484   7.144   5.028   3.709
 5513TIP3    H216485   7.229   4.910   3.751
 5514TIP3   OH216486   4.598   1.826   1.984
 5514TIP3    H116487   4.669   1.843   2.046
 5514TIP3    H216488   4.519   1.823   2.038
 5515TIP3   OH216489   7.454   2.834   3.115
 5515TIP3    H116490   7.402   2.759   3.085
 5515TIP3    H216491   7.395   2.909   3.107
 5516TIP3   OH216492   2.881   0.744   1.826
 5516TIP3    H116493   2.822   0.711   1.894
 5516TIP3    H216494   2.942   0.671   1.810
 5517TIP3   OH216495   6.871   4.185   3.080
 5517TIP3    H116496   6.834   4.245   3.015
 5517TIP3    H216497   6.838   4.216   3.164
 5518TIP3   OH216498   2.257   1.695   1.225
 5518TIP3    H116499   2.223   1.748   1.153
 5518TIP3    H216500   2.328   1.643   1.186
 5519TIP3   OH216501   2.184   7.138   0.506
 5519TIP3    H116502   2.276   7.144   0.481
 5519TIP3    H216503   2.151   7.228   0.497
 5520TIP3   OH216504   2.195   2.082   2.518
 5520TIP3    H116505   2.255   2.072   2.591
 5520TIP3    H216506   2.236   2.149   2.462
 5521TIP3   OH216507   4.473   6.889   3.531
 5521TIP3    H116508   4.394   6.932   3.497
 5521TIP3    H216509   4.493   6.937   3.611
 5522TIP3   OH216510   8.001   3.509   5.265
 5522TIP3    H116511   7.969   3.438   5.321
 5522TIP3    H216512   8.095   3.512   5.281
 5523TIP3   OH216513   1.531   0.444   4.558
 5523TIP3    H116514   1.443   0.436   4.593
 5523TIP3    H216515   1.564   0.354   4.555
 5524TIP3   OH216516   5.349   2.949   4.388
 5524TIP3    H116517   5.399   2.904   4.319
 5524TIP3    H216518   5.318   2.878   4.444
 5525TIP3   OH216519   5.060   3.563   0.415
 5525TIP3    H116520   5.057   3.468   0.420
 5525TIP3    H216521   4.983   3.586   0.362
 5526TIP3   OH216522   4.543   4.203   2.779
 5526TIP3    H116523   4.517   4.130   2.722
 5526TIP3    H216524   4.638   4.195   2.786
 5527TIP3   OH216525   5.777   0.522   1.029
 5527TIP3    H116526   5.705   0.553   0.974
 5527TIP3    H216527   5.834   0.472   0.970
 5528TIP3   OH216528   3.751   2.573   1.332
 5528TIP3    H116529   3.713   2.493   1.368
 5528TIP3    H216530   3.844   2.567   1.353
 5529TIP3   OH216531   7.066   5.633   4.042
 5529TIP3    H116532   7.067   5.621   4.137
 5529TIP3    H216533   7.008   5.563   4.010
 5530TIP3   OH216534   5.752   6.650   6.203
 5530TIP3    H116535   5.793   6.609   6.127
 5530TIP3    H216536   5.696   6.581   6.240
 5531TIP3   OH216537   6.633   4.786   1.079
 5531TIP3    H116538   6.548   4.828   1.089
 5531TIP3    H216539   6.664   4.773   1.169
 5532TIP3   OH216540   2.872   0.665   2.623
 5532TIP3    H116541   2.926   0.677   2.545
 5532TIP3    H216542   2.935   0.650   2.694
 5533TIP3   OH216543   4.949   7.365   0.817
 5533TIP3    H116544   5.009   7.321   0.877
 5533TIP3    H216545   4.887   7.297   0.792
 5534TIP3   OH216546   2.992   4.312   3.472
 5534TIP3    H116547   3.066   4.281   3.420
 5534TIP3    H216548   3.020   4.396   3.506
 5535TIP3   OH216549   1.648   5.223   2.054
 5535TIP3    H116550   1.617   5.139   2.087
 5535TIP3    H216551   1.722   5.201   1.997
 5536TIP3   OH216552   2.953   6.520   6.050
 5536TIP3    H116553   3.033   6.496   6.096
 5536TIP3    H216554   2.942   6.614   6.067
 5537TIP3   OH216555   3.986   6.897   6.360
 5537TIP3    H116556   4.063   6.906   6.305
 5537TIP3    H216557   3.913   6.929   6.306
 5538TIP3   OH216558   1.020   3.797   0.000
 5538TIP3    H116559   0.942   3.824   0.049
 5538TIP3    H216560   1.065   3.880  -0.019
 5539TIP3   OH216561   0.316   0.046   3.185
 5539TIP3    H116562   0.304  -0.042   3.218
 5539TIP3    H216563   0.354   0.034   3.097
 5540TIP3   OH216564   2.963   3.327   0.644
 5540TIP3    H116565   2.879   3.317   0.688
 5540TIP3    H216566   2.942   3.320   0.550
 5541TIP3   OH216567   5.003   5.967   0.591
 5541TIP3    H116568   4.991   5.996   0.681
 5541TIP3    H216569   5.093   5.933   0.588
 5542TIP3   OH216570   6.337   7.664   4.165
 5542TIP3    H116571   6.380   7.750   4.167
 5542TIP3    H216572   6.399   7.608   4.118
 5543TIP3   OH216573   7.235   7.630   4.313
 5543TIP3    H116574   7.249   7.631   4.218
 5543TIP3    H216575   7.245   7.722   4.340
 5544TIP3   OH216576   5.216   4.934   3.785
 5544TIP3    H116577   5.174   4.863   3.737
 5544TIP3    H216578   5.290   4.960   3.729
 5545TIP3   OH216579   6.645   5.272   2.006
 5545TIP3    H116580   6.610   5.329   1.937
 5545TIP3    H216581   6.714   5.222   1.962
 5546TIP3   OH216582   0.350   4.787   2.023
 5546TIP3    H116583   0.345   4.794   1.928
 5546TIP3    H216584   0.335   4.877   2.055
 5547TIP3   OH216585   8.077   3.945   0.974
 5547TIP3    H116586   7.984   3.944   0.952
 5547TIP3    H216587   8.080   3.920   1.066
 5548TIP3   OH216588   0.956   0.884   5.611
 5548TIP3    H116589   0.902   0.914   5.538
 5548TIP3    H216590   1.044   0.877   5.575
 5549TIP3   OH216591   6.145   5.420   3.973
 5549TIP3    H116592   6.053   5.400   3.956
 5549TIP3    H216593   6.188   5.335   3.980
 5550TIP3   OH216594   4.644   2.044   4.728
 5550TIP3    H116595   4.736   2.052   4.702
 5550TIP3    H216596   4.610   2.133   4.724
 5551TIP3   OH216597   5.802   1.566   5.834
 5551TIP3    H116598   5.727   1.613   5.798
 5551TIP3    H216599   5.866   1.567   5.763
 5552TIP3   OH216600   5.395   0.767   3.847
 5552TIP3    H116601   5.416   0.695   3.907
 5552TIP3    H216602   5.463   0.832   3.862
 5553TIP3   OH216603   7.810   1.507   0.221
 5553TIP3    H116604   7.737   1.511   0.283
 5553TIP3    H216605   7.775   1.458   0.147
 5554TIP3   OH216606   7.494   1.085   6.714
 5554TIP3    H116607   7.508   1.085   6.619
 5554TIP3    H216608   7.533   1.002   6.744
 5555TIP3   OH216609   2.212   2.945   3.170
 5555TIP3    H116610   2.291   2.979   3.127
 5555TIP3    H216611   2.244   2.896   3.246
 5556TIP3   OH216612   2.573   6.088   6.543
 5556TIP3    H116613   2.648   6.140   6.516
 5556TIP3    H216614   2.516   6.149   6.590
 5557TIP3   OH216615   5.601   1.779   6.167
 5557TIP3    H116616   5.510   1.804   6.147
 5557TIP3    H216617   5.628   1.840   6.236
 5558TIP3   OH216618   4.978   7.002   5.233
 5558TIP3    H116619   4.985   7.080   5.288
 5558TIP3    H216620   4.903   6.955   5.269
 5559TIP3   OH216621   5.446   6.435   5.269
 5559TIP3    H116622   5.445   6.525   5.300
 5559TIP3    H216623   5.507   6.390   5.327
 5560TIP3   OH216624   1.719   7.567   3.668
 5560TIP3    H116625   1.800   7.555   3.618
 5560TIP3    H216626   1.747   7.575   3.759
 5561TIP3   OH216627   2.211   0.485   5.874
 5561TIP3    H116628   2.266   0.419   5.915
 5561TIP3    H216629   2.124   0.471   5.912
 5562TIP3   OH216630   3.305   3.679   4.947
 5562TIP3    H116631   3.344   3.603   4.904
 5562TIP3    H216632   3.373   3.747   4.939
 5563TIP3   OH216633   7.486   6.624   3.161
 5563TIP3    H116634   7.502   6.538   3.200
 5563TIP3    H216635   7.473   6.606   3.068
 5564TIP3   OH216636   4.034   4.399   5.043
 5564TIP3    H116637   4.108   4.459   5.052
 5564TIP3    H216638   3.977   4.441   4.978
 5565TIP3   OH216639   7.992   6.761   1.565
 5565TIP3    H116640   7.896   6.757   1.562
 5565TIP3    H216641   8.019   6.768   1.474
 5566TIP3   OH216642   2.116   0.602   5.325
 5566TIP3    H116643   2.136   0.602   5.418
 5566TIP3    H216644   2.058   0.527   5.313
 5567TIP3   OH216645   2.991   7.440   0.836
 5567TIP3    H116646   2.936   7.492   0.893
 5567TIP3    H216647   3.040   7.382   0.896
 5568TIP3   OH216648   1.149   5.520   1.884
 5568TIP3    H116649   1.183   5.437   1.851
 5568TIP3    H216650   1.133   5.504   1.977
 5569TIP3   OH216651   7.051   7.633   2.857
 5569TIP3    H116652   7.063   7.727   2.870
 5569TIP3    H216653   7.131   7.593   2.891
 5570TIP3   OH216654   4.762   3.641   4.531
 5570TIP3    H116655   4.823   3.578   4.569
 5570TIP3    H216656   4.719   3.681   4.606
 5571TIP3   OH216657   6.723   6.186   3.531
 5571TIP3    H116658   6.671   6.264   3.516
 5571TIP3    H216659   6.672   6.115   3.492
 5572TIP3   OH216660   4.782   6.187   5.943
 5572TIP3    H116661   4.812   6.202   6.033
 5572TIP3    H216662   4.862   6.170   5.894
 5573TIP3   OH216663   4.562   4.115   4.967
 5573TIP3    H116664   4.524   4.086   5.050
 5573TIP3    H216665   4.607   4.038   4.933
 5574TIP3   OH216666   0.934   1.214   0.381
 5574TIP3    H116667   1.008   1.274   0.389
 5574TIP3    H216668   0.974   1.128   0.369
 5575TIP3   OH216669   3.037   1.313   5.198
 5575TIP3    H116670   2.956   1.322   5.147
 5575TIP3    H216671   3.015   1.248   5.265
 5576TIP3   OH216672   6.018   2.793   0.188
 5576TIP3    H116673   5.965   2.870   0.210
 5576TIP3    H216674   6.062   2.818   0.107
 5577TIP3   OH216675   3.263   2.219   6.016
 5577TIP3    H116676   3.201   2.172   6.073
 5577TIP3    H216677   3.323   2.263   6.076
 5578TIP3   OH216678   3.986   4.218   2.476
 5578TIP3    H116679   3.951   4.265   2.552
 5578TIP3    H216680   4.079   4.241   2.473
 5579TIP3   OH216681   3.983   3.346   6.173
 5579TIP3    H116682   4.036   3.411   6.129
 5579TIP3    H216683   3.904   3.338   6.120
 5580TIP3   OH216684   5.951   7.293   3.867
 5580TIP3    H116685   5.877   7.246   3.906
 5580TIP3    H216686   5.931   7.385   3.881
 5581TIP3   OH216687   4.189   4.119   6.679
 5581TIP3    H116688   4.197   4.024   6.671
 5581TIP3    H216689   4.263   4.145   6.734
 5582TIP3   OH216690   4.258   2.682   2.017
 5582TIP3    H116691   4.235   2.650   1.930
 5582TIP3    H216692   4.181   2.663   2.070
 5583TIP3   OH216693   1.781   7.739   3.448
 5583TIP3    H116694   1.718   7.696   3.506
 5583TIP3    H216695   1.773   7.832   3.467
 5584TIP3   OH216696   0.671   4.975   5.555
 5584TIP3    H116697   0.704   5.018   5.634
 5584TIP3    H216698   0.726   5.008   5.484
 5585TIP3   OH216699   0.199   2.295   1.915
 5585TIP3    H116700   0.109   2.321   1.897
 5585TIP3    H216701   0.251   2.339   1.847
 5586TIP3   OH216702   4.724   0.446   4.287
 5586TIP3    H116703   4.728   0.396   4.368
 5586TIP3    H216704   4.689   0.385   4.222
 5587TIP3   OH216705   3.906   1.590   1.100
 5587TIP3    H116706   3.912   1.636   1.183
 5587TIP3    H216707   3.995   1.594   1.064
 5588TIP3   OH216708   3.025   0.521   6.050
 5588TIP3    H116709   3.058   0.608   6.032
 5588TIP3    H216710   2.931   0.534   6.068
 5589TIP3   OH216711   2.992   5.577   3.976
 5589TIP3    H116712   2.963   5.548   3.890
 5589TIP3    H216713   3.063   5.639   3.958
 5590TIP3   OH216714   2.053   2.155   3.309
 5590TIP3    H116715   1.962   2.128   3.298
 5590TIP3    H216716   2.095   2.133   3.226
 5591TIP3   OH216717   2.933   5.395   6.146
 5591TIP3    H116718   2.939   5.327   6.213
 5591TIP3    H216719   2.986   5.467   6.179
 5592TIP3   OH216720   2.440   4.846   1.088
 5592TIP3    H116721   2.432   4.941   1.090
 5592TIP3    H216722   2.382   4.819   1.017
 5593TIP3   OH216723   1.286   4.794   0.040
 5593TIP3    H116724   1.251   4.708   0.016
 5593TIP3    H216725   1.341   4.819  -0.033
 5594TIP3   OH216726   4.441   3.063   2.450
 5594TIP3    H116727   4.493   3.127   2.402
 5594TIP3    H216728   4.354   3.068   2.410
 5595TIP3   OH216729   2.493   4.753   0.009
 5595TIP3    H116730   2.538   4.738   0.093
 5595TIP3    H216731   2.446   4.835   0.022
 5596TIP3   OH216732   7.276   1.039   0.008
 5596TIP3    H116733   7.271   0.951   0.045
 5596TIP3    H216734   7.185   1.067  -0.002
 5597TIP3   OH216735   5.423   5.250   0.917
 5597TIP3    H116736   5.370   5.325   0.944
 5597TIP3    H216737   5.362   5.192   0.872
 5598TIP3   OH216738   8.001   7.580   1.896
 5598TIP3    H116739   7.981   7.621   1.812
 5598TIP3    H216740   8.081   7.623   1.925
 5599TIP3   OH216741   6.560   5.581   3.695
 5599TIP3    H116742   6.519   5.500   3.665
 5599TIP3    H216743   6.543   5.644   3.625
 5600TIP3   OH216744   6.656   7.348   5.039
 5600TIP3    H116745   6.731   7.399   5.009
 5600TIP3    H216746   6.692   7.286   5.102
 5601TIP3   OH216747   3.875   1.249   6.626
 5601TIP3    H116748   3.958   1.206   6.645
 5601TIP3    H216749   3.879   1.268   6.532
 5602TIP3   OH216750   5.873   6.751   2.480
 5602TIP3    H116751   5.780   6.760   2.459
 5602TIP3    H216752   5.902   6.841   2.496
 5603TIP3   OH216753   0.986   3.757   1.163
 5603TIP3    H116754   1.037   3.690   1.118
 5603TIP3    H216755   1.033   3.838   1.146
 5604TIP3   OH216756   2.200   6.155   2.630
 5604TIP3    H116757   2.254   6.121   2.559
 5604TIP3    H216758   2.121   6.189   2.586
 5605TIP3   OH216759   1.080   0.882   5.182
 5605TIP3    H116760   1.071   0.913   5.272
 5605TIP3    H216761   1.171   0.900   5.159
 5606TIP3   OH216762   7.958   4.797   6.159
 5606TIP3    H116763   8.018   4.798   6.085
 5606TIP3    H216764   7.987   4.723   6.213
 5607TIP3   OH216765   2.540   2.577   1.041
 5607TIP3    H116766   2.609   2.592   1.105
 5607TIP3    H216767   2.583   2.591   0.956
 5608TIP3   OH216768   6.968   5.151   5.037
 5608TIP3    H116769   6.968   5.181   5.128
 5608TIP3    H216770   7.027   5.211   4.992
 5609TIP3   OH216771   1.556   6.455   0.997
 5609TIP3    H116772   1.469   6.421   1.022
 5609TIP3    H216773   1.608   6.450   1.077
 5610TIP3   OH216774   2.156   2.946   3.692
 5610TIP3    H116775   2.137   3.040   3.680
 5610TIP3    H216776   2.106   2.922   3.770
 5611TIP3   OH216777   6.007   7.383   1.602
 5611TIP3    H116778   6.077   7.324   1.630
 5611TIP3    H216779   6.036   7.470   1.629
 5612TIP3   OH216780   8.030   2.372   4.707
 5612TIP3    H116781   8.080   2.393   4.785
 5612TIP3    H216782   8.095   2.372   4.636
 5613TIP3   OH216783   8.059   7.001   1.068
 5613TIP3    H116784   7.977   7.019   1.115
 5613TIP3    H216785   8.032   6.943   0.996
 5614TIP3   OH216786   7.272   4.996   2.319
 5614TIP3    H116787   7.231   5.001   2.405
 5614TIP3    H216788   7.210   5.038   2.260
 5615TIP3   OH216789   1.057   1.746   2.057
 5615TIP3    H116790   1.050   1.694   2.137
 5615TIP3    H216791   1.035   1.685   1.987
 5616TIP3   OH216792   4.906   5.188   3.873
 5616TIP3    H116793   4.935   5.121   3.935
 5616TIP3    H216794   4.816   5.163   3.850
 5617TIP3   OH216795   0.102   4.769   0.651
 5617TIP3    H116796   0.186   4.775   0.697
 5617TIP3    H216797   0.125   4.771   0.559
 5618TIP3   OH216798   5.059   4.393   5.070
 5618TIP3    H116799   4.999   4.349   5.009
 5618TIP3    H216800   5.004   4.456   5.116
 5619TIP3   OH216801   6.358   0.215   6.614
 5619TIP3    H116802   6.350   0.257   6.528
 5619TIP3    H216803   6.350   0.121   6.596
 5620TIP3   OH216804   7.470   0.528   2.925
 5620TIP3    H116805   7.541   0.585   2.957
 5620TIP3    H216806   7.497   0.440   2.950
 5621TIP3   OH216807   6.371   3.268   1.031
 5621TIP3    H116808   6.311   3.342   1.039
 5621TIP3    H216809   6.459   3.307   1.035
 5622TIP3   OH216810   3.955   3.967   5.588
 5622TIP3    H116811   3.903   4.047   5.578
 5622TIP3    H216812   4.024   3.974   5.523
 5623TIP3   OH216813   4.415   7.702   4.236
 5623TIP3    H116814   4.349   7.692   4.167
 5623TIP3    H216815   4.463   7.619   4.236
 5624TIP3   OH216816   2.674   5.592   2.151
 5624TIP3    H116817   2.648   5.663   2.210
 5624TIP3    H216818   2.597   5.576   2.097
 5625TIP3   OH216819   7.207   5.169   4.763
 5625TIP3    H116820   7.245   5.177   4.676
 5625TIP3    H216821   7.278   5.139   4.819
 5626TIP3   OH216822   4.043   7.190   4.529
 5626TIP3    H116823   4.068   7.272   4.485
 5626TIP3    H216824   3.998   7.140   4.461
 5627TIP3   OH216825   7.362   4.496   0.824
 5627TIP3    H116826   7.273   4.471   0.801
 5627TIP3    H216827   7.385   4.565   0.762
 5628TIP3   OH216828   2.207   3.779   3.153
 5628TIP3    H116829   2.189   3.719   3.081
 5628TIP3    H216830   2.298   3.761   3.177
 5629TIP3   OH216831   3.207   6.515   5.583
 5629TIP3    H116832   3.233   6.545   5.496
 5629TIP3    H216833   3.118   6.482   5.571
 5630TIP3   OH216834   5.260   6.423   1.957
 5630TIP3    H116835   5.221   6.400   1.872
 5630TIP3    H216836   5.351   6.397   1.950
 5631TIP3   OH216837   7.447   5.277   4.957
 5631TIP3    H116838   7.496   5.212   5.009
 5631TIP3    H216839   7.479   5.265   4.868
 5632TIP3   OH216840   2.620   4.384   0.968
 5632TIP3    H116841   2.684   4.448   0.997
 5632TIP3    H216842   2.579   4.352   1.049
 5633TIP3   OH216843   8.142   4.991   2.148
 5633TIP3    H116844   8.166   5.045   2.073
 5633TIP3    H216845   8.119   5.053   2.217
 5634TIP3   OH216846   3.596   2.176   0.633
 5634TIP3    H116847   3.622   2.268   0.627
 5634TIP3    H216848   3.502   2.179   0.652
 5635TIP3   OH216849   4.261   6.682   5.994
 5635TIP3    H116850   4.334   6.727   5.951
 5635TIP3    H216851   4.281   6.589   5.985
 5636TIP3   OH216852   7.604   3.118   3.070
 5636TIP3    H116853   7.644   3.102   3.156
 5636TIP3    H216854   7.511   3.101   3.084
 5637TIP3   OH216855   5.418   6.476   3.335
 5637TIP3    H116856   5.454   6.560   3.306
 5637TIP3    H216857   5.357   6.451   3.265
 5638TIP3   OH216858   4.834   2.976   1.302
 5638TIP3    H116859   4.867   2.994   1.390
 5638TIP3    H216860   4.907   2.996   1.244
 5639TIP3   OH216861   4.479   4.299   6.485
 5639TIP3    H116862   4.509   4.386   6.511
 5639TIP3    H216863   4.383   4.308   6.478
 5640TIP3   OH216864   2.379   3.835   0.654
 5640TIP3    H116865   2.346   3.924   0.639
 5640TIP3    H216866   2.302   3.779   0.647
 5641TIP3   OH216867   4.133   7.429   6.327
 5641TIP3    H116868   4.225   7.405   6.317
 5641TIP3    H216869   4.092   7.351   6.363
 5642TIP3   OH216870   3.223   7.597   2.136
 5642TIP3    H116871   3.258   7.662   2.075
 5642TIP3    H216872   3.196   7.524   2.080
 5643TIP3   OH216873   5.940   2.072   5.898
 5643TIP3    H116874   6.026   2.030   5.904
 5643TIP3    H216875   5.882   2.016   5.949
 5644TIP3   OH216876   5.571   4.717   3.032
 5644TIP3    H116877   5.665   4.720   3.013
 5644TIP3    H216878   5.535   4.792   2.985
 5645TIP3   OH216879   3.910   3.463   5.382
 5645TIP3    H116880   3.839   3.402   5.360
 5645TIP3    H216881   3.946   3.488   5.298
 5646TIP3   OH216882   3.170   6.575   0.161
 5646TIP3    H116883   3.220   6.521   0.222
 5646TIP3    H216884   3.131   6.643   0.216
 5647TIP3   OH216885   3.573   0.781   5.058
 5647TIP3    H116886   3.545   0.868   5.086
 5647TIP3    H216887   3.566   0.783   4.962
 5648TIP3   OH216888   5.361   4.409   4.545
 5648TIP3    H116889   5.315   4.442   4.622
 5648TIP3    H216890   5.342   4.474   4.476
 5649TIP3   OH216891   4.130   1.097   4.230
 5649TIP3    H116892   4.131   1.094   4.135
 5649TIP3    H216893   4.222   1.094   4.256
 5650TIP3   OH216894   2.721   5.877   1.389
 5650TIP3    H116895   2.785   5.943   1.414
 5650TIP3    H216896   2.733   5.867   1.295
 5651TIP3   OH216897   7.648   7.392   4.081
 5651TIP3    H116898   7.687   7.469   4.123
 5651TIP3    H216899   7.686   7.391   3.993
 5652TIP3   OH216900   0.923   6.451   5.579
 5652TIP3    H116901   0.945   6.411   5.495
 5652TIP3    H216902   0.880   6.381   5.628
 5653TIP3   OH216903   7.905   5.238   2.547
 5653TIP3    H116904   7.944   5.200   2.626
 5653TIP3    H216905   7.821   5.194   2.538
 5654TIP3   OH216906   7.080   7.165   4.512
 5654TIP3    H116907   7.116   7.253   4.514
 5654TIP3    H216908   7.010   7.165   4.577
 5655TIP3   OH216909   3.702   7.620   6.041
 5655TIP3    H116910   3.780   7.571   6.066
 5655TIP3    H216911   3.640   7.602   6.112
 5656TIP3   OH216912   6.065   5.847   0.488
 5656TIP3    H116913   6.072   5.814   0.578
 5656TIP3    H216914   6.088   5.940   0.495
 5657TIP3   OH216915   4.439   5.628   2.149
 5657TIP3    H116916   4.491   5.551   2.170
 5657TIP3    H216917   4.503   5.699   2.137
 5658TIP3   OH216918   7.523   2.473   0.521
 5658TIP3    H116919   7.549   2.382   0.525
 5658TIP3    H216920   7.588   2.515   0.465
 5659TIP3   OH216921   6.977   3.814   1.121
 5659TIP3    H116922   7.070   3.822   1.138
 5659TIP3    H216923   6.945   3.904   1.119
 5660TIP3   OH216924   4.194   6.993   6.537
 5660TIP3    H116925   4.144   7.075   6.544
 5660TIP3    H216926   4.138   6.935   6.486
 5661TIP3   OH216927   6.563   5.748   3.355
 5661TIP3    H116928   6.557   5.822   3.416
 5661TIP3    H216929   6.650   5.710   3.372
 5662TIP3   OH216930   5.347   7.273   0.242
 5662TIP3    H116931   5.296   7.201   0.206
 5662TIP3    H216932   5.381   7.238   0.325
 5663TIP3   OH216933   3.805   4.487   0.934
 5663TIP3    H116934   3.777   4.577   0.917
 5663TIP3    H216935   3.866   4.495   1.007
 5664TIP3   OH216936   7.102   2.610   2.617
 5664TIP3    H116937   7.189   2.592   2.581
 5664TIP3    H216938   7.057   2.658   2.547
 5665TIP3   OH216939   1.020   4.878   4.791
 5665TIP3    H116940   1.076   4.904   4.864
 5665TIP3    H216941   1.076   4.890   4.714
 5666TIP3   OH216942   7.457   2.689   1.551
 5666TIP3    H116943   7.496   2.759   1.500
 5666TIP3    H216944   7.453   2.722   1.640
 5667TIP3   OH216945   1.678   0.841   6.444
 5667TIP3    H116946   1.607   0.789   6.482
 5667TIP3    H216947   1.700   0.795   6.363
 5668TIP3   OH216948   7.301   1.601   1.309
 5668TIP3    H116949   7.217   1.641   1.334
 5668TIP3    H216950   7.359   1.621   1.382
 5669TIP3   OH216951   3.012   1.612   5.780
 5669TIP3    H116952   2.940   1.642   5.836
 5669TIP3    H216953   2.971   1.595   5.695
 5670TIP3   OH216954   8.269   4.346   1.917
 5670TIP3    H116955   8.273   4.429   1.965
 5670TIP3    H216956   8.358   4.311   1.923
 5671TIP3   OH216957   5.956   3.480   1.554
 5671TIP3    H116958   5.998   3.517   1.476
 5671TIP3    H216959   5.979   3.541   1.624
 5672TIP3   OH216960   0.276   3.936   2.518
 5672TIP3    H116961   0.346   3.993   2.488
 5672TIP3    H216962   0.298   3.849   2.484
 5673TIP3   OH216963   6.069   7.315   0.425
 5673TIP3    H116964   6.068   7.347   0.334
 5673TIP3    H216965   6.049   7.392   0.478
 5674TIP3   OH216966   2.172   6.848   0.031
 5674TIP3    H116967   2.266   6.852   0.015
 5674TIP3    H216968   2.164   6.844   0.126
 5675TIP3   OH216969   2.733   4.636   6.376
 5675TIP3    H116970   2.829   4.630   6.382
 5675TIP3    H216971   2.702   4.606   6.462
 5676TIP3   OH216972   2.753   6.997   3.025
 5676TIP3    H116973   2.767   6.945   3.104
 5676TIP3    H216974   2.840   7.003   2.985
 5677TIP3   OH216975   7.513   6.167   0.256
 5677TIP3    H116976   7.530   6.189   0.348
 5677TIP3    H216977   7.454   6.092   0.260
 5678TIP3   OH216978   2.310   5.171   3.576
 5678TIP3    H116979   2.386   5.119   3.551
 5678TIP3    H216980   2.246   5.156   3.507
 5679TIP3   OH216981   0.995   4.489   2.327
 5679TIP3    H116982   1.026   4.566   2.279
 5679TIP3    H216983   1.026   4.415   2.275
 5680TIP3   OH216984   5.984   6.055   1.575
 5680TIP3    H116985   5.951   5.982   1.523
 5680TIP3    H216986   5.910   6.116   1.580
 5681TIP3   OH216987   3.661   4.085   6.270
 5681TIP3    H116988   3.702   4.058   6.187
 5681TIP3    H216989   3.578   4.037   6.273
 5682TIP3   OH216990   4.032   7.478   4.392
 5682TIP3    H116991   3.940   7.498   4.412
 5682TIP3    H216992   4.030   7.440   4.304
 5683TIP3   OH216993   2.229   6.494   5.972
 5683TIP3    H116994   2.289   6.498   5.897
 5683TIP3    H216995   2.253   6.413   6.017
 5684TIP3   OH216996   0.585   0.330   2.394
 5684TIP3    H116997   0.569   0.423   2.378
 5684TIP3    H216998   0.509   0.302   2.445
 5685TIP3   OH216999   4.213   1.531   6.216
 5685TIP3    H117000   4.129   1.486   6.221
 5685TIP3    H217001   4.242   1.519   6.125
 5686TIP3   OH217002   5.795   5.108   1.226
 5686TIP3    H117003   5.712   5.153   1.241
 5686TIP3    H217004   5.826   5.084   1.313
 5687TIP3   OH217005   6.822   1.658   6.101
 5687TIP3    H117006   6.738   1.659   6.146
 5687TIP3    H217007   6.817   1.732   6.040
 5688TIP3   OH217008   1.034   0.235   0.888
 5688TIP3    H117009   1.049   0.288   0.810
 5688TIP3    H217010   1.118   0.195   0.907
 5689TIP3   OH217011   4.945   0.961   2.700
 5689TIP3    H117012   4.865   0.926   2.662
 5689TIP3    H217013   4.993   0.885   2.731
 5690TIP3   OH217014   5.689   7.753   6.064
 5690TIP3    H117015   5.658   7.663   6.073
 5690TIP3    H217016   5.614   7.807   6.088
 5691TIP3   OH217017   2.919   3.659   2.653
 5691TIP3    H117018   2.925   3.735   2.710
 5691TIP3    H217019   2.910   3.695   2.565
 5692TIP3   OH217020   8.032   7.035   1.588
 5692TIP3    H117021   7.950   7.085   1.587
 5692TIP3    H217022   8.006   6.945   1.572
 5693TIP3   OH217023   1.348   5.680   4.422
 5693TIP3    H117024   1.416   5.703   4.359
 5693TIP3    H217025   1.364   5.736   4.497
 5694TIP3   OH217026   7.363   7.478   0.987
 5694TIP3    H117027   7.426   7.538   0.945
 5694TIP3    H217028   7.415   7.402   1.012
 5695TIP3   OH217029   5.211   1.323   0.648
 5695TIP3    H117030   5.186   1.413   0.629
 5695TIP3    H217031   5.200   1.315   0.743
 5696TIP3   OH217032   0.097   6.477   0.183
 5696TIP3    H117033   0.002   6.488   0.189
 5696TIP3    H217034   0.114   6.468   0.089
 5697TIP3   OH217035   3.871   1.268   4.187
 5697TIP3    H117036   3.945   1.327   4.171
 5697TIP3    H217037   3.851   1.230   4.101
 5698TIP3   OH217038   3.548   3.211   1.432
 5698TIP3    H117039   3.489   3.202   1.357
 5698TIP3    H217040   3.596   3.292   1.414
 5699TIP3   OH217041   0.862   2.864   2.555
 5699TIP3    H117042   0.797   2.802   2.587
 5699TIP3    H217043   0.865   2.850   2.460
 5700TIP3   OH217044   4.540   7.123   0.483
 5700TIP3    H117045   4.530   7.215   0.461
 5700TIP3    H217046   4.573   7.123   0.573
 5701TIP3   OH217047   5.609   2.608   3.664
 5701TIP3    H117048   5.593   2.691   3.709
 5701TIP3    H217049   5.529   2.592   3.614
 5702TIP3   OH217050   5.168   4.692   6.150
 5702TIP3    H117051   5.167   4.618   6.089
 5702TIP3    H217052   5.138   4.654   6.233
 5703TIP3   OH217053   3.066   2.959   2.651
 5703TIP3    H117054   2.990   2.927   2.601
 5703TIP3    H217055   3.082   3.046   2.616
 5704TIP3   OH217056   1.217   5.848   2.640
 5704TIP3    H117057   1.203   5.921   2.700
 5704TIP3    H217058   1.188   5.771   2.690
 5705TIP3   OH217059   2.915   5.008   2.515
 5705TIP3    H117060   2.972   4.996   2.591
 5705TIP3    H217061   2.953   4.952   2.447
 5706TIP3   OH217062   3.961   4.593   4.871
 5706TIP3    H117063   3.983   4.679   4.908
 5706TIP3    H217064   3.873   4.605   4.835
 5707TIP3   OH217065   5.511   3.488   5.454
 5707TIP3    H117066   5.481   3.579   5.454
 5707TIP3    H217067   5.567   3.482   5.376
 5708TIP3   OH217068   5.083   1.157   1.316
 5708TIP3    H117069   5.109   1.080   1.367
 5708TIP3    H217070   5.060   1.222   1.382
 5709TIP3   OH217071   6.258   7.052   6.148
 5709TIP3    H117072   6.175   7.092   6.172
 5709TIP3    H217073   6.254   6.964   6.186
 5710TIP3   OH217074   4.670   7.545   4.292
 5710TIP3    H117075   4.731   7.593   4.235
 5710TIP3    H217076   4.719   7.534   4.374
 5711TIP3   OH217077   2.532   5.566   5.524
 5711TIP3    H117078   2.560   5.608   5.606
 5711TIP3    H217079   2.519   5.639   5.463
 5712TIP3   OH217080   5.376   6.650   1.354
 5712TIP3    H117081   5.471   6.642   1.361
 5712TIP3    H217082   5.360   6.744   1.341
 5713TIP3   OH217083   1.116   3.170   1.360
 5713TIP3    H117084   1.127   3.257   1.321
 5713TIP3    H217085   1.027   3.144   1.337
 5714TIP3   OH217086   7.702   3.420   1.109
 5714TIP3    H117087   7.626   3.379   1.151
 5714TIP3    H217088   7.664   3.476   1.042
 5715TIP3   OH217089   0.034   0.537   4.248
 5715TIP3    H117090  -0.020   0.507   4.176
 5715TIP3    H217091   0.007   0.485   4.323
 5716TIP3   OH217092   4.539   7.439   3.324
 5716TIP3    H117093   4.537   7.468   3.232
 5716TIP3    H217094   4.487   7.359   3.324
 5717TIP3   OH217095   3.811   1.322   0.684
 5717TIP3    H117096   3.771   1.266   0.751
 5717TIP3    H217097   3.830   1.404   0.729
 5718TIP3   OH217098   7.283   0.902   0.535
 5718TIP3    H117099   7.344   0.916   0.462
 5718TIP3    H217100   7.321   0.829   0.584
 5719TIP3   OH217101   5.034   2.345   1.351
 5719TIP3    H117102   5.090   2.269   1.335
 5719TIP3    H217103   5.080   2.395   1.418
 5720TIP3   OH217104   0.283   0.748   4.279
 5720TIP3    H117105   0.238   0.826   4.247
 5720TIP3    H217106   0.308   0.769   4.369
 5721TIP3   OH217107   7.987   0.995   4.141
 5721TIP3    H117108   8.057   1.024   4.083
 5721TIP3    H217109   8.032   0.966   4.220
 5722TIP3   OH217110   6.174   3.782   0.648
 5722TIP3    H117111   6.202   3.714   0.586
 5722TIP3    H217112   6.093   3.817   0.609
 5723TIP3   OH217113   4.156   4.060   4.348
 5723TIP3    H117114   4.168   3.965   4.345
 5723TIP3    H217115   4.062   4.072   4.361
 5724TIP3   OH217116   7.402   4.610   5.054
 5724TIP3    H117117   7.471   4.627   4.990
 5724TIP3    H217118   7.414   4.517   5.077
 5725TIP3   OH217119   3.161   4.242   1.046
 5725TIP3    H117120   3.099   4.193   1.099
 5725TIP3    H217121   3.136   4.334   1.058
 5726TIP3   OH217122   0.463   5.920   5.148
 5726TIP3    H117123   0.498   5.986   5.089
 5726TIP3    H217124   0.442   5.969   5.228
 5727TIP3   OH217125   6.479   6.819   3.165
 5727TIP3    H117126   6.409   6.763   3.197
 5727TIP3    H217127   6.435   6.883   3.109
 5728TIP3   OH217128   7.605   7.138   1.401
 5728TIP3    H117129   7.566   7.079   1.337
 5728TIP3    H217130   7.684   7.172   1.358
 5729TIP3   OH217131   6.270   0.063   0.417
 5729TIP3    H117132   6.299   0.041   0.506
 5729TIP3    H217133   6.175   0.068   0.423
 5730TIP3   OH217134   6.063   3.289   1.902
 5730TIP3    H117135   6.137   3.349   1.914
 5730TIP3    H217136   5.987   3.341   1.928
 5731TIP3   OH217137   3.922   6.443   4.469
 5731TIP3    H117138   3.988   6.422   4.535
 5731TIP3    H217139   3.852   6.380   4.485
 5732TIP3   OH217140   1.717   3.220   4.270
 5732TIP3    H117141   1.752   3.161   4.204
 5732TIP3    H217142   1.792   3.274   4.296
 5733TIP3   OH217143   5.666   5.474   5.784
 5733TIP3    H117144   5.587   5.514   5.747
 5733TIP3    H217145   5.711   5.547   5.828
 5734TIP3   OH217146   0.815   3.409   1.789
 5734TIP3    H117147   0.724   3.441   1.786
 5734TIP3    H217148   0.864   3.474   1.739
 5735TIP3   OH217149   6.302   2.515   5.464
 5735TIP3    H117150   6.246   2.437   5.467
 5735TIP3    H217151   6.380   2.487   5.416
 5736TIP3   OH217152   0.290   3.038   6.093
 5736TIP3    H117153   0.358   3.054   6.028
 5736TIP3    H217154   0.254   2.953   6.070
 5737TIP3   OH217155   5.326   5.571   4.348
 5737TIP3    H117156   5.270   5.507   4.305
 5737TIP3    H217157   5.269   5.617   4.409
 5738TIP3   OH217158   3.564   0.855   3.775
 5738TIP3    H117159   3.519   0.907   3.708
 5738TIP3    H217160   3.499   0.841   3.843
 5739TIP3   OH217161   6.080   3.248   0.875
 5739TIP3    H117162   6.001   3.216   0.831
 5739TIP3    H217163   6.139   3.173   0.875
 5740TIP3   OH217164   6.967   5.871   1.420
 5740TIP3    H117165   6.888   5.873   1.474
 5740TIP3    H217166   7.034   5.914   1.473
 5741TIP3   OH217167   1.543   4.494   3.774
 5741TIP3    H117168   1.488   4.423   3.743
 5741TIP3    H217169   1.510   4.515   3.861
 5742TIP3   OH217170   7.013   0.729   0.662
 5742TIP3    H117171   7.060   0.726   0.745
 5742TIP3    H217172   7.067   0.785   0.606
 5743TIP3   OH217173   1.826   2.160   3.904
 5743TIP3    H117174   1.832   2.067   3.882
 5743TIP3    H217175   1.846   2.206   3.822
 5744TIP3   OH217176   1.973   0.615   3.862
 5744TIP3    H117177   2.033   0.557   3.910
 5744TIP3    H217178   1.898   0.625   3.921
 5745TIP3   OH217179   4.265   2.332   4.828
 5745TIP3    H117180   4.351   2.296   4.848
 5745TIP3    H217181   4.204   2.275   4.877
 5746TIP3   OH217182   5.652   2.578   5.278
 5746TIP3    H117183   5.646   2.666   5.315
 5746TIP3    H217184   5.575   2.533   5.313
 5747TIP3   OH217185   2.459   1.808   3.983
 5747TIP3    H117186   2.549   1.818   3.951
 5747TIP3    H217187   2.450   1.873   4.052
 5748TIP3   OH217188   7.809   7.018   1.191
 5748TIP3    H117189   7.835   7.098   1.238
 5748TIP3    H217190   7.714   7.014   1.200
 5749TIP3   OH217191   6.672   1.878   5.140
 5749TIP3    H117192   6.644   1.964   5.172
 5749TIP3    H217193   6.595   1.822   5.153
 5750TIP3   OH217194   3.438   3.927   1.521
 5750TIP3    H117195   3.529   3.904   1.536
 5750TIP3    H217196   3.409   3.967   1.602
 5751TIP3   OH217197   5.750   4.667   1.078
 5751TIP3    H117198   5.822   4.711   1.033
 5751TIP3    H217199   5.738   4.585   1.031
 5752TIP3   OH217200   6.378   1.471   1.532
 5752TIP3    H117201   6.436   1.421   1.590
 5752TIP3    H217202   6.417   1.461   1.445
 5753TIP3   OH217203   6.571   1.421   0.136
 5753TIP3    H117204   6.497   1.449   0.191
 5753TIP3    H217205   6.630   1.497   0.135
 5754TIP3   OH217206   2.754   7.489   4.841
 5754TIP3    H117207   2.787   7.452   4.923
 5754TIP3    H217208   2.751   7.584   4.857
 5755TIP3   OH217209   7.034   5.778   5.154
 5755TIP3    H117210   6.957   5.758   5.101
 5755TIP3    H217211   7.022   5.869   5.181
 5756TIP3   OH217212   3.212   6.669   1.057
 5756TIP3    H117213   3.197   6.761   1.079
 5756TIP3    H217214   3.226   6.669   0.963
 5757TIP3   OH217215   7.217   1.614   5.789
 5757TIP3    H117216   7.299   1.565   5.795
 5757TIP3    H217217   7.190   1.627   5.880
 5758TIP3   OH217218   5.462   7.240   2.366
 5758TIP3    H117219   5.498   7.317   2.410
 5758TIP3    H217220   5.445   7.179   2.437
 5759TIP3   OH217221   1.431   6.174   2.918
 5759TIP3    H117222   1.354   6.121   2.899
 5759TIP3    H217223   1.396   6.251   2.964
 5760TIP3   OH217224   1.633   2.474   6.616
 5760TIP3    H117225   1.565   2.538   6.636
 5760TIP3    H217226   1.614   2.399   6.672
 5761TIP3   OH217227   5.462   4.332   1.997
 5761TIP3    H117228   5.433   4.274   1.927
 5761TIP3    H217229   5.440   4.420   1.966
 5762TIP3   OH217230   5.546   0.840   0.451
 5762TIP3    H117231   5.578   0.764   0.500
 5762TIP3    H217232   5.465   0.866   0.496
 5763TIP3   OH217233   7.001   1.891   2.770
 5763TIP3    H117234   7.071   1.892   2.705
 5763TIP3    H217235   7.002   1.979   2.807
 5764TIP3   OH217236   4.791   5.682   4.273
 5764TIP3    H117237   4.810   5.753   4.335
 5764TIP3    H217238   4.866   5.682   4.213
 5765TIP3   OH217239   5.350   6.836   2.315
 5765TIP3    H117240   5.307   6.895   2.253
 5765TIP3    H217241   5.350   6.751   2.271
 5766TIP3   OH217242   4.571   6.063   6.090
 5766TIP3    H117243   4.619   6.133   6.133
 5766TIP3    H217244   4.559   6.093   6.000
 5767TIP3   OH217245   7.423   3.020   3.773
 5767TIP3    H117246   7.389   2.932   3.789
 5767TIP3    H217247   7.373   3.051   3.697
 5768TIP3   OH217248   5.338   0.432   1.139
 5768TIP3    H117249   5.254   0.417   1.184
 5768TIP3    H217250   5.371   0.513   1.178
 5769TIP3   OH217251   6.002   7.807   4.010
 5769TIP3    H117252   5.992   7.846   4.096
 5769TIP3    H217253   6.075   7.854   3.970
 5770TIP3   OH217254   3.947   6.030   0.230
 5770TIP3    H117255   3.953   6.003   0.139
 5770TIP3    H217256   4.015   6.096   0.241
 5771TIP3   OH217257   1.544   2.073   5.403
 5771TIP3    H117258   1.599   2.017   5.458
 5771TIP3    H217259   1.570   2.052   5.313
 5772TIP3   OH217260   2.411   0.561   0.120
 5772TIP3    H117261   2.390   0.507   0.197
 5772TIP3    H217262   2.366   0.643   0.136
 5773TIP3   OH217263   3.022   0.953   5.598
 5773TIP3    H117264   3.043   0.968   5.690
 5773TIP3    H217265   3.033   0.859   5.586
 5774TIP3   OH217266   6.676   6.445   6.463
 5774TIP3    H117267   6.609   6.511   6.448
 5774TIP3    H217268   6.705   6.460   6.553
 5775TIP3   OH217269   6.491   1.534   5.775
 5775TIP3    H117270   6.472   1.608   5.833
 5775TIP3    H217271   6.577   1.553   5.739
 5776TIP3   OH217272   6.699   3.651   4.104
 5776TIP3    H117273   6.755   3.594   4.156
 5776TIP3    H217274   6.671   3.719   4.165
 5777TIP3   OH217275   5.369   6.024   6.585
 5777TIP3    H117276   5.344   6.103   6.632
 5777TIP3    H217277   5.387   5.959   6.653
 5778TIP3   OH217278   3.304   6.408   6.428
 5778TIP3    H117279   3.375   6.350   6.455
 5778TIP3    H217280   3.346   6.473   6.371
 5779TIP3   OH217281   0.486   5.502   0.325
 5779TIP3    H117282   0.420   5.505   0.255
 5779TIP3    H217283   0.501   5.594   0.347
 5780TIP3   OH217284   1.707   6.661   4.530
 5780TIP3    H117285   1.671   6.611   4.457
 5780TIP3    H217286   1.758   6.597   4.580
 5781TIP3   OH217287   1.416   2.159   6.060
 5781TIP3    H117288   1.398   2.119   6.145
 5781TIP3    H217289   1.439   2.086   6.003
 5782TIP3   OH217290   6.279   3.928   6.356
 5782TIP3    H117291   6.205   3.895   6.305
 5782TIP3    H217292   6.274   4.023   6.347
 5783TIP3   OH217293   6.804   7.624   1.979
 5783TIP3    H117294   6.864   7.573   2.033
 5783TIP3    H217295   6.836   7.714   1.986
 5784TIP3   OH217296   1.956   5.317   6.289
 5784TIP3    H117297   1.984   5.392   6.341
 5784TIP3    H217298   1.903   5.265   6.349
 5785TIP3   OH217299   0.831   3.581   0.712
 5785TIP3    H117300   0.850   3.648   0.777
 5785TIP3    H217301   0.911   3.575   0.659
 5786TIP3   OH217302   0.102   0.912   3.359
 5786TIP3    H117303   0.093   1.008   3.359
 5786TIP3    H217304   0.161   0.893   3.431
 5787TIP3   OH217305   7.602   5.317   3.341
 5787TIP3    H117306   7.579   5.370   3.417
 5787TIP3    H217307   7.599   5.378   3.267
 5788TIP3   OH217308   6.492   1.843   0.233
 5788TIP3    H117309   6.539   1.885   0.161
 5788TIP3    H217310   6.547   1.858   0.310
 5789TIP3   OH217311   4.359   0.968   2.350
 5789TIP3    H117312   4.330   0.886   2.390
 5789TIP3    H217313   4.439   0.990   2.396
 5790TIP3   OH217314   4.881   3.308   0.600
 5790TIP3    H117315   4.817   3.374   0.571
 5790TIP3    H217316   4.966   3.349   0.584
 5791TIP3   OH217317   3.304   3.264   2.594
 5791TIP3    H117318   3.350   3.314   2.527
 5791TIP3    H217319   3.238   3.325   2.627
 5792TIP3   OH217320   3.448   5.707   4.340
 5792TIP3    H117321   3.390   5.644   4.298
 5792TIP3    H217322   3.485   5.660   4.415
 5793TIP3   OH217323   3.662   0.053   5.615
 5793TIP3    H117324   3.629   0.003   5.541
 5793TIP3    H217325   3.744   0.009   5.640
 5794TIP3   OH217326   4.219   1.238   1.267
 5794TIP3    H117327   4.153   1.201   1.208
 5794TIP3    H217328   4.188   1.326   1.286
 5795TIP3   OH217329   3.607   4.907   3.396
 5795TIP3    H117330   3.672   4.848   3.433
 5795TIP3    H217331   3.525   4.884   3.441
 5796TIP3   OH217332   5.028   4.759   6.451
 5796TIP3    H117333   5.111   4.792   6.484
 5796TIP3    H217334   5.042   4.666   6.436
 5797TIP3   OH217335   1.397   3.910   1.094
 5797TIP3    H117336   1.452   3.948   1.025
 5797TIP3    H217337   1.434   3.944   1.176
 5798TIP3   OH217338   1.521   4.455   3.398
 5798TIP3    H117339   1.441   4.465   3.449
 5798TIP3    H217340   1.587   4.506   3.445
 5799TIP3   OH217341   6.907   3.722   2.796
 5799TIP3    H117342   6.917   3.816   2.783
 5799TIP3    H217343   6.985   3.696   2.845
 5800TIP3   OH217344   2.369   2.051   1.313
 5800TIP3    H117345   2.402   1.987   1.375
 5800TIP3    H217346   2.276   2.061   1.335
 5801TIP3   OH217347   0.514   0.378   6.394
 5801TIP3    H117348   0.427   0.372   6.433
 5801TIP3    H217349   0.499   0.369   6.300
 5802TIP3   OH217350   5.685   6.599   4.353
 5802TIP3    H117351   5.603   6.645   4.369
 5802TIP3    H217352   5.742   6.624   4.426
 5803TIP3   OH217353   2.987   7.434   6.461
 5803TIP3    H117354   2.943   7.353   6.488
 5803TIP3    H217355   3.080   7.416   6.475
 5804TIP3   OH217356   1.773   6.216   4.647
 5804TIP3    H117357   1.793   6.136   4.599
 5804TIP3    H217358   1.781   6.191   4.739
 5805TIP3   OH217359   5.368   1.570   0.813
 5805TIP3    H117360   5.388   1.636   0.880
 5805TIP3    H217361   5.440   1.507   0.820
 5806TIP3   OH217362   5.063   3.490   1.621
 5806TIP3    H117363   5.106   3.405   1.618
 5806TIP3    H217364   5.084   3.530   1.536
 5807TIP3   OH217365   3.535   4.866   5.772
 5807TIP3    H117366   3.624   4.832   5.760
 5807TIP3    H217367   3.534   4.948   5.724
 5808TIP3   OH217368   7.070   1.688   6.736
 5808TIP3    H117369   7.089   1.611   6.681
 5808TIP3    H217370   7.147   1.744   6.726
 5809TIP3   OH217371   1.020   4.214   2.300
 5809TIP3    H117372   0.961   4.171   2.238
 5809TIP3    H217373   1.106   4.175   2.283
 5810TIP3   OH217374   0.278   3.319   0.036
 5810TIP3    H117375   0.209   3.366   0.083
 5810TIP3    H217376   0.321   3.266   0.102
 5811TIP3   OH217377   5.867   5.456   3.943
 5811TIP3    H117378   5.776   5.441   3.917
 5811TIP3    H217379   5.906   5.501   3.868
 5812TIP3   OH217380   3.157   7.260   4.194
 5812TIP3    H117381   3.087   7.316   4.229
 5812TIP3    H217382   3.221   7.255   4.265
 5813TIP3   OH217383   4.108   7.415   4.129
 5813TIP3    H117384   4.047   7.456   4.068
 5813TIP3    H217385   4.101   7.321   4.111
 5814TIP3   OH217386   2.331   3.690   5.122
 5814TIP3    H117387   2.334   3.773   5.075
 5814TIP3    H217388   2.395   3.700   5.192
 5815TIP3   OH217389   4.861   2.684   1.832
 5815TIP3    H117390   4.805   2.761   1.822
 5815TIP3    H217391   4.950   2.717   1.817
 5816TIP3   OH217392   5.711   7.139   3.664
 5816TIP3    H117393   5.793   7.123   3.616
 5816TIP3    H217394   5.645   7.089   3.616
 5817TIP3   OH217395   6.883   6.768   5.074
 5817TIP3    H117396   6.899   6.861   5.089
 5817TIP3    H217397   6.951   6.723   5.123
 5818TIP3   OH217398   8.167   3.380   0.798
 5818TIP3    H117399   8.258   3.350   0.810
 5818TIP3    H217400   8.157   3.451   0.860
 5819TIP3   OH217401   5.026   1.050   6.200
 5819TIP3    H117402   4.985   0.974   6.159
 5819TIP3    H217403   4.955   1.111   6.214
 5820TIP3   OH217404   4.574   3.504   1.306
 5820TIP3    H117405   4.540   3.513   1.217
 5820TIP3    H217406   4.539   3.421   1.337
 5821TIP3   OH217407   3.432   2.668   1.819
 5821TIP3    H117408   3.357   2.712   1.780
 5821TIP3    H217409   3.497   2.665   1.749
 5822TIP3   OH217410   2.741   6.392   1.188
 5822TIP3    H117411   2.786   6.391   1.273
 5822TIP3    H217412   2.690   6.311   1.188
 5823TIP3   OH217413   5.090   1.703   5.735
 5823TIP3    H117414   5.104   1.611   5.758
 5823TIP3    H217415   5.041   1.739   5.809
 5824TIP3   OH217416   7.921   2.081   5.874
 5824TIP3    H117417   7.879   2.049   5.794
 5824TIP3    H217418   7.971   2.006   5.907
 5825TIP3   OH217419   1.402   7.155   2.679
 5825TIP3    H117420   1.378   7.076   2.727
 5825TIP3    H217421   1.498   7.156   2.680
 5826TIP3   OH217422   1.964   3.622   5.849
 5826TIP3    H117423   1.897   3.616   5.916
 5826TIP3    H217424   2.046   3.631   5.898
 5827TIP3   OH217425   1.203   0.532   1.208
 5827TIP3    H117426   1.274   0.570   1.158
 5827TIP3    H217427   1.220   0.437   1.206
 5828TIP3   OH217428   3.620   5.218   0.416
 5828TIP3    H117429   3.559   5.172   0.358
 5828TIP3    H217430   3.582   5.305   0.427
 5829TIP3   OH217431   2.351   7.037   3.642
 5829TIP3    H117432   2.304   7.090   3.577
 5829TIP3    H217433   2.373   6.956   3.595
 5830TIP3   OH217434   4.745   3.185   6.155
 5830TIP3    H117435   4.821   3.241   6.168
 5830TIP3    H217436   4.746   3.126   6.231
 5831TIP3   OH217437   1.934   3.198   6.310
 5831TIP3    H117438   2.007   3.142   6.336
 5831TIP3    H217439   1.952   3.282   6.352
 5832TIP3   OH217440   3.674   6.006   4.144
 5832TIP3    H117441   3.735   5.995   4.070
 5832TIP3    H217442   3.726   6.048   4.212
 5833TIP3   OH217443   7.489   5.997   4.572
 5833TIP3    H117444   7.500   5.956   4.657
 5833TIP3    H217445   7.572   6.043   4.556
 5834TIP3   OH217446   2.303   6.757   6.243
 5834TIP3    H117447   2.218   6.800   6.239
 5834TIP3    H217448   2.344   6.794   6.321
 5835TIP3   OH217449   1.762   1.744   0.710
 5835TIP3    H117450   1.827   1.701   0.766
 5835TIP3    H217451   1.715   1.672   0.669
 5836TIP3   OH217452   2.193   3.184   1.422
 5836TIP3    H117453   2.101   3.210   1.430
 5836TIP3    H217454   2.190   3.090   1.406
 5837TIP3   OH217455   8.083   4.900   1.316
 5837TIP3    H117456   8.129   4.982   1.333
 5837TIP3    H217457   8.029   4.886   1.394
 5838TIP3   OH217458   0.412   4.306   1.050
 5838TIP3    H117459   0.375   4.395   1.054
 5838TIP3    H217460   0.410   4.275   1.140
 5839TIP3   OH217461   5.211   5.823   4.741
 5839TIP3    H117462   5.133   5.801   4.792
 5839TIP3    H217463   5.242   5.906   4.777
 5840TIP3   OH217464   2.807   6.316   4.282
 5840TIP3    H117465   2.846   6.231   4.262
 5840TIP3    H217466   2.722   6.315   4.237
 5841TIP3   OH217467   4.955   5.729   6.229
 5841TIP3    H117468   4.941   5.816   6.266
 5841TIP3    H217469   4.899   5.726   6.152
 5842TIP3   OH217470   8.114   2.771   2.102
 5842TIP3    H117471   8.018   2.772   2.108
 5842TIP3    H217472   8.136   2.678   2.099
 5843TIP3   OH217473   1.279   4.283   3.678
 5843TIP3    H117474   1.251   4.328   3.758
 5843TIP3    H217475   1.268   4.190   3.698
 5844TIP3   OH217476   7.056   2.607   0.549
 5844TIP3    H117477   7.036   2.529   0.497
 5844TIP3    H217478   7.148   2.626   0.528
 5845TIP3   OH217479   0.189   1.608   0.528
 5845TIP3    H117480   0.143   1.574   0.605
 5845TIP3    H217481   0.165   1.701   0.525
 5846TIP3   OH217482   1.874   2.268   0.413
 5846TIP3    H117483   1.815   2.200   0.445
 5846TIP3    H217484   1.876   2.333   0.484
 5847TIP3   OH217485   0.105   4.144   6.037
 5847TIP3    H117486   0.035   4.174   6.095
 5847TIP3    H217487   0.126   4.221   5.983
 5848TIP3   OH217488   1.995   5.570   3.378
 5848TIP3    H117489   2.026   5.518   3.305
 5848TIP3    H217490   1.910   5.604   3.349
 5849TIP3   OH217491   7.629   6.744   2.005
 5849TIP3    H117492   7.657   6.684   1.936
 5849TIP3    H217493   7.671   6.709   2.084
 5850TIP3   OH217494   6.254   0.214   3.161
 5850TIP3    H117495   6.273   0.289   3.218
 5850TIP3    H217496   6.307   0.143   3.196
 5851TIP3   OH217497   5.371   2.411   6.738
 5851TIP3    H117498   5.387   2.325   6.776
 5851TIP3    H217499   5.458   2.443   6.713
 5852TIP3   OH217500   5.765   0.420   1.288
 5852TIP3    H117501   5.814   0.471   1.224
 5852TIP3    H217502   5.730   0.484   1.349
 5853TIP3   OH217503   1.635   7.705   2.546
 5853TIP3    H117504   1.609   7.617   2.572
 5853TIP3    H217505   1.585   7.722   2.465
 5854TIP3   OH217506   6.864   6.610   4.794
 5854TIP3    H117507   6.853   6.699   4.826
 5854TIP3    H217508   6.823   6.610   4.707
 5855TIP3   OH217509   1.845   3.157   0.391
 5855TIP3    H117510   1.875   3.201   0.312
 5855TIP3    H217511   1.790   3.222   0.435
 5856TIP3   OH217512   3.716   3.580   2.595
 5856TIP3    H117513   3.714   3.603   2.688
 5856TIP3    H217514   3.628   3.600   2.563
 5857TIP3   OH217515   2.513   2.740   4.604
 5857TIP3    H117516   2.528   2.714   4.695
 5857TIP3    H217517   2.601   2.750   4.567
 5858TIP3   OH217518   6.398   5.671   4.074
 5858TIP3    H117519   6.431   5.719   4.151
 5858TIP3    H217520   6.454   5.700   4.002
 5859TIP3   OH217521   0.689   0.488   0.771
 5859TIP3    H117522   0.673   0.556   0.837
 5859TIP3    H217523   0.649   0.409   0.807
 5860TIP3   OH217524   0.663   3.162   1.729
 5860TIP3    H117525   0.652   3.256   1.736
 5860TIP3    H217526   0.754   3.146   1.757
 5861TIP3   OH217527   6.789   4.816   4.256
 5861TIP3    H117528   6.796   4.815   4.352
 5861TIP3    H217529   6.861   4.872   4.227
 5862TIP3   OH217530   2.842   4.805   0.180
 5862TIP3    H117531   2.866   4.860   0.254
 5862TIP3    H217532   2.748   4.818   0.169
 5863TIP3   OH217533   8.264   2.107   4.863
 5863TIP3    H117534   8.246   2.122   4.956
 5863TIP3    H217535   8.258   2.012   4.852
 5864TIP3   OH217536   6.841   7.358   2.803
 5864TIP3    H117537   6.758   7.356   2.755
 5864TIP3    H217538   6.908   7.374   2.737
 5865TIP3   OH217539   4.888   2.779   4.370
 5865TIP3    H117540   4.830   2.848   4.402
 5865TIP3    H217541   4.926   2.815   4.290
 5866TIP3   OH217542   7.422   7.630   2.651
 5866TIP3    H117543   7.418   7.723   2.627
 5866TIP3    H217544   7.363   7.622   2.726
 5867TIP3   OH217545   5.658   5.053   1.932
 5867TIP3    H117546   5.734   5.011   1.892
 5867TIP3    H217547   5.633   5.121   1.869
 5868TIP3   OH217548   0.079   5.203   1.411
 5868TIP3    H117549   0.133   5.282   1.414
 5868TIP3    H217550   0.093   5.168   1.323
 5869TIP3   OH217551   3.670   5.387   6.317
 5869TIP3    H117552   3.615   5.366   6.242
 5869TIP3    H217553   3.714   5.305   6.339
 5870TIP3   OH217554   0.574   7.468   2.368
 5870TIP3    H117555   0.492   7.487   2.323
 5870TIP3    H217556   0.552   7.397   2.429
 5871TIP3   OH217557   6.866   4.915   6.481
 5871TIP3    H117558   6.821   4.999   6.492
 5871TIP3    H217559   6.869   4.902   6.386
 5872TIP3   OH217560   3.037   0.272   1.868
 5872TIP3    H117561   3.035   0.194   1.813
 5872TIP3    H217562   2.947   0.280   1.901
 5873TIP3   OH217563   0.601   0.741   2.889
 5873TIP3    H117564   0.586   0.654   2.927
 5873TIP3    H217565   0.516   0.783   2.892
 5874TIP3   OH217566   7.849   2.773   5.244
 5874TIP3    H117567   7.778   2.754   5.183
 5874TIP3    H217568   7.885   2.857   5.215
 5875TIP3   OH217569   6.050   7.734   0.208
 5875TIP3    H117570   6.126   7.753   0.155
 5875TIP3    H217571   6.065   7.781   0.290
 5876TIP3   OH217572   1.755   3.786   5.714
 5876TIP3    H117573   1.832   3.829   5.678
 5876TIP3    H217574   1.784   3.746   5.795
 5877TIP3   OH217575   1.584   5.183   3.669
 5877TIP3    H117576   1.622   5.099   3.693
 5877TIP3    H217577   1.611   5.198   3.579
 5878TIP3   OH217578   1.142   6.008   3.814
 5878TIP3    H117579   1.066   5.951   3.818
 5878TIP3    H217580   1.186   5.996   3.898
 5879TIP3   OH217581   4.350   0.570   3.580
 5879TIP3    H117582   4.301   0.577   3.497
 5879TIP3    H217583   4.316   0.642   3.633
 5880TIP3   OH217584   5.477   1.736   4.244
 5880TIP3    H117585   5.463   1.711   4.336
 5880TIP3    H217586   5.532   1.667   4.209
 5881TIP3   OH217587   1.624   5.571   0.513
 5881TIP3    H117588   1.603   5.663   0.531
 5881TIP3    H217589   1.628   5.530   0.600
 5882TIP3   OH217590   3.298   7.563   5.050
 5882TIP3    H117591   3.295   7.623   5.125
 5882TIP3    H217592   3.321   7.479   5.088
 5883TIP3   OH217593   6.257   4.419   5.893
 5883TIP3    H117594   6.180   4.431   5.838
 5883TIP3    H217595   6.259   4.326   5.913
 5884TIP3   OH217596   3.758   6.578   1.263
 5884TIP3    H117597   3.826   6.642   1.286
 5884TIP3    H217598   3.698   6.628   1.207
 5885TIP3   OH217599   0.921   5.670   5.861
 5885TIP3    H117600   1.009   5.638   5.839
 5885TIP3    H217601   0.885   5.700   5.777
 5886TIP3   OH217602   0.522   2.734   0.580
 5886TIP3    H117603   0.480   2.671   0.638
 5886TIP3    H217604   0.491   2.710   0.492
 5887TIP3   OH217605   6.563   4.757   5.451
 5887TIP3    H117606   6.612   4.758   5.369
 5887TIP3    H217607   6.616   4.705   5.511
 5888TIP3   OH217608   3.602   5.303   2.291
 5888TIP3    H117609   3.546   5.355   2.348
 5888TIP3    H217610   3.569   5.214   2.300
 5889TIP3   OH217611   6.661   0.782   1.436
 5889TIP3    H117612   6.569   0.809   1.438
 5889TIP3    H217613   6.658   0.690   1.409
 5890TIP3   OH217614   0.982   1.230   4.732
 5890TIP3    H117615   0.991   1.135   4.739
 5890TIP3    H217616   1.053   1.257   4.672
 5891TIP3   OH217617   5.090   1.423   3.279
 5891TIP3    H117618   5.011   1.406   3.227
 5891TIP3    H217619   5.107   1.340   3.324
 5892TIP3   OH217620   1.363   0.779   6.245
 5892TIP3    H117621   1.349   0.858   6.193
 5892TIP3    H217622   1.328   0.708   6.190
 5893TIP3   OH217623   5.588   5.789   2.080
 5893TIP3    H117624   5.520   5.822   2.022
 5893TIP3    H217625   5.622   5.867   2.124
 5894TIP3   OH217626   2.892   6.078   5.284
 5894TIP3    H117627   2.916   6.077   5.191
 5894TIP3    H217628   2.900   6.170   5.309
 5895TIP3   OH217629   1.392   3.148   2.480
 5895TIP3    H117630   1.370   3.062   2.445
 5895TIP3    H217631   1.309   3.195   2.481
 5896TIP3   OH217632   0.267   4.486   0.657
 5896TIP3    H117633   0.284   4.457   0.568
 5896TIP3    H217634   0.172   4.479   0.668
 5897TIP3   OH217635   5.322   0.558   2.046
 5897TIP3    H117636   5.348   0.468   2.068
 5897TIP3    H217637   5.285   0.551   1.959
 5898TIP3   OH217638   1.892   2.964   2.696
 5898TIP3    H117639   1.822   2.974   2.631
 5898TIP3    H217640   1.950   3.038   2.680
 5899TIP3   OH217641   3.460   3.745   5.741
 5899TIP3    H117642   3.465   3.662   5.787
 5899TIP3    H217643   3.444   3.810   5.809
 5900TIP3   OH217644   5.283   2.348   4.980
 5900TIP3    H117645   5.276   2.429   4.930
 5900TIP3    H217646   5.369   2.353   5.022
 5901TIP3   OH217647   3.513   1.938   1.203
 5901TIP3    H117648   3.423   1.940   1.238
 5901TIP3    H217649   3.550   1.856   1.236
 5902TIP3   OH217650   6.729   5.677   5.991
 5902TIP3    H117651   6.696   5.636   6.071
 5902TIP3    H217652   6.698   5.768   5.996
 5903TIP3   OH217653   3.136   5.743   4.448
 5903TIP3    H117654   3.165   5.775   4.533
 5903TIP3    H217655   3.154   5.648   4.451
 5904TIP3   OH217656   2.357   1.305   4.315
 5904TIP3    H117657   2.301   1.322   4.239
 5904TIP3    H217658   2.297   1.289   4.387
 5905TIP3   OH217659   3.781   6.861   3.892
 5905TIP3    H117660   3.722   6.924   3.850
 5905TIP3    H217661   3.744   6.846   3.978
 5906TIP3   OH217662   1.967   6.802   2.540
 5906TIP3    H117663   2.044   6.828   2.590
 5906TIP3    H217664   1.977   6.708   2.526
 5907TIP3   OH217665   2.181   0.516   6.751
 5907TIP3    H117666   2.116   0.585   6.760
 5907TIP3    H217667   2.152   0.447   6.811
 5908TIP3   OH217668   4.288   1.289   3.629
 5908TIP3    H117669   4.373   1.331   3.619
 5908TIP3    H217670   4.285   1.263   3.721
 5909TIP3   OH217671   6.827   4.144   2.495
 5909TIP3    H117672   6.908   4.143   2.545
 5909TIP3    H217673   6.759   4.122   2.559
 5910TIP3   OH217674   4.803   2.067   1.591
 5910TIP3    H117675   4.872   2.011   1.556
 5910TIP3    H217676   4.851   2.135   1.639
 5911TIP3   OH217677   5.089   6.280   2.983
 5911TIP3    H117678   5.097   6.186   2.994
 5911TIP3    H217679   5.083   6.293   2.888
 5912TIP3   OH217680   7.733   0.362   3.266
 5912TIP3    H117681   7.646   0.340   3.232
 5912TIP3    H217682   7.722   0.450   3.303
 5913TIP3   OH217683   5.494   0.770   4.201
 5913TIP3    H117684   5.454   0.683   4.208
 5913TIP3    H217685   5.557   0.774   4.273
 5914TIP3   OH217686   1.219   5.340   5.478
 5914TIP3    H117687   1.205   5.401   5.406
 5914TIP3    H217688   1.183   5.257   5.447
 5915TIP3   OH217689   3.003   1.328   3.478
 5915TIP3    H117690   3.073   1.337   3.544
 5915TIP3    H217691   3.041   1.365   3.398
 5916TIP3   OH217692   4.351   7.383   1.646
 5916TIP3    H117693   4.439   7.410   1.619
 5916TIP3    H217694   4.342   7.294   1.612
 5917TIP3   OH217695   5.157   3.663   4.797
 5917TIP3    H117696   5.117   3.645   4.711
 5917TIP3    H217697   5.084   3.655   4.859
 5918TIP3   OH217698   7.460   6.740   3.434
 5918TIP3    H117699   7.418   6.826   3.425
 5918TIP3    H217700   7.471   6.709   3.344
 5919TIP3   OH217701   4.237   6.801   6.264
 5919TIP3    H117702   4.279   6.750   6.334
 5919TIP3    H217703   4.273   6.765   6.183
 5920TIP3   OH217704   6.675   6.652   4.060
 5920TIP3    H117705   6.647   6.606   3.981
 5920TIP3    H217706   6.719   6.730   4.028
 5921TIP3   OH217707   2.815   0.794   6.292
 5921TIP3    H117708   2.741   0.768   6.237
 5921TIP3    H217709   2.792   0.881   6.324
 5922TIP3   OH217710   5.568   6.452   2.540
 5922TIP3    H117711   5.499   6.398   2.578
 5922TIP3    H217712   5.537   6.542   2.551
 5923TIP3   OH217713   7.999   3.170   0.835
 5923TIP3    H117714   7.965   3.185   0.924
 5923TIP3    H217715   8.061   3.242   0.821
 5924TIP3   OH217716   0.865   1.487   4.959
 5924TIP3    H117717   0.812   1.411   4.986
 5924TIP3    H217718   0.878   1.537   5.039
 5925TIP3   OH217719   3.391   2.388   6.190
 5925TIP3    H117720   3.382   2.340   6.273
 5925TIP3    H217721   3.462   2.451   6.207
 5926TIP3   OH217722   3.515   7.230   5.922
 5926TIP3    H117723   3.496   7.262   6.010
 5926TIP3    H217724   3.504   7.306   5.865
 5927TIP3   OH217725   6.032   4.765   0.005
 5927TIP3    H117726   5.993   4.726  -0.073
 5927TIP3    H217727   5.961   4.816   0.044
 5928TIP3   OH217728   6.084   4.968   0.844
 5928TIP3    H117729   6.168   5.011   0.830
 5928TIP3    H217730   6.062   4.986   0.936
 5929TIP3   OH217731   2.752   1.483   4.727
 5929TIP3    H117732   2.744   1.436   4.644
 5929TIP3    H217733   2.798   1.564   4.704
 5930TIP3   OH217734   5.414   2.322   2.298
 5930TIP3    H117735   5.461   2.394   2.256
 5930TIP3    H217736   5.473   2.247   2.290
 5931TIP3   OH217737   2.405   3.318   2.024
 5931TIP3    H117738   2.475   3.381   2.009
 5931TIP3    H217739   2.331   3.352   1.974
 5932TIP3   OH217740   4.741   5.030   0.683
 5932TIP3    H117741   4.668   4.996   0.734
 5932TIP3    H217742   4.733   4.986   0.598
 5933TIP3   OH217743   7.515   3.788   4.874
 5933TIP3    H117744   7.486   3.857   4.815
 5933TIP3    H217745   7.434   3.754   4.913
 5934TIP3   OH217746   7.836   3.261   4.840
 5934TIP3    H117747   7.889   3.315   4.899
 5934TIP3    H217748   7.748   3.298   4.847
 5935TIP3   OH217749   4.601   1.159   1.622
 5935TIP3    H117750   4.667   1.100   1.658
 5935TIP3    H217751   4.517   1.125   1.654
 5936TIP3   OH217752   1.852   7.105   1.975
 5936TIP3    H117753   1.759   7.085   1.983
 5936TIP3    H217754   1.877   7.068   1.890
 5937TIP3   OH217755   6.632   6.630   2.470
 5937TIP3    H117756   6.667   6.645   2.558
 5937TIP3    H217757   6.703   6.656   2.411
 5938TIP3   OH217758   3.334   6.143   4.846
 5938TIP3    H117759   3.240   6.155   4.841
 5938TIP3    H217760   3.346   6.064   4.899
 5939TIP3   OH217761   1.763   6.518   0.501
 5939TIP3    H117762   1.774   6.503   0.595
 5939TIP3    H217763   1.673   6.550   0.492
 5940TIP3   OH217764   0.638   5.349   2.597
 5940TIP3    H117765   0.645   5.353   2.692
 5940TIP3    H217766   0.699   5.415   2.565
 5941TIP3   OH217767   7.134   4.488   5.900
 5941TIP3    H117768   7.071   4.416   5.894
 5941TIP3    H217769   7.151   4.498   5.993
 5942TIP3   OH217770   5.757   5.474   2.504
 5942TIP3    H117771   5.838   5.474   2.452
 5942TIP3    H217772   5.778   5.526   2.581
 5943TIP3   OH217773   2.339   1.511   5.316
 5943TIP3    H117774   2.427   1.549   5.309
 5943TIP3    H217775   2.349   1.421   5.284
 5944TIP3   OH217776   5.919   5.509   4.676
 5944TIP3    H117777   5.918   5.579   4.742
 5944TIP3    H217778   5.919   5.556   4.593
 5945TIP3   OH217779   7.922   1.960   5.093
 5945TIP3    H117780   7.990   1.992   5.153
 5945TIP3    H217781   7.969   1.901   5.034
 5946TIP3   OH217782   5.076   1.193   2.488
 5946TIP3    H117783   5.045   1.134   2.556
 5946TIP3    H217784   5.087   1.138   2.410
 5947TIP3   OH217785   5.057   2.635   1.104
 5947TIP3    H117786   5.037   2.608   1.194
 5947TIP3    H217787   5.104   2.560   1.067
 5948TIP3   OH217788   6.157   4.283   5.135
 5948TIP3    H117789   6.078   4.281   5.189
 5948TIP3    H217790   6.229   4.288   5.198
 5949TIP3   OH217791   6.291   1.390   5.146
 5949TIP3    H117792   6.235   1.447   5.198
 5949TIP3    H217793   6.241   1.374   5.066
 5950TIP3   OH217794   5.044   7.478   6.686
 5950TIP3    H117795   4.970   7.513   6.636
 5950TIP3    H217796   5.082   7.555   6.729
 5951TIP3   OH217797   2.038   7.359   4.843
 5951TIP3    H117798   1.949   7.326   4.830
 5951TIP3    H217799   2.086   7.285   4.878
 5952TIP3   OH217800   0.939   5.389   3.775
 5952TIP3    H117801   1.006   5.384   3.843
 5952TIP3    H217802   0.868   5.439   3.816
 5953TIP3   OH217803   0.922   7.083   1.123
 5953TIP3    H117804   0.894   7.065   1.033
 5953TIP3    H217805   0.840   7.089   1.173
 5954TIP3   OH217806   7.746   6.707   2.270
 5954TIP3    H117807   7.780   6.792   2.243
 5954TIP3    H217808   7.824   6.655   2.289
 5955TIP3   OH217809   1.873   0.076   2.584
 5955TIP3    H117810   1.822   0.141   2.632
 5955TIP3    H217811   1.941   0.127   2.539
 5956TIP3   OH217812   3.312   3.399   6.683
 5956TIP3    H117813   3.282   3.356   6.603
 5956TIP3    H217814   3.381   3.458   6.654
 5957TIP3   OH217815   0.743   5.970   5.904
 5957TIP3    H117816   0.713   6.057   5.930
 5957TIP3    H217817   0.823   5.985   5.853
 5958TIP3   OH217818   6.559   0.214   4.719
 5958TIP3    H117819   6.467   0.241   4.723
 5958TIP3    H217820   6.560   0.127   4.759
 5959TIP3   OH217821   7.521   6.104   5.260
 5959TIP3    H117822   7.506   6.014   5.288
 5959TIP3    H217823   7.611   6.124   5.287
 5960TIP3   OH217824   0.203   7.637   3.014
 5960TIP3    H117825   0.222   7.551   3.051
 5960TIP3    H217826   0.258   7.697   3.064
 5961TIP3   OH217827   7.111   6.669   3.324
 5961TIP3    H117828   7.045   6.625   3.270
 5961TIP3    H217829   7.188   6.613   3.319
 5962TIP3   OH217830   1.436   6.874   2.298
 5962TIP3    H117831   1.477   6.849   2.381
 5962TIP3    H217832   1.391   6.795   2.268
 5963TIP3   OH217833   6.389   1.457   3.438
 5963TIP3    H117834   6.477   1.480   3.467
 5963TIP3    H217835   6.360   1.390   3.499
 5964TIP3   OH217836   3.899   5.397   2.971
 5964TIP3    H117837   3.906   5.456   2.896
 5964TIP3    H217838   3.984   5.353   2.975
 5965TIP3   OH217839   7.477   0.553   3.597
 5965TIP3    H117840   7.517   0.625   3.646
 5965TIP3    H217841   7.528   0.550   3.516
 5966TIP3   OH217842   0.609   2.480   4.698
 5966TIP3    H117843   0.530   2.451   4.652
 5966TIP3    H217844   0.665   2.516   4.629
 5967TIP3   OH217845   3.738   5.517   5.709
 5967TIP3    H117846   3.708   5.597   5.751
 5967TIP3    H217847   3.834   5.519   5.718
 5968TIP3   OH217848   5.142   1.409   0.908
 5968TIP3    H117849   5.195   1.480   0.872
 5968TIP3    H217850   5.167   1.404   1.000
 5969TIP3   OH217851   2.992   2.218   1.685
 5969TIP3    H117852   2.979   2.282   1.755
 5969TIP3    H217853   3.027   2.141   1.729
 5970TIP3   OH217854   5.343   4.076   3.763
 5970TIP3    H117855   5.391   3.999   3.731
 5970TIP3    H217856   5.390   4.150   3.726
 5971TIP3   OH217857   0.747   1.928   5.061
 5971TIP3    H117858   0.731   1.996   5.126
 5971TIP3    H217859   0.837   1.901   5.075
 5972TIP3   OH217860   6.620   7.343   5.879
 5972TIP3    H117861   6.576   7.352   5.964
 5972TIP3    H217862   6.563   7.284   5.829
 5973TIP3   OH217863   2.802   5.910   2.395
 5973TIP3    H117864   2.785   5.964   2.472
 5973TIP3    H217865   2.714   5.884   2.365
 5974TIP3   OH217866   2.936   4.311   5.805
 5974TIP3    H117867   2.949   4.403   5.828
 5974TIP3    H217868   2.975   4.263   5.877
 5975TIP3   OH217869   3.720   5.593   2.442
 5975TIP3    H117870   3.709   5.685   2.470
 5975TIP3    H217871   3.633   5.554   2.455
 5976TIP3   OH217872   6.833   2.871   2.174
 5976TIP3    H117873   6.869   2.847   2.088
 5976TIP3    H217874   6.861   2.962   2.187
 5977TIP3   OH217875   7.346   0.140   5.641
 5977TIP3    H117876   7.327   0.229   5.612
 5977TIP3    H217877   7.440   0.141   5.662
 5978TIP3   OH217878   0.561   1.314   5.460
 5978TIP3    H117879   0.634   1.375   5.463
 5978TIP3    H217880   0.573   1.258   5.536
 5979TIP3   OH217881   4.171   1.829   1.610
 5979TIP3    H117882   4.178   1.776   1.689
 5979TIP3    H217883   4.142   1.914   1.641
 5980TIP3   OH217884   7.028   1.911   5.649
 5980TIP3    H117885   7.098   1.895   5.713
 5980TIP3    H217886   7.067   1.886   5.565
 5981TIP3   OH217887   0.218   2.430   1.261
 5981TIP3    H117888   0.159   2.372   1.308
 5981TIP3    H217889   0.245   2.495   1.326
 5982TIP3   OH217890   4.989   7.545   0.618
 5982TIP3    H117891   5.047   7.585   0.683
 5982TIP3    H217892   4.953   7.468   0.662
 5983TIP3   OH217893   7.429   0.593   4.928
 5983TIP3    H117894   7.503   0.535   4.944
 5983TIP3    H217895   7.358   0.556   4.980
 5984TIP3   OH217896   5.453   1.058   0.255
 5984TIP3    H117897   5.388   1.091   0.317
 5984TIP3    H217898   5.510   1.001   0.307
 5985TIP3   OH217899   0.038   4.672   1.136
 5985TIP3    H117900  -0.047   4.632   1.115
 5985TIP3    H217901   0.035   4.685   1.231
 5986TIP3   OH217902   3.687   0.533   4.645
 5986TIP3    H117903   3.717   0.621   4.623
 5986TIP3    H217904   3.669   0.491   4.560
 5987TIP3   OH217905   0.754   1.591   1.945
 5987TIP3    H117906   0.768   1.656   1.876
 5987TIP3    H217907   0.819   1.523   1.927
 5988TIP3   OH217908   2.507   5.133   6.082
 5988TIP3    H117909   2.502   5.215   6.033
 5988TIP3    H217910   2.578   5.084   6.041
 5989TIP3   OH217911   7.281   2.971   2.481
 5989TIP3    H117912   7.317   2.940   2.398
 5989TIP3    H217913   7.194   2.932   2.486
 5990TIP3   OH217914   4.926   3.914   0.383
 5990TIP3    H117915   4.954   4.002   0.409
 5990TIP3    H217916   4.843   3.927   0.337
 5991TIP3   OH217917   4.241   2.864   4.892
 5991TIP3    H117918   4.193   2.946   4.879
 5991TIP3    H217919   4.282   2.846   4.807
 5992TIP3   OH217920   7.590   5.499   0.645
 5992TIP3    H117921   7.508   5.544   0.663
 5992TIP3    H217922   7.657   5.552   0.689
 5993TIP3   OH217923   0.674   2.480   0.502
 5993TIP3    H117924   0.744   2.434   0.547
 5993TIP3    H217925   0.683   2.571   0.529
 5994TIP3   OH217926   1.722   4.182   2.857
 5994TIP3    H117927   1.668   4.112   2.893
 5994TIP3    H217928   1.726   4.163   2.763
 5995TIP3   OH217929   0.542   4.216   1.924
 5995TIP3    H117930   0.503   4.302   1.937
 5995TIP3    H217931   0.563   4.214   1.830
 5996TIP3   OH217932   5.093   6.898   3.872
 5996TIP3    H117933   5.055   6.964   3.929
 5996TIP3    H217934   5.092   6.817   3.924
 5997TIP3   OH217935   3.125   6.815   1.390
 5997TIP3    H117936   3.172   6.734   1.370
 5997TIP3    H217937   3.186   6.885   1.369
 5998TIP3   OH217938   3.911   5.941   5.771
 5998TIP3    H117939   3.872   5.980   5.693
 5998TIP3    H217940   3.847   5.875   5.799
 5999TIP3   OH217941   5.699   3.526   6.704
 5999TIP3    H117942   5.629   3.585   6.733
 5999TIP3    H217943   5.768   3.585   6.674
 6000TIP3   OH217944   4.279   3.199   5.950
 6000TIP3    H117945   4.339   3.166   6.017
 6000TIP3    H217946   4.294   3.294   5.949
 6001TIP3   OH217947   6.788   2.114   0.803
 6001TIP3    H117948   6.822   2.167   0.731
 6001TIP3    H217949   6.694   2.132   0.804
 6002TIP3   OH217950   5.993   0.670   5.347
 6002TIP3    H117951   5.905   0.652   5.381
 6002TIP3    H217952   6.049   0.605   5.387
 6003TIP3   OH217953   6.190   1.228   2.457
 6003TIP3    H117954   6.173   1.135   2.445
 6003TIP3    H217955   6.111   1.272   2.424
 6004TIP3   OH217956   0.105   5.337   2.354
 6004TIP3    H117957   0.120   5.350   2.260
 6004TIP3    H217958   0.012   5.320   2.361
 6005TIP3   OH217959   3.742   0.215   3.807
 6005TIP3    H117960   3.786   0.221   3.722
 6005TIP3    H217961   3.804   0.255   3.868
 6006TIP3   OH217962   6.026   5.180   5.272
 6006TIP3    H117963   6.026   5.273   5.248
 6006TIP3    H217964   6.080   5.138   5.205
 6007TIP3   OH217965   1.136   1.658   4.629
 6007TIP3    H117966   1.229   1.681   4.623
 6007TIP3    H217967   1.094   1.709   4.561
 6008TIP3   OH217968   0.610   7.651   1.871
 6008TIP3    H117969   0.637   7.728   1.821
 6008TIP3    H217970   0.548   7.684   1.936
 6009TIP3   OH217971   4.033   0.617   1.705
 6009TIP3    H117972   4.092   0.546   1.730
 6009TIP3    H217973   4.019   0.605   1.611
 6010TIP3   OH217974   0.365   7.422   6.569
 6010TIP3    H117975   0.424   7.489   6.605
 6010TIP3    H217976   0.363   7.439   6.475
 6011TIP3   OH217977   2.442   2.790   1.715
 6011TIP3    H117978   2.467   2.874   1.676
 6011TIP3    H217979   2.514   2.731   1.693
 6012TIP3   OH217980  -0.006   4.002   2.432
 6012TIP3    H117981   0.044   4.042   2.361
 6012TIP3    H217982   0.060   3.963   2.489
 6013TIP3   OH217983   5.175   2.725   4.822
 6013TIP3    H117984   5.220   2.808   4.837
 6013TIP3    H217985   5.245   2.660   4.818
 6014TIP3   OH217986   7.834   1.389   2.311
 6014TIP3    H117987   7.837   1.484   2.319
 6014TIP3    H217988   7.899   1.358   2.374
 6015TIP3   OH217989   1.762   3.163   3.761
 6015TIP3    H117990   1.771   3.183   3.854
 6015TIP3    H217991   1.777   3.069   3.755
 6016TIP3   OH217992   1.187   2.047   6.749
 6016TIP3    H117993   1.125   2.082   6.684
 6016TIP3    H217994   1.257   2.009   6.696
 6017TIP3   OH217995   6.004   0.995   4.812
 6017TIP3    H117996   6.092   1.020   4.783
 6017TIP3    H217997   6.013   0.904   4.840
 6018TIP3   OH217998   1.567   1.223   0.688
 6018TIP3    H117999   1.620   1.225   0.768
 6018TIP3    H218000   1.487   1.178   0.714
 6019TIP3   OH218001   6.048   6.565   5.708
 6019TIP3    H118002   6.066   6.532   5.797
 6019TIP3    H218003   6.078   6.656   5.710
 6020TIP3   OH218004   2.133   2.270   3.642
 6020TIP3    H118005   2.039   2.274   3.663
 6020TIP3    H218006   2.147   2.180   3.611
 6021TIP3   OH218007   7.610   6.645   6.194
 6021TIP3    H118008   7.659   6.726   6.178
 6021TIP3    H218009   7.553   6.636   6.118
 6022TIP3   OH218010   4.484   1.238   2.825
 6022TIP3    H118011   4.484   1.156   2.874
 6022TIP3    H218012   4.555   1.289   2.864
 6023TIP3   OH218013   0.813   5.258   5.151
 6023TIP3    H118014   0.894   5.213   5.175
 6023TIP3    H218015   0.760   5.258   5.230
 6024TIP3   OH218016   5.880   6.361   4.583
 6024TIP3    H118017   5.820   6.314   4.526
 6024TIP3    H218018   5.839   6.358   4.669
 6025TIP3   OH218019   7.754   7.765   1.877
 6025TIP3    H118020   7.751   7.673   1.905
 6025TIP3    H218021   7.793   7.763   1.790
 6026TIP3   OH218022   5.566   6.652   5.549
 6026TIP3    H118023   5.624   6.582   5.580
 6026TIP3    H218024   5.622   6.704   5.490
 6027TIP3   OH218025   6.145   2.465   6.619
 6027TIP3    H118026   6.108   2.409   6.551
 6027TIP3    H218027   6.221   2.416   6.652
 6028TIP3   OH218028   6.092   0.806   6.156
 6028TIP3    H118029   6.013   0.844   6.194
 6028TIP3    H218030   6.064   0.719   6.126
 6029TIP3   OH218031   0.008   3.293   5.886
 6029TIP3    H118032  -0.083   3.277   5.861
 6029TIP3    H218033   0.006   3.380   5.927
 6030TIP3   OH218034   7.409   1.158   2.134
 6030TIP3    H118035   7.494   1.146   2.093
 6030TIP3    H218036   7.381   1.070   2.159
 6031TIP3   OH218037   1.955   4.807   3.877
 6031TIP3    H118038   1.921   4.855   3.953
 6031TIP3    H218039   1.904   4.726   3.875
 6032TIP3   OH218040   1.394   0.892   2.350
 6032TIP3    H118041   1.485   0.865   2.351
 6032TIP3    H218042   1.394   0.977   2.305
 6033TIP3   OH218043   3.282   6.130   2.690
 6033TIP3    H118044   3.229   6.062   2.732
 6033TIP3    H218045   3.268   6.116   2.596
 6034TIP3   OH218046   5.262   0.275   3.072
 6034TIP3    H118047   5.217   0.273   2.988
 6034TIP3    H218048   5.344   0.321   3.054
 6035TIP3   OH218049   4.933   2.039   3.384
 6035TIP3    H118050   5.000   1.971   3.389
 6035TIP3    H218051   4.850   1.991   3.387
 6036TIP3   OH218052   6.888   2.873   1.905
 6036TIP3    H118053   6.856   2.785   1.885
 6036TIP3    H218054   6.967   2.883   1.852
 6037TIP3   OH218055   1.174   2.596   5.067
 6037TIP3    H118056   1.197   2.669   5.009
 6037TIP3    H218057   1.227   2.522   5.035
 6038TIP3   OH218058   3.075   6.413   3.391
 6038TIP3    H118059   3.139   6.343   3.404
 6038TIP3    H218060   2.993   6.368   3.371
 6039TIP3   OH218061   4.638   7.351   5.656
 6039TIP3    H118062   4.595   7.274   5.694
 6039TIP3    H218063   4.678   7.318   5.575
 6040TIP3   OH218064   1.796   2.145   4.290
 6040TIP3    H118065   1.817   2.204   4.362
 6040TIP3    H218066   1.764   2.203   4.221
 6041TIP3   OH218067   5.823   1.955   5.362
 6041TIP3    H118068   5.837   1.956   5.457
 6041TIP3    H218069   5.911   1.964   5.325
 6042TIP3   OH218070   3.071   1.852   4.771
 6042TIP3    H118071   3.134   1.886   4.835
 6042TIP3    H218072   3.120   1.786   4.722
 6043TIP3   OH218073   1.985   4.950   2.975
 6043TIP3    H118074   2.076   4.958   2.945
 6043TIP3    H218075   1.950   5.039   2.967
 6044TIP3   OH218076   6.285   6.836   4.489
 6044TIP3    H118077   6.297   6.766   4.425
 6044TIP3    H218078   6.345   6.905   4.460
 6045TIP3   OH218079   5.754   6.631   4.086
 6045TIP3    H118080   5.837   6.663   4.120
 6045TIP3    H218081   5.708   6.599   4.164
 6046TIP3   OH218082   1.103   1.837   2.402
 6046TIP3    H118083   1.011   1.849   2.425
 6046TIP3    H218084   1.109   1.864   2.310
 6047TIP3   OH218085   5.909   3.544   4.282
 6047TIP3    H118086   5.948   3.479   4.340
 6047TIP3    H218087   5.889   3.618   4.339
 6048TIP3   OH218088   2.134   7.683   6.440
 6048TIP3    H118089   2.142   7.598   6.397
 6048TIP3    H218090   2.191   7.677   6.516
 6049TIP3   OH218091   0.921   3.256   0.616
 6049TIP3    H118092   0.884   3.298   0.539
 6049TIP3    H218093   0.847   3.209   0.655
 6050TIP3   OH218094   3.862   0.511   0.519
 6050TIP3    H118095   3.864   0.511   0.423
 6050TIP3    H218096   3.902   0.594   0.543
 6051TIP3   OH218097   2.669   0.760   5.265
 6051TIP3    H118098   2.597   0.749   5.203
 6051TIP3    H218099   2.724   0.682   5.254
 6052TIP3   OH218100   7.110   4.241   2.323
 6052TIP3    H118101   7.056   4.257   2.246
 6052TIP3    H218102   7.094   4.150   2.346
 6053TIP3   OH218103   6.492   2.972   1.807
 6053TIP3    H118104   6.402   2.949   1.829
 6053TIP3    H218105   6.541   2.955   1.888
 6054TIP3   OH218106   0.170   1.447   4.506
 6054TIP3    H118107   0.161   1.541   4.492
 6054TIP3    H218108   0.138   1.432   4.595
 6055TIP3   OH218109   4.973   6.833   0.626
 6055TIP3    H118110   4.943   6.832   0.716
 6055TIP3    H218111   4.959   6.923   0.597
 6056TIP3   OH218112   4.590   2.255   4.536
 6056TIP3    H118113   4.623   2.332   4.582
 6056TIP3    H218114   4.540   2.290   4.462
 6057TIP3   OH218115   4.014   4.417   6.155
 6057TIP3    H118116   3.988   4.423   6.063
 6057TIP3    H218117   4.110   4.411   6.152
 6058TIP3   OH218118   2.423   2.553   6.709
 6058TIP3    H118119   2.409   2.505   6.628
 6058TIP3    H218120   2.473   2.630   6.683
 6059TIP3   OH218121   6.256   1.387   4.291
 6059TIP3    H118122   6.190   1.358   4.228
 6059TIP3    H218123   6.215   1.462   4.335
 6060TIP3   OH218124   1.152   7.225   5.179
 6060TIP3    H118125   1.146   7.320   5.165
 6060TIP3    H218126   1.174   7.190   5.093
 6061TIP3   OH218127   5.138   3.478   6.671
 6061TIP3    H118128   5.106   3.400   6.627
 6061TIP3    H218129   5.176   3.446   6.752
 6062TIP3   OH218130   8.002   5.443   6.316
 6062TIP3    H118131   8.091   5.409   6.308
 6062TIP3    H218132   8.011   5.518   6.375
 6063TIP3   OH218133   0.813   2.230   0.096
 6063TIP3    H118134   0.898   2.244   0.052
 6063TIP3    H218135   0.803   2.135   0.100
 6064TIP3   OH218136   0.406   3.814   3.234
 6064TIP3    H118137   0.420   3.840   3.142
 6064TIP3    H218138   0.343   3.742   3.229
 6065TIP3   OH218139   6.683   6.290   2.177
 6065TIP3    H118140   6.608   6.346   2.197
 6065TIP3    H218141   6.725   6.333   2.102
 6066TIP3   OH218142   5.749   1.023   2.745
 6066TIP3    H118143   5.691   1.020   2.669
 6066TIP3    H218144   5.701   0.977   2.814
 6067TIP3   OH218145   6.891   4.475   2.642
 6067TIP3    H118146   6.967   4.515   2.600
 6067TIP3    H218147   6.819   4.536   2.625
 6068TIP3   OH218148   4.324   3.371   2.983
 6068TIP3    H118149   4.335   3.279   3.007
 6068TIP3    H218150   4.326   3.418   3.066
 6069TIP3   OH218151   1.834   4.003   5.952
 6069TIP3    H118152   1.749   4.040   5.930
 6069TIP3    H218153   1.884   4.006   5.870
 6070TIP3   OH218154   1.499   6.920   4.209
 6070TIP3    H118155   1.418   6.962   4.182
 6070TIP3    H218156   1.543   6.985   4.264
 6071TIP3   OH218157   1.349   1.714   0.441
 6071TIP3    H118158   1.304   1.632   0.461
 6071TIP3    H218159   1.400   1.694   0.362
 6072TIP3   OH218160   4.750   2.359   3.686
 6072TIP3    H118161   4.808   2.284   3.670
 6072TIP3    H218162   4.666   2.332   3.649
 6073TIP3   OH218163   2.271   2.650   5.912
 6073TIP3    H118164   2.234   2.723   5.863
 6073TIP3    H218165   2.203   2.627   5.975
 6074TIP3   OH218166   6.249   5.239   1.722
 6074TIP3    H118167   6.227   5.264   1.632
 6074TIP3    H218168   6.201   5.158   1.738
 6075TIP3   OH218169   0.699   0.586   1.511
 6075TIP3    H118170   0.646   0.598   1.432
 6075TIP3    H218171   0.689   0.668   1.559
 6076TIP3   OH218172   4.374   1.060   6.386
 6076TIP3    H118173   4.437   1.019   6.328
 6076TIP3    H218174   4.337   1.132   6.335
 6077TIP3   OH218175   2.592   3.658   0.599
 6077TIP3    H118176   2.597   3.563   0.590
 6077TIP3    H218177   2.500   3.675   0.621
 6078TIP3   OH218178   0.775   3.910   0.060
 6078TIP3    H118179   0.718   3.875   0.129
 6078TIP3    H218180   0.828   3.977   0.104
 6079TIP3   OH218181   4.498   5.785   4.389
 6079TIP3    H118182   4.575   5.837   4.366
 6079TIP3    H218183   4.532   5.717   4.449
 6080TIP3   OH218184   7.138   0.060   0.614
 6080TIP3    H118185   7.205   0.036   0.550
 6080TIP3    H218186   7.067   0.096   0.561
 6081TIP3   OH218187   4.529   0.027   5.743
 6081TIP3    H118188   4.549   0.006   5.835
 6081TIP3    H218189   4.532   0.122   5.739
 6082TIP3   OH218190   7.911   0.932   1.533
 6082TIP3    H118191   8.005   0.916   1.537
 6082TIP3    H218192   7.899   0.984   1.453
 6083TIP3   OH218193   6.996   1.918   3.922
 6083TIP3    H118194   7.036   2.001   3.949
 6083TIP3    H218195   7.015   1.912   3.828
 6084TIP3   OH218196   5.213   6.646   2.711
 6084TIP3    H118197   5.276   6.704   2.668
 6084TIP3    H218198   5.143   6.705   2.739
 6085TIP3   OH218199   7.035   5.651   5.984
 6085TIP3    H118200   6.952   5.684   6.019
 6085TIP3    H218201   7.042   5.691   5.898
 6086TIP3   OH218202   1.352   0.573   3.944
 6086TIP3    H118203   1.362   0.595   4.037
 6086TIP3    H218204   1.403   0.493   3.933
 6087TIP3   OH218205   6.153   4.952   1.850
 6087TIP3    H118206   6.167   4.869   1.896
 6087TIP3    H218207   6.182   5.019   1.912
 6088TIP3   OH218208   7.592   7.491   0.303
 6088TIP3    H118209   7.555   7.479   0.390
 6088TIP3    H218210   7.518   7.515   0.248
 6089TIP3   OH218211   2.876   5.796   3.395
 6089TIP3    H118212   2.957   5.817   3.440
 6089TIP3    H218213   2.821   5.755   3.461
 6090TIP3   OH218214   2.244   7.665   4.223
 6090TIP3    H118215   2.199   7.736   4.268
 6090TIP3    H218216   2.175   7.617   4.178
 6091TIP3   OH218217   1.329   3.124   3.080
 6091TIP3    H118218   1.415   3.159   3.057
 6091TIP3    H218219   1.279   3.128   2.998
 6092TIP3   OH218220   4.481   4.908   1.124
 6092TIP3    H118221   4.407   4.848   1.124
 6092TIP3    H218222   4.525   4.892   1.208
 6093TIP3   OH218223   7.877   6.663   3.850
 6093TIP3    H118224   7.905   6.754   3.850
 6093TIP3    H218225   7.901   6.630   3.764
 6094TIP3   OH218226   1.899   0.542   6.594
 6094TIP3    H118227   1.809   0.509   6.590
 6094TIP3    H218228   1.906   0.580   6.681
 6095TIP3   OH218229   1.767   5.797   6.697
 6095TIP3    H118230   1.703   5.788   6.626
 6095TIP3    H218231   1.718   5.838   6.769
 6096TIP3   OH218232   2.257   3.556   1.386
 6096TIP3    H118233   2.326   3.594   1.331
 6096TIP3    H218234   2.305   3.517   1.460
 6097TIP3   OH218235   3.540   3.527   6.578
 6097TIP3    H118236   3.579   3.518   6.491
 6097TIP3    H218237   3.543   3.621   6.596
 6098TIP3   OH218238   6.553   1.423   1.338
 6098TIP3    H118239   6.545   1.329   1.354
 6098TIP3    H218240   6.532   1.433   1.245
 6099TIP3   OH218241   4.851   6.579   3.649
 6099TIP3    H118242   4.925   6.640   3.652
 6099TIP3    H218243   4.890   6.494   3.632
 6100TIP3   OH218244   7.560   7.259   1.032
 6100TIP3    H118245   7.531   7.177   1.072
 6100TIP3    H218246   7.646   7.239   0.997
 6101TIP3   OH218247   0.984   1.846   4.309
 6101TIP3    H118248   1.072   1.859   4.344
 6101TIP3    H218249   0.927   1.901   4.364
 6102TIP3   OH218250   3.822   5.272   1.994
 6102TIP3    H118251   3.887   5.329   2.037
 6102TIP3    H218252   3.833   5.187   2.036
 6103TIP3   OH218253   3.006   6.373   0.806
 6103TIP3    H118254   3.013   6.375   0.711
 6103TIP3    H218255   2.935   6.434   0.826
 6104TIP3   OH218256   2.214   0.861   2.626
 6104TIP3    H118257   2.284   0.870   2.691
 6104TIP3    H218258   2.244   0.789   2.570
 6105TIP3   OH218259   1.353   6.010   1.465
 6105TIP3    H118260   1.260   6.031   1.461
 6105TIP3    H218261   1.369   5.991   1.558
 6106TIP3   OH218262   2.529   3.271   3.757
 6106TIP3    H118263   2.462   3.338   3.742
 6106TIP3    H218264   2.531   3.221   3.676
 6107TIP3   OH218265   2.727   1.190   4.959
 6107TIP3    H118266   2.745   1.278   4.993
 6107TIP3    H218267   2.807   1.165   4.914
 6108TIP3   OH218268   6.616   3.809   1.155
 6108TIP3    H118269   6.560   3.797   1.231
 6108TIP3    H218270   6.610   3.902   1.134
 6109TIP3   OH218271   4.572   0.364   1.724
 6109TIP3    H118272   4.485   0.326   1.717
 6109TIP3    H218273   4.632   0.290   1.714
 6110TIP3   OH218274   1.778   6.237   0.410
 6110TIP3    H118275   1.747   6.301   0.474
 6110TIP3    H218276   1.854   6.278   0.369
 6111TIP3   OH218277   7.213   0.881   5.340
 6111TIP3    H118278   7.175   0.953   5.390
 6111TIP3    H218279   7.234   0.919   5.254
 6112TIP3   OH218280   4.783   2.347   3.961
 6112TIP3    H118281   4.785   2.351   3.866
 6112TIP3    H218282   4.871   2.376   3.988
 6113TIP3   OH218283   7.981   5.506   1.437
 6113TIP3    H118284   7.978   5.535   1.346
 6113TIP3    H218285   8.066   5.538   1.470
 6114TIP3   OH218286   5.397   4.101   2.607
 6114TIP3    H118287   5.360   4.094   2.695
 6114TIP3    H218288   5.335   4.055   2.551
 6115TIP3   OH218289   3.632   4.883   1.839
 6115TIP3    H118290   3.603   4.809   1.893
 6115TIP3    H218291   3.703   4.847   1.785
 6116TIP3   OH218292   0.377   0.085   2.190
 6116TIP3    H118293   0.404   0.135   2.267
 6116TIP3    H218294   0.281   0.087   2.193
 6117TIP3   OH218295   4.412   4.391   3.474
 6117TIP3    H118296   4.473   4.456   3.509
 6117TIP3    H218297   4.467   4.333   3.421
 6118TIP3   OH218298   2.445   0.408   1.791
 6118TIP3    H118299   2.486   0.489   1.820
 6118TIP3    H218300   2.382   0.386   1.860
 6119TIP3   OH218301   3.486   0.829   4.791
 6119TIP3    H118302   3.417   0.844   4.725
 6119TIP3    H218303   3.564   0.868   4.753
 6120TIP3   OH218304   0.294   6.466   0.572
 6120TIP3    H118305   0.295   6.440   0.480
 6120TIP3    H218306   0.205   6.498   0.587
 6121TIP3   OH218307   6.934   0.050   0.926
 6121TIP3    H118308   6.866  -0.011   0.896
 6121TIP3    H218309   6.910   0.069   1.017
 6122TIP3   OH218310   1.960   3.974   5.323
 6122TIP3    H118311   2.025   3.996   5.257
 6122TIP3    H218312   1.988   3.888   5.357
 6123TIP3   OH218313   5.743   6.931   2.131
 6123TIP3    H118314   5.793   6.992   2.077
 6123TIP3    H218315   5.662   6.917   2.083
 6124TIP3   OH218316   2.905   6.887   4.066
 6124TIP3    H118317   2.814   6.896   4.041
 6124TIP3    H218318   2.915   6.795   4.089
 6125TIP3   OH218319   6.348   5.528   5.934
 6125TIP3    H118320   6.320   5.586   6.005
 6125TIP3    H218321   6.354   5.442   5.975
 6126TIP3   OH218322   7.678   6.988   1.767
 6126TIP3    H118323   7.583   6.973   1.764
 6126TIP3    H218324   7.686   7.081   1.789
 6127TIP3   OH218325   1.595   4.499   6.682
 6127TIP3    H118326   1.644   4.571   6.643
 6127TIP3    H218327   1.587   4.434   6.613
 6128TIP3   OH218328   0.583   6.457   1.127
 6128TIP3    H118329   0.665   6.466   1.177
 6128TIP3    H218330   0.562   6.547   1.100
 6129TIP3   OH218331   6.261   0.011   5.450
 6129TIP3    H118332   6.289   0.103   5.451
 6129TIP3    H218333   6.342  -0.039   5.455
 6130TIP3   OH218334   1.293   2.281   6.427
 6130TIP3    H118335   1.309   2.340   6.353
 6130TIP3    H218336   1.208   2.307   6.462
 6131TIP3   OH218337   1.425   3.429   5.191
 6131TIP3    H118338   1.386   3.505   5.148
 6131TIP3    H218339   1.495   3.401   5.132
 6132TIP3   OH218340   3.597   4.042   5.724
 6132TIP3    H118341   3.645   4.112   5.679
 6132TIP3    H218342   3.506   4.055   5.699
 6133TIP3   OH218343   1.808   6.773   0.609
 6133TIP3    H118344   1.787   6.694   0.560
 6133TIP3    H218345   1.772   6.844   0.556
 6134TIP3   OH218346   1.448   6.703   1.733
 6134TIP3    H118347   1.355   6.698   1.759
 6134TIP3    H218348   1.450   6.770   1.665
 6135TIP3   OH218349   3.635   6.993   5.928
 6135TIP3    H118350   3.581   6.916   5.945
 6135TIP3    H218351   3.574   7.066   5.924
 6136TIP3   OH218352   0.928   4.326   3.233
 6136TIP3    H118353   0.953   4.419   3.232
 6136TIP3    H218354   0.942   4.299   3.323
 6137TIP3   OH218355   1.055   5.938   4.745
 6137TIP3    H118356   0.962   5.953   4.760
 6137TIP3    H218357   1.099   5.988   4.814
 6138TIP3   OH218358   6.944   2.492   6.241
 6138TIP3    H118359   6.994   2.530   6.313
 6138TIP3    H218360   7.010   2.445   6.188
 6139TIP3   OH218361   6.244   5.349   6.252
 6139TIP3    H118362   6.230   5.396   6.335
 6139TIP3    H218363   6.186   5.393   6.190
 6140TIP3   OH218364   5.403   7.528   3.760
 6140TIP3    H118365   5.391   7.466   3.688
 6140TIP3    H218366   5.451   7.479   3.826
 6141TIP3   OH218367   2.494   2.266   1.191
 6141TIP3    H118368   2.459   2.184   1.227
 6141TIP3    H218369   2.535   2.309   1.266
 6142TIP3   OH218370   1.095   7.228   0.832
 6142TIP3    H118371   1.089   7.134   0.815
 6142TIP3    H218372   1.157   7.260   0.766
 6143TIP3   OH218373   6.224   1.937   0.438
 6143TIP3    H118374   6.225   1.949   0.343
 6143TIP3    H218375   6.266   1.852   0.452
 6144TIP3   OH218376   7.125   4.981   4.275
 6144TIP3    H118377   7.211   4.958   4.310
 6144TIP3    H218378   7.064   4.961   4.346
 6145TIP3   OH218379   5.962   3.919   0.524
 6145TIP3    H118380   5.925   3.834   0.499
 6145TIP3    H218381   5.962   3.970   0.442
 6146TIP3   OH218382   3.514   6.749   5.941
 6146TIP3    H118383   3.423   6.739   5.911
 6146TIP3    H218384   3.543   6.660   5.957
 6147TIP3   OH218385   0.437   2.695   3.593
 6147TIP3    H118386   0.383   2.626   3.632
 6147TIP3    H218387   0.467   2.746   3.668
 6148TIP3   OH218388   1.797   7.246   3.845
 6148TIP3    H118389   1.800   7.230   3.751
 6148TIP3    H218390   1.721   7.198   3.876
 6149TIP3   OH218391   0.530   6.932   1.710
 6149TIP3    H118392   0.516   7.022   1.740
 6149TIP3    H218393   0.507   6.934   1.617
 6150TIP3   OH218394   6.722   1.455   6.408
 6150TIP3    H118395   6.709   1.391   6.338
 6150TIP3    H218396   6.721   1.540   6.363
 6151TIP3   OH218397   1.250   5.668   1.552
 6151TIP3    H118398   1.324   5.652   1.610
 6151TIP3    H218399   1.289   5.697   1.470
 6152TIP3   OH218400   2.622   3.832   5.964
 6152TIP3    H118401   2.659   3.869   5.884
 6152TIP3    H218402   2.593   3.908   6.014
 6153TIP3   OH218403   5.766   5.529   3.375
 6153TIP3    H118404   5.677   5.565   3.376
 6153TIP3    H218405   5.821   5.604   3.353
 6154TIP3   OH218406   1.292   0.275   6.586
 6154TIP3    H118407   1.280   0.186   6.620
 6154TIP3    H218408   1.352   0.266   6.513
 6155TIP3   OH218409   1.020   4.973   3.141
 6155TIP3    H118410   1.070   5.042   3.099
 6155TIP3    H218411   1.085   4.925   3.193
 6156TIP3   OH218412   0.677   1.832   1.302
 6156TIP3    H118413   0.765   1.852   1.334
 6156TIP3    H218414   0.648   1.912   1.258
 6157TIP3   OH218415   3.133   2.431   5.472
 6157TIP3    H118416   3.223   2.428   5.440
 6157TIP3    H218417   3.110   2.524   5.468
 6158TIP3   OH218418   3.682   3.078   1.742
 6158TIP3    H118419   3.727   3.152   1.701
 6158TIP3    H218420   3.589   3.096   1.728
 6159TIP3   OH218421   5.167   5.483   2.305
 6159TIP3    H118422   5.119   5.498   2.386
 6159TIP3    H218423   5.201   5.394   2.313
 6160TIP3   OH218424   5.909   0.642   2.639
 6160TIP3    H118425   5.995   0.604   2.659
 6160TIP3    H218426   5.912   0.661   2.546
 6161TIP3   OH218427   6.182   3.616   4.265
 6161TIP3    H118428   6.088   3.602   4.252
 6161TIP3    H218429   6.193   3.711   4.261
 6162TIP3   OH218430   3.577   7.164   0.553
 6162TIP3    H118431   3.595   7.257   0.540
 6162TIP3    H218432   3.625   7.120   0.483
 6163TIP3   OH218433   0.205   4.689   6.499
 6163TIP3    H118434   0.245   4.624   6.441
 6163TIP3    H218435   0.169   4.754   6.439
 6164TIP3   OH218436   7.851   4.493   3.075
 6164TIP3    H118437   7.791   4.493   3.149
 6164TIP3    H218438   7.852   4.584   3.045
 6165TIP3   OH218439   1.319   0.321   1.970
 6165TIP3    H118440   1.286   0.271   1.896
 6165TIP3    H218441   1.411   0.338   1.948
 6166TIP3   OH218442   5.664   6.641   2.831
 6166TIP3    H118443   5.648   6.625   2.738
 6166TIP3    H218444   5.577   6.639   2.871
 6167TIP3   OH218445   3.485   0.398   3.105
 6167TIP3    H118446   3.464   0.324   3.162
 6167TIP3    H218447   3.461   0.475   3.156
 6168TIP3   OH218448   4.295   6.193   4.123
 6168TIP3    H118449   4.374   6.247   4.125
 6168TIP3    H218450   4.241   6.226   4.195
 6169TIP3   OH218451   0.807   6.204   5.640
 6169TIP3    H118452   0.868   6.139   5.675
 6169TIP3    H218453   0.726   6.155   5.624
 6170TIP3   OH218454   7.247   5.690   4.995
 6170TIP3    H118455   7.246   5.758   4.929
 6170TIP3    H218456   7.172   5.710   5.051
 6171TIP3   OH218457   3.123   2.285   1.345
 6171TIP3    H118458   3.123   2.282   1.250
 6171TIP3    H218459   3.213   2.309   1.369
 6172TIP3   OH218460   1.529   7.089   0.746
 6172TIP3    H118461   1.618   7.119   0.729
 6172TIP3    H218462   1.520   7.092   0.841
 6173TIP3   OH218463   1.324   6.238   2.224
 6173TIP3    H118464   1.239   6.270   2.195
 6173TIP3    H218465   1.379   6.242   2.145
 6174TIP3   OH218466   4.049   0.314   2.985
 6174TIP3    H118467   4.036   0.354   2.899
 6174TIP3    H218468   3.979   0.351   3.039
 6175TIP3   OH218469   1.833   6.825   5.310
 6175TIP3    H118470   1.886   6.772   5.251
 6175TIP3    H218471   1.881   6.825   5.392
 6176TIP3   OH218472   2.290   5.896   2.815
 6176TIP3    H118473   2.208   5.946   2.827
 6176TIP3    H218474   2.277   5.816   2.865
 6177TIP3   OH218475   8.091   5.795   0.262
 6177TIP3    H118476   8.177   5.836   0.268
 6177TIP3    H218477   8.031   5.867   0.245
 6178TIP3   OH218478   1.833   0.456   3.092
 6178TIP3    H118479   1.902   0.483   3.152
 6178TIP3    H218480   1.768   0.413   3.147
 6179TIP3   OH218481   0.957   3.950   3.824
 6179TIP3    H118482   0.909   4.030   3.843
 6179TIP3    H218483   0.900   3.901   3.765
 6180TIP3   OH218484   0.040   1.124   3.561
 6180TIP3    H118485   0.057   1.194   3.624
 6180TIP3    H218486   0.009   1.169   3.482
 6181TIP3   OH218487   3.100   6.057   2.150
 6181TIP3    H118488   3.007   6.036   2.156
 6181TIP3    H218489   3.137   5.989   2.095
 6182TIP3   OH218490   6.201   4.358   3.862
 6182TIP3    H118491   6.266   4.395   3.802
 6182TIP3    H218492   6.118   4.367   3.816
 6183TIP3   OH218493   6.546   6.775   5.611
 6183TIP3    H118494   6.569   6.853   5.662
 6183TIP3    H218495   6.585   6.702   5.659
 6184TIP3   OH218496   5.095   0.131   2.604
 6184TIP3    H118497   5.075   0.063   2.668
 6184TIP3    H218498   5.108   0.083   2.522
 6185TIP3   OH218499   3.437   5.981   5.344
 6185TIP3    H118500   3.492   5.943   5.275
 6185TIP3    H218501   3.491   6.050   5.382
 6186TIP3   OH218502   4.975   4.294   6.090
 6186TIP3    H118503   5.051   4.246   6.056
 6186TIP3    H218504   4.932   4.232   6.149
 6187TIP3   OH218505   6.506   7.335   3.311
 6187TIP3    H118506   6.467   7.378   3.235
 6187TIP3    H218507   6.597   7.365   3.311
 6188TIP3   OH218508   5.071   3.205   5.243
 6188TIP3    H118509   5.026   3.287   5.222
 6188TIP3    H218510   5.073   3.202   5.339
 6189TIP3   OH218511   4.672   4.014   3.671
 6189TIP3    H118512   4.693   4.003   3.764
 6189TIP3    H218513   4.642   3.928   3.643
 6190TIP3   OH218514   2.515   5.664   2.808
 6190TIP3    H118515   2.437   5.613   2.831
 6190TIP3    H218516   2.491   5.708   2.727
 6191TIP3   OH218517   0.666   1.739   0.439
 6191TIP3    H118518   0.605   1.701   0.501
 6191TIP3    H218519   0.705   1.664   0.394
 6192TIP3   OH218520   7.587   6.043   5.668
 6192TIP3    H118521   7.604   6.101   5.743
 6192TIP3    H218522   7.630   5.961   5.691
 6193TIP3   OH218523   7.590   2.071   0.865
 6193TIP3    H118524   7.668   2.025   0.896
 6193TIP3    H218525   7.571   2.134   0.934
 6194TIP3   OH218526   8.123   1.602   5.122
 6194TIP3    H118527   8.090   1.590   5.211
 6194TIP3    H218528   8.183   1.529   5.109
 6195TIP3   OH218529   2.498   0.820   6.387
 6195TIP3    H118530   2.448   0.898   6.362
 6195TIP3    H218531   2.493   0.763   6.310
 6196TIP3   OH218532   4.938   5.435   6.710
 6196TIP3    H118533   4.948   5.438   6.805
 6196TIP3    H218534   4.981   5.354   6.683
 6197TIP3   OH218535   6.408   4.954   6.741
 6197TIP3    H118536   6.340   4.959   6.809
 6197TIP3    H218537   6.462   5.032   6.756
 6198TIP3   OH218538   1.446   3.215   1.352
 6198TIP3    H118539   1.492   3.196   1.270
 6198TIP3    H218540   1.359   3.177   1.340
 6199TIP3   OH218541   6.578   6.973   5.783
 6199TIP3    H118542   6.528   7.044   5.742
 6199TIP3    H218543   6.663   7.012   5.804
 6200TIP3   OH218544   1.890   5.954   5.050
 6200TIP3    H118545   1.870   6.011   5.125
 6200TIP3    H218546   1.906   5.869   5.089
 6201TIP3   OH218547   2.152   2.062   4.142
 6201TIP3    H118548   2.144   2.123   4.068
 6201TIP3    H218549   2.230   2.011   4.122
 6202TIP3   OH218550   3.689   1.304   5.003
 6202TIP3    H118551   3.778   1.338   5.013
 6202TIP3    H218552   3.634   1.364   5.054
 6203TIP3   OH218553   4.519   4.088   5.358
 6203TIP3    H118554   4.527   4.025   5.430
 6203TIP3    H218555   4.474   4.040   5.289
 6204TIP3   OH218556   5.166   6.053   3.470
 6204TIP3    H118557   5.171   6.057   3.566
 6204TIP3    H218558   5.243   6.099   3.439
 6205TIP3   OH218559   7.731   0.987   4.304
 6205TIP3    H118560   7.820   0.969   4.334
 6205TIP3    H218561   7.742   1.031   4.220
 6206TIP3   OH218562   2.383   6.605   4.224
 6206TIP3    H118563   2.311   6.581   4.166
 6206TIP3    H218564   2.351   6.682   4.272
 6207TIP3   OH218565   7.289   2.291   5.206
 6207TIP3    H118566   7.267   2.203   5.176
 6207TIP3    H218567   7.208   2.341   5.196
 6208TIP3   OH218568   4.987   6.016   4.647
 6208TIP3    H118569   5.071   6.002   4.603
 6208TIP3    H218570   4.984   6.110   4.661
 6209TIP3   OH218571   6.254   3.191   6.042
 6209TIP3    H118572   6.249   3.246   5.963
 6209TIP3    H218573   6.326   3.228   6.093
 6210TIP3   OH218574   2.122   2.644   4.884
 6210TIP3    H118575   2.138   2.715   4.821
 6210TIP3    H218576   2.033   2.615   4.865
 6211TIP3   OH218577   2.649   0.096   6.533
 6211TIP3    H118578   2.580   0.090   6.466
 6211TIP3    H218579   2.674   0.189   6.533
 6212TIP3   OH218580   3.409   7.442   2.500
 6212TIP3    H118581   3.314   7.432   2.493
 6212TIP3    H218582   3.439   7.446   2.409
 6213TIP3   OH218583   5.630   3.694   2.380
 6213TIP3    H118584   5.725   3.688   2.371
 6213TIP3    H218585   5.597   3.681   2.291
 6214TIP3   OH218586   6.718   0.276   4.498
 6214TIP3    H118587   6.688   0.363   4.472
 6214TIP3    H218588   6.656   0.249   4.566
 6215TIP3   OH218589   4.658   6.278   0.893
 6215TIP3    H118590   4.703   6.314   0.970
 6215TIP3    H218591   4.574   6.248   0.927
 6216TIP3   OH218592   4.938   6.014   3.337
 6216TIP3    H118593   4.869   6.009   3.402
 6216TIP3    H218594   5.012   6.054   3.383
 6217TIP3   OH218595   5.926   1.266   0.494
 6217TIP3    H118596   5.860   1.233   0.555
 6217TIP3    H218597   6.009   1.258   0.542
 6218TIP3   OH218598   1.416   3.588   6.070
 6218TIP3    H118599   1.479   3.612   6.137
 6218TIP3    H218600   1.468   3.549   6.000
 6219TIP3   OH218601   2.719   0.687   5.834
 6219TIP3    H118602   2.718   0.755   5.902
 6219TIP3    H218603   2.722   0.604   5.883
 6220TIP3   OH218604   7.048   0.139   3.928
 6220TIP3    H118605   6.959   0.168   3.948
 6220TIP3    H218606   7.071   0.185   3.847
 6221TIP3   OH218607   0.713   6.947   5.482
 6221TIP3    H118608   0.795   6.910   5.515
 6221TIP3    H218609   0.676   6.879   5.426
 6222TIP3   OH218610   4.952   3.309   3.791
 6222TIP3    H118611   4.979   3.398   3.768
 6222TIP3    H218612   4.988   3.295   3.879
 6223TIP3   OH218613   8.255   5.024   3.498
 6223TIP3    H118614   8.345   4.996   3.479
 6223TIP3    H218615   8.262   5.118   3.510
 6224TIP3   OH218616   0.145   5.489   1.709
 6224TIP3    H118617   0.128   5.533   1.792
 6224TIP3    H218618   0.190   5.555   1.656
 6225TIP3   OH218619   4.222   3.006   1.851
 6225TIP3    H118620   4.284   2.973   1.787
 6225TIP3    H218621   4.137   2.998   1.808
 6226TIP3   OH218622   6.437   2.095   3.471
 6226TIP3    H118623   6.522   2.139   3.461
 6226TIP3    H218624   6.397   2.137   3.547
 6227TIP3   OH218625   3.675   6.894   6.672
 6227TIP3    H118626   3.684   6.868   6.763
 6227TIP3    H218627   3.613   6.831   6.635
 6228TIP3   OH218628   5.378   4.824   1.310
 6228TIP3    H118629   5.372   4.906   1.358
 6228TIP3    H218630   5.463   4.787   1.337
 6229TIP3   OH218631   4.483   6.805   1.738
 6229TIP3    H118632   4.529   6.734   1.784
 6229TIP3    H218633   4.390   6.783   1.748
 6230TIP3   OH218634   2.421   1.984   0.901
 6230TIP3    H118635   2.464   2.033   0.830
 6230TIP3    H218636   2.491   1.969   0.964
 6231TIP3   OH218637   0.083   1.858   0.510
 6231TIP3    H118638   0.079   1.946   0.474
 6231TIP3    H218639   0.075   1.870   0.605
 6232TIP3   OH218640   7.121   6.820   2.597
 6232TIP3    H118641   7.092   6.835   2.687
 6232TIP3    H218642   7.111   6.725   2.585
 6233TIP3   OH218643   6.229   2.124   4.084
 6233TIP3    H118644   6.268   2.070   4.015
 6233TIP3    H218645   6.224   2.212   4.047
 6234TIP3   OH218646   5.131   5.784   6.706
 6234TIP3    H118647   5.061   5.751   6.649
 6234TIP3    H218648   5.184   5.839   6.649
 6235TIP3   OH218649   2.608   5.968   0.134
 6235TIP3    H118650   2.698   5.946   0.113
 6235TIP3    H218651   2.579   6.022   0.061
 6236TIP3   OH218652   6.066   2.779   2.641
 6236TIP3    H118653   6.140   2.837   2.623
 6236TIP3    H218654   6.000   2.804   2.576
 6237TIP3   OH218655   4.887   3.814   1.080
 6237TIP3    H118656   4.823   3.878   1.113
 6237TIP3    H218657   4.876   3.738   1.136
 6238TIP3   OH218658   6.758   4.407   0.542
 6238TIP3    H118659   6.755   4.502   0.554
 6238TIP3    H218660   6.673   4.386   0.505
 6239TIP3   OH218661   5.185   2.426   3.556
 6239TIP3    H118662   5.263   2.382   3.591
 6239TIP3    H218663   5.207   2.442   3.464
 6240TIP3   OH218664   4.218   1.942   4.757
 6240TIP3    H118665   4.146   1.927   4.695
 6240TIP3    H218666   4.274   2.007   4.714
 6241TIP3   OH218667   2.605   1.580   0.527
 6241TIP3    H118668   2.568   1.664   0.555
 6241TIP3    H218669   2.559   1.560   0.445
 6242TIP3   OH218670   0.820   3.998   2.245
 6242TIP3    H118671   0.851   3.964   2.161
 6242TIP3    H218672   0.749   4.058   2.222
 6243TIP3   OH218673   3.953   0.220   5.787
 6243TIP3    H118674   4.010   0.232   5.864
 6243TIP3    H218675   3.997   0.153   5.735
 6244TIP3   OH218676   5.024   4.945   2.207
 6244TIP3    H118677   5.022   4.855   2.241
 6244TIP3    H218678   4.933   4.963   2.182
 6245TIP3   OH218679   7.762   1.895   0.376
 6245TIP3    H118680   7.743   1.987   0.391
 6245TIP3    H218681   7.822   1.894   0.302
 6246TIP3   OH218682   3.904   6.628   6.508
 6246TIP3    H118683   3.868   6.562   6.449
 6246TIP3    H218684   3.916   6.706   6.452
 6247TIP3   OH218685   0.548   6.301   2.226
 6247TIP3    H118686   0.467   6.343   2.199
 6247TIP3    H218687   0.542   6.294   2.321
 6248TIP3   OH218688   5.598   2.409   6.231
 6248TIP3    H118689   5.524   2.451   6.189
 6248TIP3    H218690   5.569   2.319   6.248
 6249TIP3   OH218691   6.710   7.623   6.735
 6249TIP3    H118692   6.639   7.566   6.704
 6249TIP3    H218693   6.670   7.710   6.739
 6250TIP3   OH218694   5.133   5.827   1.041
 6250TIP3    H118695   5.083   5.752   1.007
 6250TIP3    H218696   5.084   5.904   1.010
 6251TIP3   OH218697   5.840   7.421   1.859
 6251TIP3    H118698   5.889   7.348   1.823
 6251TIP3    H218699   5.772   7.440   1.794
 6252TIP3   OH218700   6.858   7.319   1.697
 6252TIP3    H118701   6.789   7.350   1.756
 6252TIP3    H218702   6.857   7.381   1.624
 6253TIP3   OH218703   5.716   5.132   6.512
 6253TIP3    H118704   5.676   5.049   6.487
 6253TIP3    H218705   5.674   5.197   6.457
 6254TIP3   OH218706   0.067   5.139   2.724
 6254TIP3    H118707   0.133   5.128   2.656
 6254TIP3    H218708  -0.008   5.086   2.694
 6255TIP3   OH218709   4.373   1.090   4.559
 6255TIP3    H118710   4.318   1.014   4.541
 6255TIP3    H218711   4.327   1.163   4.516
 6256TIP3   OH218712   7.427   2.125   6.638
 6256TIP3    H118713   7.491   2.058   6.618
 6256TIP3    H218714   7.442   2.146   6.730
 6257TIP3   OH218715   5.889   3.591   5.275
 6257TIP3    H118716   5.839   3.522   5.231
 6257TIP3    H218717   5.967   3.602   5.221
 6258TIP3   OH218718   7.076   0.546   0.323
 6258TIP3    H118719   7.000   0.596   0.293
 6258TIP3    H218720   7.058   0.526   0.415
 6259TIP3   OH218721   6.622   4.983   4.813
 6259TIP3    H118722   6.542   4.951   4.854
 6259TIP3    H218723   6.622   4.943   4.726
 6260TIP3   OH218724   6.775   7.188   5.276
 6260TIP3    H118725   6.834   7.243   5.327
 6260TIP3    H218726   6.722   7.141   5.341
 6261TIP3   OH218727   4.001   3.014   6.133
 6261TIP3    H118728   4.016   3.107   6.147
 6261TIP3    H218729   3.951   2.986   6.209
 6262TIP3   OH218730   1.490   0.783   4.569
 6262TIP3    H118731   1.568   0.758   4.519
 6262TIP3    H218732   1.523   0.843   4.636
 6263TIP3   OH218733   5.171   4.315   5.817
 6263TIP3    H118734   5.226   4.298   5.740
 6263TIP3    H218735   5.085   4.279   5.793
 6264TIP3   OH218736   1.941   4.697   4.367
 6264TIP3    H118737   1.943   4.655   4.453
 6264TIP3    H218738   1.995   4.641   4.312
 6265TIP3   OH218739   3.766   3.907   4.869
 6265TIP3    H118740   3.765   3.919   4.964
 6265TIP3    H218741   3.859   3.902   4.847
 6266TIP3   OH218742   4.066   0.518   2.065
 6266TIP3    H118743   3.991   0.550   2.114
 6266TIP3    H218744   4.042   0.430   2.037
 6267TIP3   OH218745   2.852   0.305   0.686
 6267TIP3    H118746   2.912   0.273   0.753
 6267TIP3    H218747   2.800   0.229   0.662
 6268TIP3   OH218748   6.424   3.228   4.029
 6268TIP3    H118749   6.436   3.162   4.097
 6268TIP3    H218750   6.415   3.310   4.076
 6269TIP3   OH218751   1.774   3.525   4.756
 6269TIP3    H118752   1.832   3.555   4.687
 6269TIP3    H218753   1.709   3.594   4.765
 6270TIP3   OH218754   5.094   6.680   4.843
 6270TIP3    H118755   5.053   6.766   4.853
 6270TIP3    H218756   5.021   6.618   4.839
 6271TIP3   OH218757   1.709   1.919   3.478
 6271TIP3    H118758   1.801   1.945   3.478
 6271TIP3    H218759   1.710   1.825   3.464
 6272TIP3   OH218760   1.367   2.047   6.296
 6272TIP3    H118761   1.284   2.002   6.280
 6272TIP3    H218762   1.352   2.096   6.377
 6273TIP3   OH218763   8.062   1.057   5.070
 6273TIP3    H118764   8.008   1.099   5.003
 6273TIP3    H218765   8.136   1.117   5.082
 6274TIP3   OH218766   6.282   0.249   4.763
 6274TIP3    H118767   6.334   0.235   4.842
 6274TIP3    H218768   6.235   0.331   4.779
 6275TIP3   OH218769   1.402   4.588   4.402
 6275TIP3    H118770   1.365   4.576   4.314
 6275TIP3    H218771   1.445   4.673   4.398
 6276TIP3   OH218772   3.032   4.152   1.613
 6276TIP3    H118773   3.068   4.195   1.690
 6276TIP3    H218774   3.107   4.107   1.574
 6277TIP3   OH218775   6.304   1.794   2.348
 6277TIP3    H118776   6.311   1.885   2.377
 6277TIP3    H218777   6.372   1.785   2.281
 6278TIP3   OH218778   2.239   6.139   5.722
 6278TIP3    H118779   2.276   6.100   5.801
 6278TIP3    H218780   2.313   6.145   5.662
 6279TIP3   OH218781   0.384   0.297   2.927
 6279TIP3    H118782   0.299   0.333   2.951
 6279TIP3    H218783   0.365   0.214   2.883
 6280TIP3   OH218784   1.413   5.296   1.716
 6280TIP3    H118785   1.388   5.321   1.627
 6280TIP3    H218786   1.331   5.268   1.756
 6281TIP3   OH218787   6.091   5.750   5.244
 6281TIP3    H118788   6.031   5.799   5.301
 6281TIP3    H218789   6.170   5.737   5.296
 6282TIP3   OH218790   4.946   7.062   6.197
 6282TIP3    H118791   4.871   7.016   6.158
 6282TIP3    H218792   4.977   7.120   6.128
 6283TIP3   OH218793   2.361   0.497   6.528
 6283TIP3    H118794   2.412   0.443   6.588
 6283TIP3    H218795   2.292   0.534   6.582
 6284TIP3   OH218796   5.968   5.986   4.981
 6284TIP3    H118797   5.897   6.012   4.922
 6284TIP3    H218798   6.048   6.014   4.937
 6285TIP3   OH218799   3.225   3.932   3.455
 6285TIP3    H118800   3.283   3.906   3.527
 6285TIP3    H218801   3.241   3.866   3.387
 6286TIP3   OH218802   1.740   4.714   1.145
 6286TIP3    H118803   1.695   4.763   1.076
 6286TIP3    H218804   1.685   4.725   1.222
 6287TIP3   OH218805   2.121   0.527   2.189
 6287TIP3    H118806   2.026   0.525   2.181
 6287TIP3    H218807   2.152   0.531   2.098
 6288TIP3   OH218808   5.554   5.328   6.383
 6288TIP3    H118809   5.592   5.335   6.295
 6288TIP3    H218810   5.483   5.392   6.383
 6289TIP3   OH218811   3.474   7.485   4.795
 6289TIP3    H118812   3.424   7.431   4.856
 6289TIP3    H218813   3.410   7.509   4.727
 6290TIP3   OH218814   3.078   2.056   0.476
 6290TIP3    H118815   3.039   1.994   0.414
 6290TIP3    H218816   3.091   2.005   0.556
 6291TIP3   OH218817   1.790   4.218   3.803
 6291TIP3    H118818   1.835   4.158   3.744
 6291TIP3    H218819   1.707   4.238   3.759
 6292TIP3   OH218820   4.836   1.289   4.394
 6292TIP3    H118821   4.845   1.253   4.306
 6292TIP3    H218822   4.838   1.384   4.382
 6293TIP3   OH218823   2.455   1.009   0.763
 6293TIP3    H118824   2.420   1.039   0.847
 6293TIP3    H218825   2.485   1.089   0.719
 6294TIP3   OH218826   3.625   1.388   0.254
 6294TIP3    H118827   3.563   1.451   0.293
 6294TIP3    H218828   3.702   1.393   0.310
 6295TIP3   OH218829   3.437   2.802   4.335
 6295TIP3    H118830   3.475   2.722   4.299
 6295TIP3    H218831   3.398   2.775   4.418
 6296TIP3   OH218832   1.832   5.174   4.994
 6296TIP3    H118833   1.887   5.162   4.916
 6296TIP3    H218834   1.841   5.092   5.042
 6297TIP3   OH218835   5.371   4.837   1.710
 6297TIP3    H118836   5.327   4.808   1.791
 6297TIP3    H218837   5.379   4.931   1.719
 6298TIP3   OH218838   0.110   3.341   4.128
 6298TIP3    H118839   0.051   3.306   4.194
 6298TIP3    H218840   0.141   3.424   4.164
 6299TIP3   OH218841   1.345   3.406   0.559
 6299TIP3    H118842   1.302   3.320   0.562
 6299TIP3    H218843   1.328   3.439   0.471
 6300TIP3   OH218844   4.014   2.546   3.710
 6300TIP3    H118845   4.102   2.511   3.699
 6300TIP3    H218846   3.990   2.579   3.623
 6301TIP3   OH218847   1.748   4.294   4.994
 6301TIP3    H118848   1.793   4.379   5.000
 6301TIP3    H218849   1.671   4.304   5.050
 6302TIP3   OH218850   0.333   4.470   2.103
 6302TIP3    H118851   0.361   4.494   2.015
 6302TIP3    H218852   0.370   4.537   2.160
 6303TIP3   OH218853   5.401   0.666   1.325
 6303TIP3    H118854   5.476   0.710   1.365
 6303TIP3    H218855   5.393   0.583   1.373
 6304TIP3   OH218856   6.394   4.825   0.839
 6304TIP3    H118857   6.424   4.915   0.853
 6304TIP3    H218858   6.363   4.796   0.924
 6305TIP3   OH218859   8.036   7.789   5.925
 6305TIP3    H118860   8.025   7.712   5.869
 6305TIP3    H218861   7.956   7.840   5.911
 6306TIP3   OH218862   6.762   6.170   3.157
 6306TIP3    H118863   6.809   6.087   3.149
 6306TIP3    H218864   6.673   6.145   3.180
 6307TIP3   OH218865   2.461   2.117   4.539
 6307TIP3    H118866   2.373   2.102   4.504
 6307TIP3    H218867   2.458   2.205   4.575
 6308TIP3   OH218868   3.331   1.178   1.440
 6308TIP3    H118869   3.337   1.192   1.346
 6308TIP3    H218870   3.261   1.238   1.468
 6309TIP3   OH218871   3.861   6.197   3.488
 6309TIP3    H118872   3.933   6.227   3.433
 6309TIP3    H218873   3.803   6.150   3.429
 6310TIP3   OH218874   5.496   0.971   1.101
 6310TIP3    H118875   5.467   1.061   1.116
 6310TIP3    H218876   5.463   0.922   1.177
 6311TIP3   OH218877   5.148   3.275   0.716
 6311TIP3    H118878   5.115   3.195   0.757
 6311TIP3    H218879   5.196   3.319   0.786
 6312TIP3   OH218880   2.788   2.022   5.607
 6312TIP3    H118881   2.869   2.012   5.556
 6312TIP3    H218882   2.741   1.940   5.594
 6313TIP3   OH218883   8.226   1.762   6.187
 6313TIP3    H118884   8.290   1.826   6.217
 6313TIP3    H218885   8.150   1.776   6.244
 6314TIP3   OH218886   7.481   6.680   1.691
 6314TIP3    H118887   7.497   6.623   1.616
 6314TIP3    H218888   7.569   6.697   1.727
 6315TIP3   OH218889   2.981   6.133   6.671
 6315TIP3    H118890   2.943   6.221   6.662
 6315TIP3    H218891   3.072   6.149   6.696
 6316TIP3   OH218892   2.668   4.257   5.185
 6316TIP3    H118893   2.741   4.223   5.237
 6316TIP3    H218894   2.661   4.196   5.112
 6317TIP3   OH218895   1.101   5.654   4.808
 6317TIP3    H118896   1.078   5.659   4.901
 6317TIP3    H218897   1.111   5.745   4.781
 6318TIP3   OH218898   0.030   0.415   1.033
 6318TIP3    H118899  -0.058   0.384   1.012
 6318TIP3    H218900   0.019   0.509   1.047
 6319TIP3   OH218901   8.253   6.407   5.692
 6319TIP3    H118902   8.297   6.373   5.613
 6319TIP3    H218903   8.228   6.328   5.741
 6320TIP3   OH218904   7.111   6.510   1.449
 6320TIP3    H118905   7.043   6.559   1.403
 6320TIP3    H218906   7.188   6.516   1.393
 6321TIP3   OH218907   0.292   4.575   1.055
 6321TIP3    H118908   0.205   4.586   1.091
 6321TIP3    H218909   0.292   4.628   0.975
 6322TIP3   OH218910   4.137   2.016   0.423
 6322TIP3    H118911   4.196   1.941   0.428
 6322TIP3    H218912   4.194   2.092   0.426
 6323TIP3   OH218913   5.924   0.354   6.263
 6323TIP3    H118914   5.934   0.432   6.318
 6323TIP3    H218915   5.834   0.358   6.231
 6324TIP3   OH218916   2.905   3.573   3.613
 6324TIP3    H118917   2.970   3.548   3.547
 6324TIP3    H218918   2.856   3.492   3.629
 6325TIP3   OH218919   0.752   4.184   5.784
 6325TIP3    H118920   0.801   4.265   5.799
 6325TIP3    H218921   0.768   4.131   5.862
 6326TIP3   OH218922   3.690   6.943   3.085
 6326TIP3    H118923   3.645   6.984   3.159
 6326TIP3    H218924   3.762   7.002   3.065
 6327TIP3   OH218925   2.040   0.902   2.411
 6327TIP3    H118926   2.082   0.898   2.497
 6327TIP3    H218927   2.088   0.971   2.365
 6328TIP3   OH218928   4.047   4.679   0.510
 6328TIP3    H118929   4.090   4.684   0.425
 6328TIP3    H218930   4.104   4.729   0.569
 6329TIP3   OH218931   3.351   3.226   0.465
 6329TIP3    H118932   3.298   3.306   0.462
 6329TIP3    H218933   3.439   3.257   0.483
 6330TIP3   OH218934   2.125   4.020   1.894
 6330TIP3    H118935   2.136   4.105   1.938
 6330TIP3    H218936   2.111   3.958   1.966
 6331TIP3   OH218937   3.790   0.233   5.452
 6331TIP3    H118938   3.726   0.198   5.514
 6331TIP3    H218939   3.870   0.183   5.468
 6332TIP3   OH218940   2.627   6.982   4.598
 6332TIP3    H118941   2.557   6.930   4.636
 6332TIP3    H218942   2.706   6.929   4.610
 6333TIP3   OH218943   4.285   7.779   1.508
 6333TIP3    H118944   4.357   7.731   1.468
 6333TIP3    H218945   4.310   7.789   1.599
 6334TIP3   OH218946   7.307   6.875   3.818
 6334TIP3    H118947   7.374   6.870   3.750
 6334TIP3    H218948   7.342   6.937   3.881
 6335TIP3   OH218949   0.084   5.763   5.912
 6335TIP3    H118950   0.102   5.804   5.828
 6335TIP3    H218951  -0.012   5.757   5.916
 6336TIP3   OH218952   7.803   6.136   0.662
 6336TIP3    H118953   7.873   6.199   0.645
 6336TIP3    H218954   7.844   6.050   0.650
 6337TIP3   OH218955   6.198   2.411   0.089
 6337TIP3    H118956   6.114   2.377   0.058
 6337TIP3    H218957   6.176   2.458   0.170
 6338TIP3   OH218958   1.099   6.980   5.595
 6338TIP3    H118959   1.185   6.950   5.565
 6338TIP3    H218960   1.072   7.045   5.529
 6339TIP3   OH218961   0.202   3.544   4.290
 6339TIP3    H118962   0.283   3.593   4.281
 6339TIP3    H218963   0.176   3.557   4.381
 6340TIP3   OH218964   4.349   3.181   6.261
 6340TIP3    H118965   4.415   3.153   6.325
 6340TIP3    H218966   4.322   3.268   6.292
 6341TIP3   OH218967   6.687   3.224   3.592
 6341TIP3    H118968   6.705   3.312   3.557
 6341TIP3    H218969   6.630   3.240   3.668
 6342TIP3   OH218970   8.120   1.075   6.299
 6342TIP3    H118971   8.113   0.982   6.318
 6342TIP3    H218972   8.093   1.083   6.207
 6343TIP3   OH218973   6.109   1.609   4.368
 6343TIP3    H118974   6.104   1.654   4.453
 6343TIP3    H218975   6.018   1.585   4.349
 6344TIP3   OH218976   0.603   4.831   6.259
 6344TIP3    H118977   0.548   4.909   6.253
 6344TIP3    H218978   0.574   4.775   6.187
 6345TIP3   OH218979   6.753   4.550   2.138
 6345TIP3    H118980   6.804   4.537   2.058
 6345TIP3    H218981   6.714   4.464   2.155
 6346TIP3   OH218982   7.583   5.284   1.565
 6346TIP3    H118983   7.657   5.332   1.602
 6346TIP3    H218984   7.584   5.306   1.472
 6347TIP3   OH218985   4.620   1.025   2.468
 6347TIP3    H118986   4.671   1.062   2.541
 6347TIP3    H218987   4.683   1.020   2.396
 6348TIP3   OH218988   5.550   1.166   4.474
 6348TIP3    H118989   5.467   1.197   4.511
 6348TIP3    H218990   5.533   1.159   4.380
 6349TIP3   OH218991   1.586   3.099   4.770
 6349TIP3    H118992   1.522   3.142   4.825
 6349TIP3    H218993   1.557   3.116   4.680
 6350TIP3   OH218994   6.498   3.235   0.583
 6350TIP3    H118995   6.425   3.259   0.525
 6350TIP3    H218996   6.533   3.318   0.614
 6351TIP3   OH218997   6.959   6.558   3.121
 6351TIP3    H118998   6.908   6.489   3.164
 6351TIP3    H218999   6.912   6.575   3.040
 6352TIP3   OH219000   0.285   3.303   1.976
 6352TIP3    H119001   0.219   3.320   1.910
 6352TIP3    H219002   0.344   3.239   1.935
 6353TIP3   OH219003   1.071   4.731   2.201
 6353TIP3    H119004   1.063   4.802   2.137
 6353TIP3    H219005   1.001   4.748   2.264
 6354TIP3   OH219006   1.956   4.767   2.412
 6354TIP3    H119007   2.018   4.718   2.358
 6354TIP3    H219008   1.978   4.859   2.396
 6355TIP3   OH219009   0.530   4.797   3.393
 6355TIP3    H119010   0.597   4.732   3.411
 6355TIP3    H219011   0.489   4.768   3.311
 6356TIP3   OH219012   0.336   7.451   0.775
 6356TIP3    H119013   0.265   7.499   0.733
 6356TIP3    H219014   0.322   7.360   0.749
 6357TIP3   OH219015   3.372   7.085   4.566
 6357TIP3    H119016   3.306   7.018   4.550
 6357TIP3    H219017   3.396   7.074   4.658
 6358TIP3   OH219018   4.894   4.541   2.352
 6358TIP3    H119019   4.890   4.446   2.358
 6358TIP3    H219020   4.836   4.572   2.422
 6359TIP3   OH219021   0.228   5.501   2.847
 6359TIP3    H119022   0.189   5.557   2.914
 6359TIP3    H219023   0.209   5.412   2.877
 6360TIP3   OH219024   3.980   6.610   1.490
 6360TIP3    H119025   4.010   6.699   1.475
 6360TIP3    H219026   3.967   6.604   1.585
 6361TIP3   OH219027   3.315   6.317   4.112
 6361TIP3    H119028   3.372   6.251   4.153
 6361TIP3    H219029   3.310   6.289   4.020
 6362TIP3   OH219030   7.099   0.688   2.822
 6362TIP3    H119031   7.039   0.743   2.771
 6362TIP3    H219032   7.048   0.610   2.843
 6363TIP3   OH219033   3.631   3.937   3.037
 6363TIP3    H119034   3.602   3.984   3.115
 6363TIP3    H219035   3.581   3.855   3.038
 6364TIP3   OH219036   4.516   6.592   1.386
 6364TIP3    H119037   4.567   6.637   1.318
 6364TIP3    H219038   4.578   6.534   1.428
 6365TIP3   OH219039   5.217   6.955   5.105
 6365TIP3    H119040   5.202   7.016   5.033
 6365TIP3    H219041   5.136   6.957   5.156
 6366TIP3   OH219042   7.357   3.522   1.979
 6366TIP3    H119043   7.381   3.545   2.069
 6366TIP3    H219044   7.304   3.595   1.949
 6367TIP3   OH219045   6.332   7.713   1.533
 6367TIP3    H119046   6.388   7.791   1.536
 6367TIP3    H219047   6.243   7.748   1.529
 6368TIP3   OH219048   5.844   5.008   5.937
 6368TIP3    H119049   5.892   5.029   5.857
 6368TIP3    H219050   5.787   5.084   5.951
 6369TIP3   OH219051   0.818   0.394   3.016
 6369TIP3    H119052   0.738   0.447   3.014
 6369TIP3    H219053   0.813   0.341   2.936
 6370TIP3   OH219054   3.177   3.700   1.600
 6370TIP3    H119055   3.194   3.767   1.666
 6370TIP3    H219056   3.259   3.652   1.593
 6371TIP3   OH219057   1.819   1.735   0.441
 6371TIP3    H119058   1.890   1.672   0.428
 6371TIP3    H219059   1.836   1.772   0.527
 6372TIP3   OH219060   8.279   2.236   0.623
 6372TIP3    H119061   8.247   2.157   0.579
 6372TIP3    H219062   8.252   2.308   0.566
 6373TIP3   OH219063   0.257   2.506   3.720
 6373TIP3    H119064   0.263   2.457   3.802
 6373TIP3    H219065   0.164   2.505   3.697
 6374TIP3   OH219066   5.592   5.363   3.840
 6374TIP3    H119067   5.584   5.272   3.868
 6374TIP3    H219068   5.530   5.411   3.895
 6375TIP3   OH219069   6.478   3.426   2.239
 6375TIP3    H119070   6.481   3.522   2.238
 6375TIP3    H219071   6.414   3.403   2.172
 6376TIP3   OH219072   1.067   0.965   6.087
 6376TIP3    H119073   0.974   0.977   6.104
 6376TIP3    H219074   1.108   0.973   6.173
 6377TIP3   OH219075   5.422   1.042   5.796
 6377TIP3    H119076   5.377   1.014   5.717
 6377TIP3    H219077   5.355   1.086   5.848
 6378TIP3   OH219078   0.521   3.463   2.547
 6378TIP3    H119079   0.496   3.546   2.588
 6378TIP3    H219080   0.616   3.469   2.536
 6379TIP3   OH219081   7.829   2.984   2.903
 6379TIP3    H119082   7.800   2.932   2.979
 6379TIP3    H219083   7.849   3.070   2.939
 6380TIP3   OH219084   1.563   7.616   5.971
 6380TIP3    H119085   1.490   7.677   5.962
 6380TIP3    H219086   1.547   7.549   5.905
 6381TIP3   OH219087   1.986   1.874   5.465
 6381TIP3    H119088   1.947   1.794   5.429
 6381TIP3    H219089   2.021   1.847   5.550
 6382TIP3   OH219090   7.895   5.788   1.627
 6382TIP3    H119091   7.834   5.861   1.616
 6382TIP3    H219092   7.916   5.761   1.537
 6383TIP3   OH219093   7.891   7.661   1.640
 6383TIP3    H119094   7.966   7.609   1.613
 6383TIP3    H219095   7.872   7.717   1.565
 6384TIP3   OH219096   1.997   1.534   0.512
 6384TIP3    H119097   2.023   1.508   0.601
 6384TIP3    H219098   2.074   1.578   0.477
 6385TIP3   OH219099   0.132   6.221   5.352
 6385TIP3    H119100   0.179   6.278   5.292
 6385TIP3    H219101   0.117   6.141   5.301
 6386TIP3   OH219102   8.197   3.342   4.642
 6386TIP3    H119103   8.165   3.301   4.722
 6386TIP3    H219104   8.289   3.316   4.635
 6387TIP3   OH219105   6.138   3.484   1.363
 6387TIP3    H119106   6.119   3.521   1.276
 6387TIP3    H219107   6.226   3.448   1.355
 6388TIP3   OH219108   1.234   5.107   6.312
 6388TIP3    H119109   1.312   5.151   6.278
 6388TIP3    H219110   1.213   5.155   6.392
 6389TIP3   OH219111   5.415   1.343   5.016
 6389TIP3    H119112   5.379   1.258   5.040
 6389TIP3    H219113   5.401   1.398   5.094
 6390TIP3   OH219114   5.979   1.422   2.366
 6390TIP3    H119115   5.969   1.495   2.305
 6390TIP3    H219116   5.895   1.376   2.362
 6391TIP3   OH219117   0.059   4.859   5.653
 6391TIP3    H119118  -0.035   4.868   5.671
 6391TIP3    H219119   0.095   4.818   5.732
 6392TIP3   OH219120   6.366   7.765   1.078
 6392TIP3    H119121   6.406   7.845   1.112
 6392TIP3    H219122   6.271   7.781   1.085
 6393TIP3   OH219123   3.359   5.440   5.116
 6393TIP3    H119124   3.281   5.493   5.133
 6393TIP3    H219125   3.414   5.496   5.061
 6394TIP3   OH219126   3.178   6.486   1.862
 6394TIP3    H119127   3.231   6.412   1.833
 6394TIP3    H219128   3.241   6.549   1.897
 6395TIP3   OH219129   4.660   4.093   6.421
 6395TIP3    H119130   4.605   4.029   6.467
 6395TIP3    H219131   4.608   4.173   6.421
 6396TIP3   OH219132   1.047   6.373   5.328
 6396TIP3    H119133   1.141   6.358   5.323
 6396TIP3    H219134   1.011   6.329   5.251
 6397TIP3   OH219135   5.994   2.176   2.286
 6397TIP3    H119136   6.087   2.156   2.293
 6397TIP3    H219137   5.965   2.189   2.377
 6398TIP3   OH219138   4.633   2.226   1.398
 6398TIP3    H119139   4.709   2.270   1.358
 6398TIP3    H219140   4.671   2.167   1.462
 6399TIP3   OH219141   3.954   5.710   2.370
 6399TIP3    H119142   4.032   5.654   2.364
 6399TIP3    H219143   3.896   5.664   2.430
 6400TIP3   OH219144   5.041   0.278   0.800
 6400TIP3    H119145   4.963   0.334   0.795
 6400TIP3    H219146   5.088   0.310   0.877
 6401TIP3   OH219147   2.495   0.067   3.307
 6401TIP3    H119148   2.501   0.120   3.386
 6401TIP3    H219149   2.583   0.071   3.269
 6402TIP3   OH219150   6.662   7.656   5.937
 6402TIP3    H119151   6.611   7.652   5.856
 6402TIP3    H219152   6.630   7.581   5.988
 6403TIP3   OH219153   4.948   2.922   6.672
 6403TIP3    H119154   4.884   2.863   6.631
 6403TIP3    H219155   4.988   2.969   6.599
 6404TIP3   OH219156   1.147   7.029   4.742
 6404TIP3    H119157   1.110   6.949   4.703
 6404TIP3    H219158   1.087   7.052   4.812
 6405TIP3   OH219159   4.649   6.755   1.205
 6405TIP3    H119160   4.725   6.812   1.200
 6405TIP3    H219161   4.574   6.815   1.197
 6406TIP3   OH219162   0.662   0.386   5.858
 6406TIP3    H119163   0.754   0.403   5.838
 6406TIP3    H219164   0.639   0.453   5.923
 6407TIP3   OH219165   6.345   0.967   4.996
 6407TIP3    H119166   6.376   1.052   4.965
 6407TIP3    H219167   6.255   0.983   5.023
 6408TIP3   OH219168   6.493   4.025   4.532
 6408TIP3    H119169   6.523   4.057   4.447
 6408TIP3    H219170   6.571   4.028   4.588
 6409TIP3   OH219171   2.389   0.119   0.622
 6409TIP3    H119172   2.385   0.024   0.616
 6409TIP3    H219173   2.419   0.148   0.536
 6410TIP3   OH219174   3.055   2.748   1.494
 6410TIP3    H119175   3.079   2.743   1.401
 6410TIP3    H219176   3.006   2.667   1.509
 6411TIP3   OH219177   7.187   0.935   4.283
 6411TIP3    H119178   7.209   0.987   4.206
 6411TIP3    H219179   7.208   0.845   4.258
 6412TIP3   OH219180   3.237   5.935   1.405
 6412TIP3    H119181   3.327   5.904   1.392
 6412TIP3    H219182   3.234   6.019   1.360
 6413TIP3   OH219183  -0.002   4.694   4.320
 6413TIP3    H119184   0.065   4.745   4.275
 6413TIP3    H219185   0.035   4.606   4.326
 6414TIP3   OH219186   2.415   4.165   3.402
 6414TIP3    H119187   2.409   4.090   3.343
 6414TIP3    H219188   2.432   4.127   3.488
 6415TIP3   OH219189   1.740   7.450   0.547
 6415TIP3    H119190   1.748   7.542   0.523
 6415TIP3    H219191   1.686   7.451   0.625
 6416TIP3   OH219192   0.028   3.614   1.952
 6416TIP3    H119193   0.025   3.659   2.036
 6416TIP3    H219194   0.009   3.522   1.974
 6417TIP3   OH219195   2.809   0.698   0.450
 6417TIP3    H119196   2.802   0.790   0.475
 6417TIP3    H219197   2.890   0.692   0.399
 6418TIP3   OH219198   3.999   6.459   2.743
 6418TIP3    H119199   4.055   6.452   2.666
 6418TIP3    H219200   3.929   6.395   2.729
 6419TIP3   OH219201   7.490   6.417   4.159
 6419TIP3    H119202   7.497   6.479   4.086
 6419TIP3    H219203   7.513   6.469   4.236
 6420TIP3   OH219204   7.291   6.280   5.240
 6420TIP3    H119205   7.349   6.208   5.214
 6420TIP3    H219206   7.285   6.272   5.336
 6421TIP3   OH219207   1.722   5.567   2.943
 6421TIP3    H119208   1.735   5.659   2.922
 6421TIP3    H219209   1.633   5.562   2.978
 6422TIP3   OH219210   0.903   0.193   2.819
 6422TIP3    H119211   0.831   0.218   2.760
 6422TIP3    H219212   0.962   0.142   2.765
 6423TIP3   OH219213   6.579   4.886   0.527
 6423TIP3    H119214   6.579   4.842   0.443
 6423TIP3    H219215   6.635   4.832   0.583
 6424TIP3   OH219216   5.358   1.283   3.222
 6424TIP3    H119217   5.294   1.247   3.283
 6424TIP3    H219218   5.306   1.318   3.150
 6425TIP3   OH219219   0.764   2.430   2.773
 6425TIP3    H119220   0.758   2.442   2.868
 6425TIP3    H219221   0.733   2.341   2.758
 6426TIP3   OH219222   2.010   6.422   3.452
 6426TIP3    H119223   1.918   6.424   3.478
 6426TIP3    H219224   2.047   6.349   3.503
 6427TIP3   OH219225   0.161   3.967   2.088
 6427TIP3    H119226   0.092   3.902   2.100
 6427TIP3    H219227   0.217   3.929   2.020
 6428TIP3   OH219228   4.369   3.194   1.601
 6428TIP3    H119229   4.365   3.217   1.508
 6428TIP3    H219230   4.287   3.227   1.638
 6429TIP3   OH219231   6.884   6.915   2.469
 6429TIP3    H119232   6.924   6.933   2.384
 6429TIP3    H219233   6.954   6.874   2.520
 6430TIP3   OH219234   7.760   7.477   1.913
 6430TIP3    H119235   7.850   7.509   1.911
 6430TIP3    H219236   7.768   7.383   1.927
 6431TIP3   OH219237   0.687   0.389   5.159
 6431TIP3    H119238   0.774   0.367   5.125
 6431TIP3    H219239   0.627   0.359   5.090
 6432TIP3   OH219240   6.114   6.816   2.219
 6432TIP3    H119241   6.174   6.790   2.148
 6432TIP3    H219242   6.171   6.831   2.294
 6433TIP3   OH219243   3.988   7.195   1.089
 6433TIP3    H119244   3.979   7.282   1.049
 6433TIP3    H219245   3.898   7.167   1.106
 6434TIP3   OH219246   5.696   2.252   4.548
 6434TIP3    H119247   5.776   2.280   4.592
 6434TIP3    H219248   5.665   2.178   4.599
 6435TIP3   OH219249   0.390   3.273   4.484
 6435TIP3    H119250   0.339   3.342   4.526
 6435TIP3    H219251   0.481   3.294   4.505
 6436TIP3   OH219252   0.644   3.850   3.396
 6436TIP3    H119253   0.669   3.943   3.391
 6436TIP3    H219254   0.576   3.840   3.329
 6437TIP3   OH219255   3.920   0.254   3.545
 6437TIP3    H119256   3.982   0.180   3.545
 6437TIP3    H219257   3.970   0.327   3.581
 6438TIP3   OH219258   1.449   2.035   1.466
 6438TIP3    H119259   1.472   1.973   1.536
 6438TIP3    H219260   1.477   1.992   1.386
 6439TIP3   OH219261   0.398   5.532   6.381
 6439TIP3    H119262   0.436   5.599   6.325
 6439TIP3    H219263   0.308   5.561   6.396
 6440TIP3   OH219264   0.269   3.358   2.473
 6440TIP3    H119265   0.350   3.393   2.508
 6440TIP3    H219266   0.265   3.390   2.384
 6441TIP3   OH219267   2.604   2.240   2.821
 6441TIP3    H119268   2.612   2.297   2.744
 6441TIP3    H219269   2.654   2.285   2.889
 6442TIP3   OH219270   6.054   7.027   1.146
 6442TIP3    H119271   6.017   7.077   1.073
 6442TIP3    H219272   6.056   7.090   1.219
 6443TIP3   OH219273   4.539   1.881   5.191
 6443TIP3    H119274   4.537   1.843   5.103
 6443TIP3    H219275   4.602   1.827   5.239
 6444TIP3   OH219276   7.280   1.708   1.769
 6444TIP3    H119277   7.324   1.791   1.787
 6444TIP3    H219278   7.323   1.645   1.827
 6445TIP3   OH219279   5.726   5.664   6.523
 6445TIP3    H119280   5.668   5.657   6.447
 6445TIP3    H219281   5.670   5.697   6.593
 6446TIP3   OH219282   3.811   7.661   2.512
 6446TIP3    H119283   3.863   7.629   2.438
 6446TIP3    H219284   3.794   7.584   2.565
 6447TIP3   OH219285   0.862   7.571   2.281
 6447TIP3    H119286   0.795   7.532   2.337
 6447TIP3    H219287   0.865   7.663   2.309
 6448TIP3   OH219288   0.322   3.665   1.512
 6448TIP3    H119289   0.357   3.613   1.440
 6448TIP3    H219290   0.227   3.665   1.498
 6449TIP3   OH219291   1.698   1.495   0.622
 6449TIP3    H119292   1.711   1.482   0.528
 6449TIP3    H219293   1.777   1.461   0.662
 6450TIP3   OH219294   2.116   4.250   4.163
 6450TIP3    H119295   2.173   4.253   4.085
 6450TIP3    H219296   2.029   4.233   4.128
 6451TIP3   OH219297   6.695   5.203   5.453
 6451TIP3    H119298   6.782   5.163   5.454
 6451TIP3    H219299   6.692   5.255   5.534
 6452TIP3   OH219300   6.116   4.507   6.270
 6452TIP3    H119301   6.208   4.525   6.250
 6452TIP3    H219302   6.101   4.550   6.354
 6453TIP3   OH219303   3.390   3.340   0.826
 6453TIP3    H119304   3.321   3.340   0.759
 6453TIP3    H219305   3.426   3.252   0.822
 6454TIP3   OH219306   3.337   2.332   0.552
 6454TIP3    H119307   3.328   2.404   0.490
 6454TIP3    H219308   3.308   2.369   0.635
 6455TIP3   OH219309   0.103   6.525   2.384
 6455TIP3    H119310   0.110   6.612   2.422
 6455TIP3    H219311   0.037   6.481   2.438
 6456TIP3   OH219312   4.461   6.178   2.233
 6456TIP3    H119313   4.539   6.123   2.234
 6456TIP3    H219314   4.392   6.122   2.198
 6457TIP3   OH219315   7.874   3.694   4.400
 6457TIP3    H119316   7.944   3.632   4.418
 6457TIP3    H219317   7.877   3.706   4.305
 6458TIP3   OH219318   6.843   6.025   5.921
 6458TIP3    H119319   6.814   6.003   5.832
 6458TIP3    H219320   6.765   6.016   5.975
 6459TIP3   OH219321   3.190   6.879   4.860
 6459TIP3    H119322   3.191   6.789   4.891
 6459TIP3    H219323   3.204   6.873   4.766
 6460TIP3   OH219324   0.693   3.962   1.460
 6460TIP3    H119325   0.652   4.043   1.491
 6460TIP3    H219326   0.771   3.991   1.413
 6461TIP3   OH219327   5.145   5.834   5.068
 6461TIP3    H119328   5.113   5.868   5.152
 6461TIP3    H219329   5.227   5.882   5.054
 6462TIP3   OH219330   5.453   7.140   0.444
 6462TIP3    H119331   5.539   7.177   0.465
 6462TIP3    H219332   5.395   7.176   0.510
 6463TIP3   OH219333   3.835   4.839   3.612
 6463TIP3    H119334   3.863   4.798   3.694
 6463TIP3    H219335   3.771   4.777   3.576
 6464TIP3   OH219336   3.583   1.670   2.536
 6464TIP3    H119337   3.587   1.655   2.631
 6464TIP3    H219338   3.610   1.761   2.525
 6465TIP3   OH219339   6.555   0.101   6.109
 6465TIP3    H119340   6.650   0.110   6.120
 6465TIP3    H219341   6.545   0.017   6.064
 6466TIP3   OH219342   6.352   1.088   6.525
 6466TIP3    H119343   6.370   0.998   6.497
 6466TIP3    H219344   6.352   1.083   6.621
 6467TIP3   OH219345   7.972   3.633   1.792
 6467TIP3    H119346   7.944   3.704   1.849
 6467TIP3    H219347   7.893   3.583   1.776
 6468TIP3   OH219348   7.717   1.247   3.077
 6468TIP3    H119349   7.731   1.194   3.156
 6468TIP3    H219350   7.774   1.323   3.088
 6469TIP3   OH219351   3.073   1.095   3.135
 6469TIP3    H119352   3.001   1.096   3.072
 6469TIP3    H219353   3.032   1.074   3.219
 6470TIP3   OH219354   0.741   5.313   5.901
 6470TIP3    H119355   0.724   5.407   5.903
 6470TIP3    H219356   0.730   5.285   5.992
 6471TIP3   OH219357   2.686   0.162   2.965
 6471TIP3    H119358   2.702   0.136   3.055
 6471TIP3    H219359   2.599   0.203   2.967
 6472TIP3   OH219360   3.474   2.640   0.172
 6472TIP3    H119361   3.511   2.556   0.145
 6472TIP3    H219362   3.545   2.702   0.160
 6473TIP3   OH219363   1.649   4.632   5.316
 6473TIP3    H119364   1.696   4.664   5.393
 6473TIP3    H219365   1.556   4.637   5.341
 6474TIP3   OH219366   2.488   3.579   4.574
 6474TIP3    H119367   2.421   3.532   4.623
 6474TIP3    H219368   2.570   3.556   4.618
 6475TIP3   OH219369   4.546   7.639   0.451
 6475TIP3    H119370   4.531   7.547   0.428
 6475TIP3    H219371   4.469   7.685   0.417
 6476TIP3   OH219372   7.816   7.552   1.117
 6476TIP3    H119373   7.802   7.640   1.083
 6476TIP3    H219374   7.729   7.521   1.142
 6477TIP3   OH219375   4.089   2.439   0.529
 6477TIP3    H119376   4.124   2.376   0.466
 6477TIP3    H219377   4.017   2.392   0.572
 6478TIP3   OH219378   6.451   4.966   1.223
 6478TIP3    H119379   6.468   5.036   1.286
 6478TIP3    H219380   6.357   4.950   1.230
 6479TIP3   OH219381   5.449   7.286   6.701
 6479TIP3    H119382   5.475   7.199   6.730
 6479TIP3    H219383   5.419   7.331   6.780
 6480TIP3   OH219384   8.109   0.607   2.999
 6480TIP3    H119385   8.076   0.691   2.965
 6480TIP3    H219386   8.087   0.608   3.092
 6481TIP3   OH219387   0.706   0.434   1.752
 6481TIP3    H119388   0.713   0.470   1.663
 6481TIP3    H219389   0.788   0.459   1.794
 6482TIP3   OH219390   2.282   7.201   0.976
 6482TIP3    H119391   2.259   7.198   1.069
 6482TIP3    H219392   2.238   7.279   0.943
 6483TIP3   OH219393   3.835   7.387   1.307
 6483TIP3    H119394   3.793   7.461   1.264
 6483TIP3    H219395   3.783   7.371   1.386
 6484TIP3   OH219396   2.962   4.752   0.610
 6484TIP3    H119397   3.052   4.731   0.583
 6484TIP3    H219398   2.970   4.780   0.701
 6485TIP3   OH219399   4.863   1.920   2.970
 6485TIP3    H119400   4.787   1.868   2.997
 6485TIP3    H219401   4.826   2.002   2.937
 6486TIP3   OH219402   5.712   0.298   6.036
 6486TIP3    H119403   5.697   0.359   5.964
 6486TIP3    H219404   5.645   0.231   6.025
 6487TIP3   OH219405   3.418   5.392   2.903
 6487TIP3    H119406   3.356   5.403   2.831
 6487TIP3    H219407   3.397   5.461   2.965
 6488TIP3   OH219408   7.063   5.282   2.411
 6488TIP3    H119409   7.002   5.308   2.480
 6488TIP3    H219410   7.031   5.328   2.333
 6489TIP3   OH219411   7.510   4.909   3.278
 6489TIP3    H119412   7.439   4.886   3.337
 6489TIP3    H219413   7.562   4.973   3.328
 6490TIP3   OH219414   0.879   6.787   5.640
 6490TIP3    H119415   0.902   6.695   5.633
 6490TIP3    H219416   0.963   6.832   5.648
 6491TIP3   OH219417   4.563   5.237   5.620
 6491TIP3    H119418   4.588   5.157   5.667
 6491TIP3    H219419   4.551   5.302   5.690
 6492TIP3   OH219420   5.217   4.879   0.994
 6492TIP3    H119421   5.230   4.967   0.958
 6492TIP3    H219422   5.305   4.846   1.008
 6493TIP3   OH219423   7.835   5.831   4.748
 6493TIP3    H119424   7.884   5.868   4.821
 6493TIP3    H219425   7.889   5.759   4.716
 6494TIP3   OH219426   1.001   6.829   3.808
 6494TIP3    H119427   1.021   6.736   3.814
 6494TIP3    H219428   0.924   6.834   3.752
 6495TIP3   OH219429   1.655   6.997   2.196
 6495TIP3    H119430   1.569   6.980   2.234
 6495TIP3    H219431   1.713   6.932   2.235
 6496TIP3   OH219432   3.396   3.563   1.980
 6496TIP3    H119433   3.418   3.539   1.890
 6496TIP3    H219434   3.477   3.548   2.029
 6497TIP3   OH219435   1.444   6.149   1.773
 6497TIP3    H119436   1.453   6.056   1.752
 6497TIP3    H219437   1.482   6.158   1.861
 6498TIP3   OH219438   0.219   6.100   0.713
 6498TIP3    H119439   0.291   6.038   0.704
 6498TIP3    H219440   0.259   6.177   0.753
 6499TIP3   OH219441   5.966   3.429   3.553
 6499TIP3    H119442   5.973   3.415   3.648
 6499TIP3    H219443   6.052   3.462   3.527
 6500TIP3   OH219444   1.984   0.174   0.045
 6500TIP3    H119445   1.908   0.117   0.044
 6500TIP3    H219446   1.950   0.259   0.073
 6501TIP3   OH219447   6.861   4.186   4.077
 6501TIP3    H119448   6.842   4.214   3.988
 6501TIP3    H219449   6.894   4.097   4.067
 6502TIP3   OH219450   1.595   3.912   3.469
 6502TIP3    H119451   1.603   3.911   3.374
 6502TIP3    H219452   1.509   3.873   3.485
 6503TIP3   OH219453   5.600   0.254   6.328
 6503TIP3    H119454   5.625   0.260   6.235
 6503TIP3    H219455   5.520   0.306   6.334
 6504TIP3   OH219456   2.573   1.931   1.130
 6504TIP3    H119457   2.512   1.970   1.193
 6504TIP3    H219458   2.655   1.978   1.145
 6505TIP3   OH219459   1.505   6.944   6.257
 6505TIP3    H119460   1.482   7.008   6.325
 6505TIP3    H219461   1.494   6.991   6.175
 6506TIP3   OH219462   5.955   2.183   5.195
 6506TIP3    H119463   5.917   2.120   5.133
 6506TIP3    H219464   5.885   2.247   5.209
 6507TIP3   OH219465   1.043   1.432   4.510
 6507TIP3    H119466   0.965   1.463   4.463
 6507TIP3    H219467   1.074   1.508   4.559
 6508TIP3   OH219468   2.482   0.633   4.797
 6508TIP3    H119469   2.577   0.649   4.799
 6508TIP3    H219470   2.444   0.718   4.777
 6509TIP3   OH219471   0.464   0.614   6.547
 6509TIP3    H119472   0.460   0.522   6.523
 6509TIP3    H219473   0.374   0.645   6.543
 6510TIP3   OH219474   7.624   2.981   2.218
 6510TIP3    H119475   7.699   3.028   2.180
 6510TIP3    H219476   7.597   3.035   2.292
 6511TIP3   OH219477   0.521   6.946   4.636
 6511TIP3    H119478   0.508   6.852   4.650
 6511TIP3    H219479   0.614   6.955   4.613
 6512TIP3   OH219480   3.430   6.412   4.432
 6512TIP3    H119481   3.365   6.350   4.466
 6512TIP3    H219482   3.505   6.402   4.491
 6513TIP3   OH219483   3.637   0.524   4.096
 6513TIP3    H119484   3.554   0.543   4.052
 6513TIP3    H219485   3.637   0.429   4.106
 6514TIP3   OH219486   1.027   2.039   4.703
 6514TIP3    H119487   1.123   2.042   4.708
 6514TIP3    H219488   1.009   2.024   4.610
 6515TIP3   OH219489   4.699   3.499   6.637
 6515TIP3    H119490   4.765   3.551   6.683
 6515TIP3    H219491   4.694   3.418   6.688
 6516TIP3   OH219492   7.713   4.477   6.094
 6516TIP3    H119493   7.753   4.461   6.179
 6516TIP3    H219494   7.725   4.571   6.079
 6517TIP3   OH219495   2.352   0.216   2.031
 6517TIP3    H119496   2.289   0.145   2.029
 6517TIP3    H219497   2.435   0.175   2.056
 6518TIP3   OH219498   4.758   0.175   0.379
 6518TIP3    H119499   4.758   0.260   0.336
 6518TIP3    H219500   4.683   0.178   0.439
 6519TIP3   OH219501   5.710   1.990   6.315
 6519TIP3    H119502   5.638   2.053   6.306
 6519TIP3    H219503   5.682   1.932   6.386
 6520TIP3   OH219504   6.338   5.652   0.477
 6520TIP3    H119505   6.275   5.639   0.547
 6520TIP3    H219506   6.383   5.568   0.469
 6521TIP3   OH219507   2.565   3.640   2.342
 6521TIP3    H119508   2.610   3.629   2.426
 6521TIP3    H219509   2.547   3.734   2.337
 6522TIP3   OH219510   0.035   5.272   2.964
 6522TIP3    H119511   0.040   5.254   2.870
 6522TIP3    H219512   0.026   5.186   3.005
 6523TIP3   OH219513   3.203   6.489   0.587
 6523TIP3    H119514   3.146   6.413   0.573
 6523TIP3    H219515   3.291   6.452   0.592
 6524TIP3   OH219516   0.377   1.717   2.928
 6524TIP3    H119517   0.456   1.742   2.880
 6524TIP3    H219518   0.399   1.634   2.970
 6525TIP3   OH219519   2.499   3.067   1.949
 6525TIP3    H119520   2.423   3.036   1.899
 6525TIP3    H219521   2.462   3.129   2.012
 6526TIP3   OH219522   6.320   4.552   5.473
 6526TIP3    H119523   6.283   4.639   5.487
 6526TIP3    H219524   6.322   4.541   5.378
 6527TIP3   OH219525   8.021   7.226   4.058
 6527TIP3    H119526   7.965   7.301   4.037
 6527TIP3    H219527   8.016   7.170   3.981
 6528TIP3   OH219528   3.012   2.570   4.062
 6528TIP3    H119529   3.014   2.569   3.966
 6528TIP3    H219530   2.939   2.512   4.085
 6529TIP3   OH219531   3.115   7.138   3.627
 6529TIP3    H119532   3.039   7.192   3.607
 6529TIP3    H219533   3.120   7.076   3.554
 6530TIP3   OH219534   7.678   2.709   0.112
 6530TIP3    H119535   7.645   2.780   0.058
 6530TIP3    H219536   7.700   2.639   0.050
 6531TIP3   OH219537   1.534   0.332   1.774
 6531TIP3    H119538   1.503   0.423   1.772
 6531TIP3    H219539   1.511   0.298   1.687
 6532TIP3   OH219540   3.524   2.752   5.592
 6532TIP3    H119541   3.558   2.717   5.510
 6532TIP3    H219542   3.585   2.822   5.615
 6533TIP3   OH219543   5.567   1.377   0.814
 6533TIP3    H119544   5.641   1.435   0.834
 6533TIP3    H219545   5.606   1.290   0.805
 6534TIP3   OH219546   4.335   7.604   4.684
 6534TIP3    H119547   4.361   7.563   4.767
 6534TIP3    H219548   4.283   7.680   4.711
 6535TIP3   OH219549   2.587   4.045   2.584
 6535TIP3    H119550   2.601   4.077   2.495
 6535TIP3    H219551   2.646   4.097   2.638
 6536TIP3   OH219552   7.999   4.436   3.788
 6536TIP3    H119553   7.911   4.470   3.769
 6536TIP3    H219554   8.007   4.357   3.735
 6537TIP3   OH219555   7.374   0.787   2.828
 6537TIP3    H119556   7.450   0.769   2.774
 6537TIP3    H219557   7.319   0.709   2.820
 6538TIP3   OH219558   4.293   2.657   6.109
 6538TIP3    H119559   4.317   2.727   6.171
 6538TIP3    H219560   4.210   2.686   6.073
 6539TIP3   OH219561   5.724   1.600   6.636
 6539TIP3    H119562   5.680   1.516   6.649
 6539TIP3    H219563   5.777   1.613   6.715
 6540TIP3   OH219564   0.272   4.962   2.875
 6540TIP3    H119565   0.195   5.014   2.851
 6540TIP3    H219566   0.253   4.875   2.840
 6541TIP3   OH219567   2.647   1.309   1.245
 6541TIP3    H119568   2.691   1.302   1.161
 6541TIP3    H219569   2.716   1.332   1.307
 6542TIP3   OH219570   1.002   1.887   3.179
 6542TIP3    H119571   1.035   1.973   3.204
 6542TIP3    H219572   0.980   1.897   3.086
 6543TIP3   OH219573   1.179   4.851   0.492
 6543TIP3    H119574   1.244   4.879   0.557
 6543TIP3    H219575   1.215   4.770   0.455
 6544TIP3   OH219576   3.772   0.123   2.532
 6544TIP3    H119577   3.744   0.073   2.456
 6544TIP3    H219578   3.698   0.120   2.593
 6545TIP3   OH219579   0.587   5.274   5.304
 6545TIP3    H119580   0.540   5.207   5.254
 6545TIP3    H219581   0.543   5.356   5.281
 6546TIP3   OH219582   3.007   2.992   6.593
 6546TIP3    H119583   3.058   3.011   6.672
 6546TIP3    H219584   3.073   2.968   6.527
 6547TIP3   OH219585   5.230   1.401   1.179
 6547TIP3    H119586   5.186   1.334   1.232
 6547TIP3    H219587   5.319   1.406   1.214
 6548TIP3   OH219588   5.308   3.495   2.233
 6548TIP3    H119589   5.358   3.561   2.282
 6548TIP3    H219590   5.374   3.434   2.202
 6549TIP3   OH219591   0.663   6.230   5.988
 6549TIP3    H119592   0.716   6.232   6.067
 6549TIP3    H219593   0.662   6.321   5.958
 6550TIP3   OH219594   4.733   4.002   1.161
 6550TIP3    H119595   4.740   4.091   1.128
 6550TIP3    H219596   4.645   3.997   1.198
 6551TIP3   OH219597   0.729   0.867   3.091
 6551TIP3    H119598   0.655   0.855   3.150
 6551TIP3    H219599   0.701   0.827   3.009
 6552TIP3   OH219600   4.091   7.400   1.405
 6552TIP3    H119601   4.019   7.364   1.353
 6552TIP3    H219602   4.057   7.480   1.443
 6553TIP3   OH219603   6.419   4.508   3.623
 6553TIP3    H119604   6.413   4.593   3.666
 6553TIP3    H219605   6.374   4.521   3.539
 6554TIP3   OH219606   6.734   6.173   4.980
 6554TIP3    H119607   6.725   6.133   5.067
 6554TIP3    H219608   6.735   6.267   4.997
 6555TIP3   OH219609   0.637   3.744   4.799
 6555TIP3    H119610   0.572   3.804   4.764
 6555TIP3    H219611   0.634   3.668   4.741
 6556TIP3   OH219612   5.830   5.819   2.377
 6556TIP3    H119613   5.875   5.846   2.297
 6556TIP3    H219614   5.900   5.817   2.443
 6557TIP3   OH219615   3.408   1.938   2.037
 6557TIP3    H119616   3.322   1.903   2.014
 6557TIP3    H219617   3.453   1.948   1.953
 6558TIP3   OH219618   2.407   7.432   5.103
 6558TIP3    H119619   2.351   7.380   5.160
 6558TIP3    H219620   2.363   7.517   5.097
 6559TIP3   OH219621   1.306   7.233   2.439
 6559TIP3    H119622   1.232   7.179   2.413
 6559TIP3    H219623   1.332   7.198   2.524
 6560TIP3   OH219624   1.001   6.042   0.613
 6560TIP3    H119625   1.018   6.043   0.519
 6560TIP3    H219626   0.937   6.113   0.625
 6561TIP3   OH219627   2.445   2.892   4.862
 6561TIP3    H119628   2.366   2.876   4.912
 6561TIP3    H219629   2.509   2.921   4.927
 6562TIP3   OH219630   3.138   0.779   6.002
 6562TIP3    H119631   3.227   0.754   5.979
 6562TIP3    H219632   3.115   0.847   5.938
 6563TIP3   OH219633   2.991   6.244   5.850
 6563TIP3    H119634   2.919   6.276   5.904
 6563TIP3    H219635   3.067   6.295   5.878
 6564TIP3   OH219636   7.352   4.248   3.098
 6564TIP3    H119637   7.334   4.157   3.077
 6564TIP3    H219638   7.272   4.295   3.074
 6565TIP3   OH219639   1.819   3.874   4.074
 6565TIP3    H119640   1.898   3.851   4.026
 6565TIP3    H219641   1.839   3.957   4.116
 6566TIP3   OH219642   2.754   0.358   6.588
 6566TIP3    H119643   2.761   0.418   6.662
 6566TIP3    H219644   2.804   0.400   6.518
 6567TIP3   OH219645   0.111   4.742   6.758
 6567TIP3    H119646   0.158   4.706   6.683
 6567TIP3    H219647   0.178   4.758   6.824
 6568TIP3   OH219648   3.767   1.838   1.910
 6568TIP3    H119649   3.719   1.921   1.912
 6568TIP3    H219650   3.857   1.863   1.888
 6569TIP3   OH219651   7.267   0.499   0.127
 6569TIP3    H119652   7.220   0.535   0.051
 6569TIP3    H219653   7.210   0.518   0.201
 6570TIP3   OH219654   6.374   3.923   3.690
 6570TIP3    H119655   6.390   3.933   3.784
 6570TIP3    H219656   6.396   4.008   3.652
 6571TIP3   OH219657   4.152   3.084   3.207
 6571TIP3    H119658   4.230   3.060   3.158
 6571TIP3    H219659   4.092   3.010   3.194
 6572TIP3   OH219660   3.472   3.505   1.166
 6572TIP3    H119661   3.564   3.491   1.190
 6572TIP3    H219662   3.443   3.419   1.136
 6573TIP3   OH219663   2.680   6.346   4.548
 6573TIP3    H119664   2.733   6.367   4.471
 6573TIP3    H219665   2.659   6.431   4.587
 6574TIP3   OH219666   2.293   1.129   1.257
 6574TIP3    H119667   2.289   1.212   1.303
 6574TIP3    H219668   2.203   1.097   1.256
 6575TIP3   OH219669   4.884   2.945   3.464
 6575TIP3    H119670   4.892   3.024   3.516
 6575TIP3    H219671   4.970   2.903   3.471
 6576TIP3   OH219672   2.635   2.954   5.080
 6576TIP3    H119673   2.643   2.991   5.168
 6576TIP3    H219674   2.709   2.989   5.032
 6577TIP3   OH219675   5.933   3.467   5.505
 6577TIP3    H119676   5.899   3.492   5.420
 6577TIP3    H219677   5.942   3.549   5.554
 6578TIP3   OH219678   0.179   0.531   3.587
 6578TIP3    H119679   0.117   0.506   3.655
 6578TIP3    H219680   0.265   0.517   3.626
 6579TIP3   OH219681   4.407   4.932   3.585
 6579TIP3    H119682   4.382   4.847   3.549
 6579TIP3    H219683   4.501   4.938   3.569
 6580TIP3   OH219684   0.294   3.859   0.528
 6580TIP3    H119685   0.255   3.904   0.453
 6580TIP3    H219686   0.234   3.785   0.544
 6581TIP3   OH219687   0.852   6.860   4.253
 6581TIP3    H119688   0.778   6.801   4.270
 6581TIP3    H219689   0.910   6.809   4.196
 6582TIP3   OH219690   1.564   6.787   2.556
 6582TIP3    H119691   1.635   6.813   2.614
 6582TIP3    H219692   1.490   6.769   2.615
 6583TIP3   OH219693   7.126   0.773   4.927
 6583TIP3    H119694   7.106   0.791   4.835
 6583TIP3    H219695   7.193   0.704   4.924
 6584TIP3   OH219696   7.380   2.465   5.516
 6584TIP3    H119697   7.435   2.496   5.444
 6584TIP3    H219698   7.378   2.538   5.578
 6585TIP3   OH219699   4.705   4.549   0.207
 6585TIP3    H119700   4.745   4.599   0.136
 6585TIP3    H219701   4.777   4.529   0.266
 6586TIP3   OH219702   5.056   1.737   0.296
 6586TIP3    H119703   5.127   1.711   0.237
 6586TIP3    H219704   4.976   1.713   0.249
 6587TIP3   OH219705   0.452   7.753   2.813
 6587TIP3    H119706   0.359   7.773   2.801
 6587TIP3    H219707   0.467   7.676   2.758
 6588TIP3   OH219708   7.413   0.992   5.161
 6588TIP3    H119709   7.453   0.990   5.248
 6588TIP3    H219710   7.397   1.084   5.144
 6589TIP3   OH219711   7.320   4.817   3.440
 6589TIP3    H119712   7.285   4.863   3.517
 6589TIP3    H219713   7.313   4.724   3.463
 6590TIP3   OH219714   7.009   3.517   5.227
 6590TIP3    H119715   7.062   3.463   5.168
 6590TIP3    H219716   6.963   3.454   5.282
 6591TIP3   OH219717   8.239   5.266   5.376
 6591TIP3    H119718   8.263   5.356   5.397
 6591TIP3    H219719   8.296   5.212   5.430
 6592TIP3   OH219720   7.770   2.361   1.082
 6592TIP3    H119721   7.684   2.319   1.088
 6592TIP3    H219722   7.750   2.453   1.063
 6593TIP3   OH219723   8.257   7.357   5.870
 6593TIP3    H119724   8.274   7.451   5.869
 6593TIP3    H219725   8.220   7.340   5.957
 6594TIP3   OH219726   1.273   4.710   6.540
 6594TIP3    H119727   1.248   4.636   6.595
 6594TIP3    H219728   1.279   4.784   6.601
 6595TIP3   OH219729   6.538   1.727   2.910
 6595TIP3    H119730   6.607   1.686   2.858
 6595TIP3    H219731   6.563   1.708   3.001
 6596TIP3   OH219732   3.643   6.142   1.158
 6596TIP3    H119733   3.582   6.165   1.089
 6596TIP3    H219734   3.655   6.223   1.208
 6597TIP3   OH219735   8.045   2.361   5.829
 6597TIP3    H119736   8.087   2.308   5.896
 6597TIP3    H219737   7.978   2.303   5.792
 6598TIP3   OH219738   7.726   1.979   6.211
 6598TIP3    H119739   7.792   2.046   6.230
 6598TIP3    H219740   7.643   2.025   6.216
 6599TIP3   OH219741   5.548   3.940   0.363
 6599TIP3    H119742   5.556   4.030   0.332
 6599TIP3    H219743   5.475   3.943   0.425
 6600TIP3   OH219744   5.996   3.449   2.935
 6600TIP3    H119745   5.960   3.366   2.966
 6600TIP3    H219746   6.090   3.431   2.924
 6601TIP3   OH219747   2.419   3.919   1.998
 6601TIP3    H119748   2.458   3.878   2.075
 6601TIP3    H219749   2.330   3.885   1.995
 6602TIP3   OH219750   7.951   3.568   2.348
 6602TIP3    H119751   7.861   3.578   2.317
 6602TIP3    H219752   7.964   3.641   2.408
 6603TIP3   OH219753   0.151   7.093   4.157
 6603TIP3    H119754   0.065   7.080   4.195
 6603TIP3    H219755   0.148   7.181   4.120
 6604TIP3   OH219756   7.831   1.688   5.687
 6604TIP3    H119757   7.842   1.723   5.598
 6604TIP3    H219758   7.829   1.593   5.675
 6605TIP3   OH219759   2.144   2.281   6.587
 6605TIP3    H119760   2.096   2.231   6.521
 6605TIP3    H219761   2.205   2.334   6.537
 6606TIP3   OH219762   4.577   2.793   6.200
 6606TIP3    H119763   4.489   2.801   6.236
 6606TIP3    H219764   4.627   2.750   6.269
 6607TIP3   OH219765   6.510   0.121   2.131
 6607TIP3    H119766   6.568   0.076   2.069
 6607TIP3    H219767   6.439   0.059   2.146
 6608TIP3   OH219768   5.296   0.774   0.597
 6608TIP3    H119769   5.280   0.829   0.674
 6608TIP3    H219770   5.322   0.689   0.633
 6609TIP3   OH219771   0.544   7.674   6.230
 6609TIP3    H119772   0.618   7.655   6.173
 6609TIP3    H219773   0.542   7.769   6.236
 6610TIP3   OH219774   7.869   3.193   1.064
 6610TIP3    H119775   7.863   3.170   1.156
 6610TIP3    H219776   7.818   3.274   1.057
 6611TIP3   OH219777   1.866   0.627   2.886
 6611TIP3    H119778   1.913   0.572   2.824
 6611TIP3    H219779   1.823   0.565   2.945
 6612TIP3   OH219780   7.985   2.237   1.208
 6612TIP3    H119781   8.061   2.282   1.244
 6612TIP3    H219782   7.922   2.307   1.189
 6613TIP3   OH219783   6.484   3.872   4.973
 6613TIP3    H119784   6.390   3.881   4.965
 6613TIP3    H219785   6.512   3.831   4.892
 6614TIP3   OH219786   6.855   6.220   1.485
 6614TIP3    H119787   6.879   6.209   1.577
 6614TIP3    H219788   6.933   6.193   1.436
 6615TIP3   OH219789   2.429   5.387   1.587
 6615TIP3    H119790   2.487   5.436   1.529
 6615TIP3    H219791   2.463   5.297   1.585
 6616TIP3   OH219792   2.198   2.969   1.081
 6616TIP3    H119793   2.270   3.030   1.064
 6616TIP3    H219794   2.119   3.021   1.075
 6617TIP3   OH219795   1.676   6.996   0.042
 6617TIP3    H119796   1.763   6.991   0.003
 6617TIP3    H219797   1.662   6.910   0.081
 6618TIP3   OH219798   4.099   7.660   0.645
 6618TIP3    H119799   4.188   7.680   0.673
 6618TIP3    H219800   4.073   7.585   0.698
 6619TIP3   OH219801   1.483   3.644   4.615
 6619TIP3    H119802   1.432   3.603   4.545
 6619TIP3    H219803   1.470   3.587   4.691
 6620TIP3   OH219804   2.863   1.558   1.146
 6620TIP3    H119805   2.947   1.560   1.191
 6620TIP3    H219806   2.840   1.465   1.142
 6621TIP3   OH219807   1.470   0.565   1.085
 6621TIP3    H119808   1.495   0.644   1.038
 6621TIP3    H219809   1.544   0.546   1.142
 6622TIP3   OH219810   0.362   6.543   6.630
 6622TIP3    H119811   0.358   6.611   6.563
 6622TIP3    H219812   0.455   6.535   6.651
 6623TIP3   OH219813   6.354   0.690   2.528
 6623TIP3    H119814   6.440   0.680   2.570
 6623TIP3    H219815   6.316   0.603   2.530
 6624TIP3   OH219816   5.845   2.358   6.619
 6624TIP3    H119817   5.869   2.325   6.705
 6624TIP3    H219818   5.915   2.327   6.561
 6625TIP3   OH219819   0.678   0.087   4.609
 6625TIP3    H119820   0.715   0.163   4.655
 6625TIP3    H219821   0.746   0.062   4.547
 6626TIP3   OH219822   0.380   4.261   0.765
 6626TIP3    H119823   0.354   4.348   0.735
 6626TIP3    H219824   0.410   4.275   0.855
 6627TIP3   OH219825   3.816   4.858   5.289
 6627TIP3    H119826   3.755   4.822   5.224
 6627TIP3    H219827   3.778   4.834   5.374
 6628TIP3   OH219828   5.259   0.616   5.983
 6628TIP3    H119829   5.250   0.618   6.079
 6628TIP3    H219830   5.247   0.708   5.956
 6629TIP3   OH219831   0.257   6.548   2.160
 6629TIP3    H119832   0.242   6.642   2.149
 6629TIP3    H219833   0.206   6.525   2.237
 6630TIP3   OH219834   3.502   7.580   2.729
 6630TIP3    H119835   3.579   7.531   2.700
 6630TIP3    H219836   3.431   7.552   2.672
 6631TIP3   OH219837   5.535   7.536   5.490
 6631TIP3    H119838   5.627   7.534   5.519
 6631TIP3    H219839   5.507   7.626   5.507
 6632TIP3   OH219840   4.163   1.260   6.660
 6632TIP3    H119841   4.207   1.299   6.736
 6632TIP3    H219842   4.180   1.322   6.589
 6633TIP3   OH219843   5.041   7.727   6.351
 6633TIP3    H119844   5.021   7.668   6.278
 6633TIP3    H219845   5.130   7.702   6.377
 6634TIP3   OH219846   2.339   4.118   2.219
 6634TIP3    H119847   2.259   4.114   2.166
 6634TIP3    H219848   2.372   4.206   2.205
 6635TIP3   OH219849   1.182   5.040   5.491
 6635TIP3    H119850   1.266   5.067   5.455
 6635TIP3    H219851   1.198   5.026   5.584
 6636TIP3   OH219852   0.557   3.000   4.382
 6636TIP3    H119853   0.514   3.016   4.466
 6636TIP3    H219854   0.621   3.072   4.374
 6637TIP3   OH219855   4.117   3.394   4.246
 6637TIP3    H119856   4.106   3.482   4.282
 6637TIP3    H219857   4.204   3.367   4.275
 6638TIP3   OH219858   3.124   7.036   0.745
 6638TIP3    H119859   3.163   7.089   0.815
 6638TIP3    H219860   3.038   7.011   0.779
 6639TIP3   OH219861   3.304   0.098   6.540
 6639TIP3    H119862   3.228   0.126   6.489
 6639TIP3    H219863   3.285   0.127   6.629
 6640TIP3   OH219864   5.241   4.278   0.456
 6640TIP3    H119865   5.334   4.255   0.463
 6640TIP3    H219866   5.236   4.339   0.382
 6641TIP3   OH219867   0.952   5.597   2.163
 6641TIP3    H119868   0.901   5.580   2.083
 6641TIP3    H219869   1.018   5.529   2.164
 6642TIP3   OH219870   7.852   4.990   6.331
 6642TIP3    H119871   7.918   4.928   6.302
 6642TIP3    H219872   7.867   5.068   6.277
 6643TIP3   OH219873   3.197   4.170   0.292
 6643TIP3    H119874   3.132   4.104   0.318
 6643TIP3    H219875   3.271   4.119   0.259
 6644TIP3   OH219876   0.104   2.401   3.952
 6644TIP3    H119877   0.109   2.334   4.020
 6644TIP3    H219878   0.070   2.478   3.997
 6645TIP3   OH219879   4.010   3.564   3.082
 6645TIP3    H119880   4.066   3.498   3.123
 6645TIP3    H219881   4.004   3.634   3.147
 6646TIP3   OH219882   0.308   3.481   5.061
 6646TIP3    H119883   0.389   3.474   5.110
 6646TIP3    H219884   0.266   3.561   5.094
 6647TIP3   OH219885   2.449   1.791   0.597
 6647TIP3    H119886   2.407   1.775   0.681
 6647TIP3    H219887   2.378   1.819   0.539
 6648TIP3   OH219888   0.582   2.599   3.350
 6648TIP3    H119889   0.522   2.611   3.424
 6648TIP3    H219890   0.584   2.504   3.336
 6649TIP3   OH219891   4.718   7.454   0.664
 6649TIP3    H119892   4.756   7.513   0.599
 6649TIP3    H219893   4.624   7.461   0.652
 6650TIP3   OH219894   1.735   2.618   2.881
 6650TIP3    H119895   1.796   2.544   2.881
 6650TIP3    H219896   1.648   2.577   2.882
 6651TIP3   OH219897   2.118   6.495   2.720
 6651TIP3    H119898   2.078   6.441   2.789
 6651TIP3    H219899   2.179   6.552   2.766
 6652TIP3   OH219900   5.645   6.253   4.447
 6652TIP3    H119901   5.577   6.274   4.511
 6652TIP3    H219902   5.628   6.313   4.374
 6653TIP3   OH219903   5.568   6.334   3.579
 6653TIP3    H119904   5.647   6.374   3.616
 6653TIP3    H219905   5.553   6.382   3.498
 6654TIP3   OH219906   6.018   1.964   3.954
 6654TIP3    H119907   6.007   2.016   4.034
 6654TIP3    H219908   6.081   1.895   3.979
 6655TIP3   OH219909   7.726   2.421   6.293
 6655TIP3    H119910   7.682   2.357   6.348
 6655TIP3    H219911   7.722   2.383   6.205
 6656TIP3   OH219912   2.951   2.842   5.281
 6656TIP3    H119913   3.034   2.810   5.316
 6656TIP3    H219914   2.884   2.795   5.331
 6657TIP3   OH219915   2.937   1.930   6.338
 6657TIP3    H119916   2.893   1.906   6.419
 6657TIP3    H219917   3.029   1.911   6.354
 6658TIP3   OH219918   7.635   5.576   3.227
 6658TIP3    H119919   7.623   5.629   3.148
 6658TIP3    H219920   7.729   5.574   3.241
 6659TIP3   OH219921   1.564   1.957   1.232
 6659TIP3    H119922   1.633   2.024   1.230
 6659TIP3    H219923   1.605   1.879   1.194
 6660TIP3   OH219924   0.481   7.696   1.297
 6660TIP3    H119925   0.392   7.702   1.334
 6660TIP3    H219926   0.467   7.703   1.203
 6661TIP3   OH219927   0.079   3.574   1.442
 6661TIP3    H119928   0.026   3.606   1.515
 6661TIP3    H219929   0.087   3.480   1.457
 6662TIP3   OH219930   1.013   1.829   5.043
 6662TIP3    H119931   1.066   1.800   4.969
 6662TIP3    H219932   1.024   1.924   5.044
 6663TIP3   OH219933   6.227   5.167   3.659
 6663TIP3    H119934   6.205   5.119   3.580
 6663TIP3    H219935   6.227   5.101   3.728
 6664TIP3   OH219936   1.628   1.901   6.343
 6664TIP3    H119937   1.545   1.950   6.342
 6664TIP3    H219938   1.649   1.893   6.436
 6665TIP3   OH219939   2.451   6.598   3.746
 6665TIP3    H119940   2.446   6.619   3.653
 6665TIP3    H219941   2.453   6.502   3.749
 6666TIP3   OH219942   1.473   1.245   2.565
 6666TIP3    H119943   1.406   1.289   2.617
 6666TIP3    H219944   1.539   1.217   2.629
 6667TIP3   OH219945   6.849   0.552   3.360
 6667TIP3    H119946   6.830   0.641   3.333
 6667TIP3    H219947   6.772   0.502   3.332
 6668TIP3   OH219948   6.039   4.654   4.706
 6668TIP3    H119949   6.076   4.565   4.698
 6668TIP3    H219950   5.987   4.665   4.626
 6669TIP3   OH219951   5.659   2.952   4.578
 6669TIP3    H119952   5.579   2.905   4.602
 6669TIP3    H219953   5.726   2.917   4.636
 6670TIP3   OH219954   6.298   1.479   4.639
 6670TIP3    H119955   6.334   1.556   4.596
 6670TIP3    H219956   6.375   1.424   4.656
 6671TIP3   OH219957   1.940   7.159   4.494
 6671TIP3    H119958   2.022   7.129   4.535
 6671TIP3    H219959   1.900   7.217   4.559
 6672TIP3   OH219960   4.964   1.670   0.820
 6672TIP3    H119961   5.034   1.706   0.875
 6672TIP3    H219962   4.889   1.726   0.837
 6673TIP3   OH219963   2.578   1.693   4.257
 6673TIP3    H119964   2.641   1.753   4.295
 6673TIP3    H219965   2.493   1.721   4.291
 6674TIP3   OH219966   1.659   7.006   2.928
 6674TIP3    H119967   1.588   7.052   2.973
 6674TIP3    H219968   1.671   7.053   2.846
 6675TIP3   OH219969   6.932   6.640   5.424
 6675TIP3    H119970   6.979   6.588   5.359
 6675TIP3    H219971   6.995   6.706   5.452
 6676TIP3   OH219972   7.303   4.806   1.440
 6676TIP3    H119973   7.223   4.755   1.452
 6676TIP3    H219974   7.322   4.798   1.346
 6677TIP3   OH219975   1.986   7.118   0.121
 6677TIP3    H119976   2.010   7.046   0.179
 6677TIP3    H219977   2.038   7.192   0.151
 6678TIP3   OH219978   3.518   6.193   3.200
 6678TIP3    H119979   3.538   6.283   3.174
 6678TIP3    H219980   3.601   6.158   3.232
 6679TIP3   OH219981   7.339   4.113   0.982
 6679TIP3    H119982   7.288   4.107   1.062
 6679TIP3    H219983   7.395   4.190   0.994
 6680TIP3   OH219984   3.397   7.814   2.493
 6680TIP3    H119985   3.306   7.784   2.496
 6680TIP3    H219986   3.446   7.744   2.537
 6681TIP3   OH219987   5.613   2.591   5.921
 6681TIP3    H119988   5.610   2.657   5.851
 6681TIP3    H219989   5.602   2.508   5.877
 6682TIP3   OH219990   0.105   5.001   0.327
 6682TIP3    H119991   0.070   5.058   0.395
 6682TIP3    H219992   0.199   4.995   0.346
 6683TIP3   OH219993   6.664   1.713   5.422
 6683TIP3    H119994   6.596   1.668   5.371
 6683TIP3    H219995   6.633   1.803   5.428
 6684TIP3   OH219996   0.117   6.511   0.933
 6684TIP3    H119997   0.075   6.520   0.848
 6684TIP3    H219998   0.107   6.597   0.974
 6685TIP3   OH219999   5.127   0.490   4.612
 6685TIP3    H120000   5.205   0.487   4.667
 6685TIP3    H220001   5.100   0.399   4.603
 6686TIP3   OH220002   5.904   5.136   2.640
 6686TIP3    H120003   5.839   5.164   2.576
 6686TIP3    H220004   5.857   5.074   2.696
 6687TIP3   OH220005   6.876   0.557   4.855
 6687TIP3    H120006   6.963   0.551   4.816
 6687TIP3    H220007   6.875   0.489   4.922
 6688TIP3   OH220008   5.833   0.763   3.040
 6688TIP3    H120009   5.895   0.800   2.977
 6688TIP3    H220010   5.888   0.726   3.109
 6689TIP3   OH220011   2.067   3.484   3.109
 6689TIP3    H120012   2.004   3.447   3.171
 6689TIP3    H220013   2.116   3.408   3.077
 6690TIP3   OH220014   4.591   4.430   4.510
 6690TIP3    H120015   4.562   4.442   4.601
 6690TIP3    H220016   4.685   4.413   4.517
 6691TIP3   OH220017   1.776   0.149   3.190
 6691TIP3    H120018   1.701   0.098   3.158
 6691TIP3    H220019   1.736   0.221   3.239
 6692TIP3   OH220020   0.527   5.113   0.184
 6692TIP3    H120021   0.530   5.202   0.219
 6692TIP3    H220022   0.618   5.094   0.159
 6693TIP3   OH220023   2.675   6.379   3.644
 6693TIP3    H120024   2.739   6.447   3.666
 6693TIP3    H220025   2.727   6.309   3.604
 6694TIP3   OH220026   5.861   4.542   6.696
 6694TIP3    H120027   5.851   4.510   6.785
 6694TIP3    H220028   5.942   4.593   6.697
 6695TIP3   OH220029   7.212   6.123   5.468
 6695TIP3    H120030   7.155   6.200   5.462
 6695TIP3    H220031   7.210   6.098   5.560
 6696TIP3   OH220032   7.356   2.077   1.458
 6696TIP3    H120033   7.442   2.038   1.471
 6696TIP3    H220034   7.371   2.148   1.395
 6697TIP3   OH220035   3.577   1.496   5.156
 6697TIP3    H120036   3.539   1.548   5.085
 6697TIP3    H220037   3.594   1.558   5.226
 6698TIP3   OH220038   4.088   4.778   5.824
 6698TIP3    H120039   4.033   4.841   5.778
 6698TIP3    H220040   4.175   4.789   5.785
 6699TIP3   OH220041   2.944   3.702   1.900
 6699TIP3    H120042   2.936   3.623   1.846
 6699TIP3    H220043   3.033   3.699   1.934
 6700TIP3   OH220044   3.014   0.592   2.098
 6700TIP3    H120045   2.976   0.529   2.159
 6700TIP3    H220046   2.972   0.675   2.120
 6701TIP3   OH220047   4.245   2.891   1.212
 6701TIP3    H120048   4.157   2.927   1.224
 6701TIP3    H220049   4.285   2.948   1.147
 6702TIP3   OH220050   4.771   5.673   3.111
 6702TIP3    H120051   4.854   5.682   3.156
 6702TIP3    H220052   4.718   5.617   3.168
 6703TIP3   OH220053   3.239   4.372   4.723
 6703TIP3    H120054   3.321   4.323   4.729
 6703TIP3    H220055   3.171   4.304   4.724
 6704TIP3   OH220056   7.362   4.709   2.585
 6704TIP3    H120057   7.420   4.653   2.533
 6704TIP3    H220058   7.274   4.686   2.556
 6705TIP3   OH220059   6.161   6.729   6.586
 6705TIP3    H120060   6.116   6.792   6.530
 6705TIP3    H220061   6.176   6.654   6.529
 6706TIP3   OH220062   1.334   4.259   5.842
 6706TIP3    H120063   1.385   4.330   5.881
 6706TIP3    H220064   1.358   4.259   5.750
 6707TIP3   OH220065   3.949   0.455   5.512
 6707TIP3    H120066   3.898   0.390   5.465
 6707TIP3    H220067   4.034   0.413   5.526
 6708TIP3   OH220068   5.464   7.699   5.840
 6708TIP3    H120069   5.532   7.719   5.776
 6708TIP3    H220070   5.511   7.667   5.917
 6709TIP3   OH220071   4.570   2.881   2.039
 6709TIP3    H120072   4.587   2.786   2.039
 6709TIP3    H220073   4.537   2.899   1.951
 6710TIP3   OH220074   6.415   0.209   2.813
 6710TIP3    H120075   6.492   0.204   2.756
 6710TIP3    H220076   6.356   0.142   2.779
 6711TIP3   OH220077   7.735   2.218   3.032
 6711TIP3    H120078   7.758   2.125   3.026
 6711TIP3    H220079   7.643   2.222   3.006
 6712TIP3   OH220080   2.678   4.912   3.560
 6712TIP3    H120081   2.664   4.844   3.493
 6712TIP3    H220082   2.605   4.972   3.549
 6713TIP3   OH220083   8.155   5.569   3.646
 6713TIP3    H120084   8.209   5.589   3.569
 6713TIP3    H220085   8.114   5.653   3.668
 6714TIP3   OH220086   3.752   5.753   1.489
 6714TIP3    H120087   3.835   5.769   1.534
 6714TIP3    H220088   3.737   5.659   1.501
 6715TIP3   OH220089   5.552   3.896   3.693
 6715TIP3    H120090   5.624   3.834   3.677
 6715TIP3    H220091   5.559   3.917   3.787
 6716TIP3   OH220092   3.763   3.352   6.003
 6716TIP3    H120093   3.809   3.360   5.920
 6716TIP3    H220094   3.678   3.314   5.980
 6717TIP3   OH220095   2.305   3.835   3.917
 6717TIP3    H120096   2.350   3.915   3.943
 6717TIP3    H220097   2.361   3.764   3.947
 6718TIP3   OH220098   7.797   1.947   0.983
 6718TIP3    H120099   7.758   1.980   1.064
 6718TIP3    H220100   7.863   2.013   0.959
 6719TIP3   OH220101   5.398   6.391   0.116
 6719TIP3    H120102   5.404   6.476   0.160
 6719TIP3    H220103   5.315   6.394   0.069
 6720TIP3   OH220104   3.001   0.257   2.664
 6720TIP3    H120105   2.930   0.314   2.697
 6720TIP3    H220106   2.971   0.168   2.684
 6721TIP3   OH220107   6.003   0.627   0.622
 6721TIP3    H120108   6.087   0.585   0.641
 6721TIP3    H220109   6.018   0.673   0.538
 6722TIP3   OH220110   6.909   2.065   4.273
 6722TIP3    H120111   6.911   2.142   4.330
 6722TIP3    H220112   6.956   2.092   4.194
 6723TIP3   OH220113   7.193   5.045   6.714
 6723TIP3    H120114   7.265   4.993   6.678
 6723TIP3    H220115   7.130   4.981   6.744
 6724TIP3   OH220116   7.639   3.628   0.143
 6724TIP3    H120117   7.587   3.644   0.222
 6724TIP3    H220118   7.686   3.710   0.129
 6725TIP3   OH220119   5.838   5.767   5.581
 6725TIP3    H120120   5.801   5.772   5.670
 6725TIP3    H220121   5.884   5.850   5.569
 6726TIP3   OH220122   3.058   2.275   3.522
 6726TIP3    H120123   3.115   2.346   3.491
 6726TIP3    H220124   3.011   2.247   3.443
 6727TIP3   OH220125   4.897   2.957   3.156
 6727TIP3    H120126   4.946   3.020   3.102
 6727TIP3    H220127   4.935   2.966   3.243
 6728TIP3   OH220128   3.427   0.295   5.198
 6728TIP3    H120129   3.350   0.328   5.152
 6728TIP3    H220130   3.393   0.263   5.282
 6729TIP3   OH220131   2.160   0.833   3.430
 6729TIP3    H120132   2.180   0.742   3.455
 6729TIP3    H220133   2.067   0.844   3.452
 6730TIP3   OH220134   2.912   2.783   6.310
 6730TIP3    H120135   2.874   2.727   6.243
 6730TIP3    H220136   2.939   2.723   6.379
 6731TIP3   OH220137   6.797   3.075   0.120
 6731TIP3    H120138   6.797   2.983   0.145
 6731TIP3    H220139   6.708   3.106   0.139
 6732TIP3   OH220140   7.274   1.173   1.581
 6732TIP3    H120141   7.247   1.088   1.617
 6732TIP3    H220142   7.294   1.226   1.657
 6733TIP3   OH220143   0.216   0.943   3.905
 6733TIP3    H120144   0.271   1.009   3.946
 6733TIP3    H220145   0.127   0.966   3.931
 6734TIP3   OH220146   1.313   7.638   5.525
 6734TIP3    H120147   1.288   7.563   5.579
 6734TIP3    H220148   1.395   7.611   5.484
 6735TIP3   OH220149   7.699   6.457   5.338
 6735TIP3    H120150   7.705   6.391   5.407
 6735TIP3    H220151   7.692   6.540   5.385
 6736TIP3   OH220152   8.078   4.249   0.768
 6736TIP3    H120153   8.090   4.154   0.764
 6736TIP3    H220154   8.150   4.284   0.716
 6737TIP3   OH220155   0.792   0.340   1.317
 6737TIP3    H120156   0.700   0.313   1.316
 6737TIP3    H220157   0.835   0.279   1.258
 6738TIP3   OH220158   5.758   3.147   2.586
 6738TIP3    H120159   5.808   3.070   2.561
 6738TIP3    H220160   5.671   3.133   2.551
 6739TIP3   OH220161   2.714   7.056   1.053
 6739TIP3    H120162   2.635   7.108   1.069
 6739TIP3    H220163   2.785   7.107   1.090
 6740TIP3   OH220164   5.508   1.712   5.009
 6740TIP3    H120165   5.544   1.795   4.980
 6740TIP3    H220166   5.570   1.646   4.976
 6741TIP3   OH220167   6.601   3.777   2.897
 6741TIP3    H120168   6.633   3.692   2.927
 6741TIP3    H220169   6.677   3.819   2.857
 6742TIP3   OH220170   3.275   4.057   4.806
 6742TIP3    H120171   3.198   4.107   4.834
 6742TIP3    H220172   3.241   3.991   4.746
 6743TIP3   OH220173   1.122   6.218   0.881
 6743TIP3    H120174   1.144   6.282   0.813
 6743TIP3    H220175   1.111   6.136   0.834
 6744TIP3   OH220176   4.294   2.192   3.943
 6744TIP3    H120177   4.370   2.229   3.988
 6744TIP3    H220178   4.220   2.209   4.001
 6745TIP3   OH220179   3.168   7.592   3.624
 6745TIP3    H120180   3.215   7.590   3.707
 6745TIP3    H220181   3.089   7.643   3.642
 6746TIP3   OH220182   4.421   5.983   3.040
 6746TIP3    H120183   4.488   5.971   3.108
 6746TIP3    H220184   4.379   6.066   3.063
 6747TIP3   OH220185   7.171   0.505   5.048
 6747TIP3    H120186   7.162   0.465   4.962
 6747TIP3    H220187   7.153   0.433   5.110
 6748TIP3   OH220188   4.266   4.371   3.886
 6748TIP3    H120189   4.190   4.415   3.848
 6748TIP3    H220190   4.275   4.291   3.833
 6749TIP3   OH220191   1.456   1.240   3.382
 6749TIP3    H120192   1.368   1.231   3.346
 6749TIP3    H220193   1.460   1.175   3.452
 6750TIP3   OH220194   7.230   3.586   5.434
 6750TIP3    H120195   7.221   3.553   5.345
 6750TIP3    H220196   7.202   3.512   5.489
 6751TIP3   OH220197   1.623   3.179   1.943
 6751TIP3    H120198   1.581   3.104   1.984
 6751TIP3    H220199   1.668   3.142   1.867
 6752TIP3   OH220200   5.286   5.506   1.961
 6752TIP3    H120201   5.374   5.506   2.001
 6752TIP3    H220202   5.283   5.586   1.909
 6753TIP3   OH220203   5.386   0.546   5.689
 6753TIP3    H120204   5.291   0.532   5.684
 6753TIP3    H220205   5.396   0.641   5.690
 6754TIP3   OH220206   0.169   2.594   1.045
 6754TIP3    H120207   0.103   2.545   0.996
 6754TIP3    H220208   0.176   2.548   1.128
 6755TIP3   OH220209   1.744   6.781   2.752
 6755TIP3    H120210   1.820   6.781   2.693
 6755TIP3    H220211   1.768   6.844   2.820
 6756TIP3   OH220212   7.374   5.754   1.181
 6756TIP3    H120213   7.469   5.755   1.180
 6756TIP3    H220214   7.349   5.832   1.231
 6757TIP3   OH220215   6.514   1.831   3.475
 6757TIP3    H120216   6.482   1.817   3.564
 6757TIP3    H220217   6.505   1.925   3.461
 6758TIP3   OH220218   4.035   7.154   4.060
 6758TIP3    H120219   3.955   7.118   4.100
 6758TIP3    H220220   4.055   7.094   3.989
 6759TIP3   OH220221   3.239   5.006   1.975
 6759TIP3    H120222   3.299   5.016   2.049
 6759TIP3    H220223   3.258   5.080   1.918
 6760TIP3   OH220224   5.581   4.362   4.936
 6760TIP3    H120225   5.545   4.277   4.912
 6760TIP3    H220226   5.622   4.347   5.021
 6761TIP3   OH220227   2.005   0.045   6.375
 6761TIP3    H120228   2.012  -0.032   6.432
 6761TIP3    H220229   1.918   0.038   6.336
 6762TIP3   OH220230   7.084   6.261   3.505
 6762TIP3    H120231   7.140   6.185   3.521
 6762TIP3    H220232   7.078   6.306   3.589
 6763TIP3   OH220233   6.235   0.774   3.146
 6763TIP3    H120234   6.322   0.766   3.109
 6763TIP3    H220235   6.189   0.833   3.086
 6764TIP3   OH220236   6.279   2.958   2.568
 6764TIP3    H120237   6.268   3.006   2.651
 6764TIP3    H220238   6.251   3.021   2.501
 6765TIP3   OH220239   0.318   4.109   6.258
 6765TIP3    H120240   0.364   4.188   6.228
 6765TIP3    H220241   0.253   4.092   6.190
 6766TIP3   OH220242   7.533   6.817   0.586
 6766TIP3    H120243   7.496   6.819   0.674
 6766TIP3    H220244   7.586   6.737   0.585
 6767TIP3   OH220245   7.148   1.987   6.444
 6767TIP3    H120246   7.102   2.048   6.386
 6767TIP3    H220247   7.149   2.032   6.529
 6768TIP3   OH220248   6.502   1.892   0.665
 6768TIP3    H120249   6.417   1.932   0.684
 6768TIP3    H220250   6.485   1.798   0.668
 6769TIP3   OH220251   7.644   2.299   1.579
 6769TIP3    H120252   7.560   2.288   1.622
 6769TIP3    H220253   7.692   2.219   1.600
 6770TIP3   OH220254   0.097   7.412   2.710
 6770TIP3    H120255   0.054   7.336   2.671
 6770TIP3    H220256   0.031   7.451   2.767
 6771TIP3   OH220257   3.850   2.819   1.724
 6771TIP3    H120258   3.802   2.897   1.750
 6771TIP3    H220259   3.927   2.852   1.678
 6772TIP3   OH220260   2.090   1.731   4.229
 6772TIP3    H120261   2.089   1.673   4.306
 6772TIP3    H220262   2.013   1.786   4.239
 6773TIP3   OH220263   2.658   6.075   6.068
 6773TIP3    H120264   2.596   6.086   6.140
 6773TIP3    H220265   2.690   6.164   6.050
 6774TIP3   OH220266   3.471   3.960   4.470
 6774TIP3    H120267   3.431   4.042   4.441
 6774TIP3    H220268   3.565   3.978   4.470
 6775TIP3   OH220269   4.745   4.819   5.427
 6775TIP3    H120270   4.810   4.867   5.477
 6775TIP3    H220271   4.769   4.727   5.437
 6776TIP3   OH220272   7.494   5.604   5.693
 6776TIP3    H120273   7.441   5.680   5.667
 6776TIP3    H220274   7.558   5.640   5.754
 6777TIP3   OH220275   4.572   3.760   3.702
 6777TIP3    H120276   4.582   3.762   3.797
 6777TIP3    H220277   4.479   3.778   3.687
 6778TIP3   OH220278   7.377   0.219   2.717
 6778TIP3    H120279   7.365   0.142   2.662
 6778TIP3    H220280   7.315   0.283   2.683
 6779TIP3   OH220281   4.946   4.956   5.551
 6779TIP3    H120282   4.914   4.985   5.637
 6779TIP3    H220283   5.012   5.021   5.527
 6780TIP3   OH220284   8.256   3.972   5.791
 6780TIP3    H120285   8.343   3.999   5.821
 6780TIP3    H220286   8.230   4.040   5.728
 6781TIP3   OH220287   0.415   6.509   3.321
 6781TIP3    H120288   0.387   6.601   3.315
 6781TIP3    H220289   0.496   6.512   3.372
 6782TIP3   OH220290   3.745   2.737   3.198
 6782TIP3    H120291   3.826   2.787   3.194
 6782TIP3    H220292   3.721   2.722   3.107
 6783TIP3   OH220293   3.567   4.853   0.197
 6783TIP3    H120294   3.601   4.784   0.141
 6783TIP3    H220295   3.477   4.826   0.216
 6784TIP3   OH220296   4.674   4.507   1.380
 6784TIP3    H120297   4.694   4.497   1.474
 6784TIP3    H220298   4.595   4.562   1.378
 6785TIP3   OH220299   5.304   3.824   1.680
 6785TIP3    H120300   5.232   3.768   1.707
 6785TIP3    H220301   5.265   3.888   1.620
 6786TIP3   OH220302   0.513   7.441   2.976
 6786TIP3    H120303   0.540   7.529   3.003
 6786TIP3    H220304   0.470   7.404   3.053
 6787TIP3   OH220305   0.439   7.576   1.042
 6787TIP3    H120306   0.521   7.535   1.068
 6787TIP3    H220307   0.415   7.533   0.960
 6788TIP3   OH220308   6.862   3.970   3.824
 6788TIP3    H120309   6.809   4.050   3.819
 6788TIP3    H220310   6.875   3.956   3.918
 6789TIP3   OH220311   7.150   1.739   6.309
 6789TIP3    H120312   7.107   1.819   6.340
 6789TIP3    H220313   7.240   1.746   6.341
 6790TIP3   OH220314   1.713   3.693   1.553
 6790TIP3    H120315   1.763   3.773   1.570
 6790TIP3    H220316   1.763   3.624   1.596
 6791TIP3   OH220317   4.738   7.462   2.378
 6791TIP3    H120318   4.756   7.392   2.441
 6791TIP3    H220319   4.788   7.438   2.300
 6792TIP3   OH220320   0.613   2.025   1.114
 6792TIP3    H120321   0.673   2.089   1.076
 6792TIP3    H220322   0.541   2.077   1.149
 6793TIP3   OH220323   7.656   1.135   3.689
 6793TIP3    H120324   7.606   1.075   3.634
 6793TIP3    H220325   7.714   1.180   3.628
 6794TIP3   OH220326   3.475   1.987   5.434
 6794TIP3    H120327   3.400   2.036   5.470
 6794TIP3    H220328   3.521   1.954   5.511
 6795TIP3   OH220329   3.676   3.373   5.085
 6795TIP3    H120330   3.628   3.429   5.145
 6795TIP3    H220331   3.732   3.433   5.035
 6796TIP3   OH220332   0.296   5.158   0.026
 6796TIP3    H120333   0.287   5.063   0.037
 6796TIP3    H220334   0.376   5.180   0.074
 6797TIP3   OH220335   2.299   5.256   4.319
 6797TIP3    H120336   2.253   5.212   4.248
 6797TIP3    H220337   2.386   5.274   4.283
 6798TIP3   OH220338   4.237   0.239   1.434
 6798TIP3    H120339   4.145   0.256   1.455
 6798TIP3    H220340   4.251   0.281   1.350
 6799TIP3   OH220341   7.865   6.156   0.181
 6799TIP3    H120342   7.911   6.116   0.255
 6799TIP3    H220343   7.897   6.109   0.104
 6800TIP3   OH220344   5.643   0.470   2.447
 6800TIP3    H120345   5.660   0.397   2.506
 6800TIP3    H220346   5.730   0.506   2.427
 6801TIP3   OH220347   6.976   1.481   5.755
 6801TIP3    H120348   7.067   1.509   5.744
 6801TIP3    H220349   6.968   1.403   5.701
 6802TIP3   OH220350   2.754   1.877   4.367
 6802TIP3    H120351   2.828   1.882   4.428
 6802TIP3    H220352   2.751   1.963   4.325
 6803TIP3   OH220353   7.438   1.192   1.361
 6803TIP3    H120354   7.408   1.193   1.452
 6803TIP3    H220355   7.379   1.251   1.316
 6804TIP3   OH220356   2.978   5.451   5.607
 6804TIP3    H120357   2.903   5.421   5.556
 6804TIP3    H220358   2.947   5.451   5.698
 6805TIP3   OH220359   4.456   1.899   1.509
 6805TIP3    H120360   4.534   1.854   1.479
 6805TIP3    H220361   4.409   1.833   1.561
 6806TIP3   OH220362   6.764   6.028   6.521
 6806TIP3    H120363   6.824   6.035   6.595
 6806TIP3    H220364   6.810   5.970   6.459
 6807TIP3   OH220365   4.370   0.647   4.794
 6807TIP3    H120366   4.329   0.730   4.819
 6807TIP3    H220367   4.355   0.589   4.869
 6808TIP3   OH220368   2.103   7.208   2.899
 6808TIP3    H120369   2.079   7.184   2.810
 6808TIP3    H220370   2.054   7.288   2.917
 6809TIP3   OH220371   1.424   3.735   2.577
 6809TIP3    H120372   1.331   3.718   2.593
 6809TIP3    H220373   1.425   3.816   2.525
 6810TIP3   OH220374   3.277   5.528   4.138
 6810TIP3    H120375   3.238   5.456   4.090
 6810TIP3    H220376   3.236   5.607   4.101
 6811TIP3   OH220377   8.030   5.488   3.929
 6811TIP3    H120378   7.945   5.502   3.972
 6811TIP3    H220379   8.013   5.503   3.836
 6812TIP3   OH220380   2.305   6.080   5.341
 6812TIP3    H120381   2.296   6.033   5.259
 6812TIP3    H220382   2.239   6.149   5.337
 6813TIP3   OH220383   6.980   0.384   6.208
 6813TIP3    H120384   7.012   0.384   6.299
 6813TIP3    H220385   7.050   0.343   6.158
 6814TIP3   OH220386   3.981   6.066   4.694
 6814TIP3    H120387   3.901   6.118   4.692
 6814TIP3    H220388   3.955   5.980   4.663
 6815TIP3   OH220389   0.524   6.626   1.693
 6815TIP3    H120390   0.560   6.653   1.609
 6815TIP3    H220391   0.544   6.699   1.752
 6816TIP3   OH220392   7.090   3.996   2.429
 6816TIP3    H120393   7.053   3.954   2.352
 6816TIP3    H220394   7.086   3.929   2.497
 6817TIP3   OH220395   5.122   3.091   0.934
 6817TIP3    H120396   5.068   3.012   0.924
 6817TIP3    H220397   5.079   3.140   1.005
 6818TIP3   OH220398   3.793   4.565   0.468
 6818TIP3    H120399   3.884   4.593   0.458
 6818TIP3    H220400   3.744   4.646   0.482
 6819TIP3   OH220401   7.120   7.352   2.904
 6819TIP3    H120402   7.134   7.405   2.826
 6819TIP3    H220403   7.027   7.333   2.904
 6820TIP3   OH220404   7.517   5.445   4.311
 6820TIP3    H120405   7.611   5.431   4.324
 6820TIP3    H220406   7.485   5.472   4.397
 6821TIP3   OH220407   2.600   3.349   6.121
 6821TIP3    H120408   2.640   3.428   6.086
 6821TIP3    H220409   2.658   3.322   6.192
 6822TIP3   OH220410   7.958   7.717   0.145
 6822TIP3    H120411   8.044   7.733   0.106
 6822TIP3    H220412   7.896   7.730   0.073
 6823TIP3   OH220413   1.190   7.689   2.968
 6823TIP3    H120414   1.243   7.724   3.039
 6823TIP3    H220415   1.130   7.759   2.945
 6824TIP3   OH220416   3.694   6.357   0.139
 6824TIP3    H120417   3.602   6.340   0.121
 6824TIP3    H220418   3.708   6.324   0.227
 6825TIP3   OH220419   4.849   3.968   3.416
 6825TIP3    H120420   4.860   3.975   3.322
 6825TIP3    H220421   4.754   3.956   3.428
 6826TIP3   OH220422   7.420   4.382   4.838
 6826TIP3    H120423   7.410   4.401   4.744
 6826TIP3    H220424   7.514   4.388   4.854
 6827TIP3   OH220425   1.410   7.047   1.005
 6827TIP3    H120426   1.315   7.057   1.007
 6827TIP3    H220427   1.441   7.090   1.085
 6828TIP3   OH220428   6.931   6.000   6.763
 6828TIP3    H120429   6.865   5.959   6.819
 6828TIP3    H220430   7.005   5.940   6.764
 6829TIP3   OH220431   2.582   1.244   5.361
 6829TIP3    H120432   2.619   1.159   5.337
 6829TIP3    H220433   2.655   1.292   5.400
 6830TIP3   OH220434   7.333   4.337   1.971
 6830TIP3    H120435   7.415   4.378   1.944
 6830TIP3    H220436   7.279   4.409   2.004
 6831TIP3   OH220437   4.552   5.537   6.213
 6831TIP3    H120438   4.562   5.623   6.255
 6831TIP3    H220439   4.640   5.513   6.186
 6832TIP3   OH220440   5.284   2.195   1.980
 6832TIP3    H120441   5.215   2.144   1.937
 6832TIP3    H220442   5.242   2.279   2.000
 6833TIP3   OH220443   3.998   0.317   6.186
 6833TIP3    H120444   3.927   0.369   6.148
 6833TIP3    H220445   3.953   0.244   6.228
 6834TIP3   OH220446   2.719   4.116   1.346
 6834TIP3    H120447   2.771   4.036   1.337
 6834TIP3    H220448   2.784   4.185   1.359
 6835TIP3   OH220449   2.102   7.476   4.588
 6835TIP3    H120450   2.146   7.413   4.530
 6835TIP3    H220451   2.070   7.423   4.661
 6836TIP3   OH220452   1.969   5.296   2.428
 6836TIP3    H120453   1.927   5.211   2.441
 6836TIP3    H220454   1.975   5.305   2.333
 6837TIP3   OH220455   2.349   1.461   4.658
 6837TIP3    H120456   2.318   1.375   4.684
 6837TIP3    H220457   2.442   1.449   4.641
 6838TIP3   OH220458   6.111   2.061   4.561
 6838TIP3    H120459   6.169   2.046   4.487
 6838TIP3    H220460   6.112   2.156   4.574
 6839TIP3   OH220461   6.535   0.938   3.172
 6839TIP3    H120462   6.612   0.891   3.138
 6839TIP3    H220463   6.483   0.957   3.094
 6840TIP3   OH220464   0.299   4.452   3.414
 6840TIP3    H120465   0.300   4.423   3.323
 6840TIP3    H220466   0.228   4.517   3.417
 6841TIP3   OH220467   7.577   5.848   4.782
 6841TIP3    H120468   7.584   5.758   4.813
 6841TIP3    H220469   7.666   5.871   4.754
 6842TIP3   OH220470   0.369   7.473   5.034
 6842TIP3    H120471   0.326   7.398   4.993
 6842TIP3    H220472   0.381   7.536   4.963
 6843TIP3   OH220473   3.863   5.791   6.675
 6843TIP3    H120474   3.834   5.873   6.714
 6843TIP3    H220475   3.899   5.816   6.590
 6844TIP3   OH220476   5.855   1.459   1.667
 6844TIP3    H120477   5.828   1.547   1.691
 6844TIP3    H220478   5.949   1.466   1.651
 6845TIP3   OH220479   4.802   0.493   2.412
 6845TIP3    H120480   4.893   0.516   2.432
 6845TIP3    H220481   4.808   0.433   2.338
 6846TIP3   OH220482   5.056   7.258   4.747
 6846TIP3    H120483   4.972   7.274   4.704
 6846TIP3    H220484   5.076   7.340   4.792
 6847TIP3   OH220485   5.802   5.710   5.863
 6847TIP3    H120486   5.866   5.741   5.927
 6847TIP3    H220487   5.717   5.741   5.896
 6848TIP3   OH220488   6.924   2.659   5.210
 6848TIP3    H120489   6.945   2.684   5.300
 6848TIP3    H220490   7.006   2.670   5.162
 6849TIP3   OH220491   1.127   3.000   0.821
 6849TIP3    H120492   1.163   3.057   0.889
 6849TIP3    H220493   1.043   2.970   0.856
 6850TIP3   OH220494   2.880   7.266   3.368
 6850TIP3    H120495   2.927   7.298   3.445
 6850TIP3    H220496   2.808   7.214   3.404
 6851TIP3   OH220497   3.820   6.502   6.007
 6851TIP3    H120498   3.854   6.420   5.971
 6851TIP3    H220499   3.877   6.569   5.971
 6852TIP3   OH220500   7.414   1.488   0.786
 6852TIP3    H120501   7.369   1.473   0.870
 6852TIP3    H220502   7.397   1.408   0.736
 6853TIP3   OH220503   4.395   7.414   4.067
 6853TIP3    H120504   4.337   7.411   4.143
 6853TIP3    H220505   4.343   7.457   3.999
 6854TIP3   OH220506   1.660   0.613   1.372
 6854TIP3    H120507   1.725   0.683   1.375
 6854TIP3    H220508   1.618   0.615   1.458
 6855TIP3   OH220509   2.293   6.230   0.333
 6855TIP3    H120510   2.336   6.222   0.418
 6855TIP3    H220511   2.363   6.252   0.272
 6856TIP3   OH220512   3.068   5.614   1.593
 6856TIP3    H120513   3.044   5.524   1.569
 6856TIP3    H220514   3.158   5.607   1.625
 6857TIP3   OH220515   3.272   4.292   1.733
 6857TIP3    H120516   3.279   4.358   1.663
 6857TIP3    H220517   3.204   4.326   1.792
 6858TIP3   OH220518   1.763   2.664   1.652
 6858TIP3    H120519   1.844   2.627   1.686
 6858TIP3    H220520   1.730   2.598   1.590
 6859TIP3   OH220521   2.888   7.584   5.844
 6859TIP3    H120522   2.800   7.569   5.811
 6859TIP3    H220523   2.887   7.673   5.878
 6860TIP3   OH220524   5.145   3.778   2.857
 6860TIP3    H120525   5.201   3.702   2.841
 6860TIP3    H220526   5.157   3.799   2.949
 6861TIP3   OH220527   7.460   2.431   6.320
 6861TIP3    H120528   7.482   2.344   6.286
 6861TIP3    H220529   7.542   2.479   6.319
 6862TIP3   OH220530   2.372   3.764   5.875
 6862TIP3    H120531   2.351   3.671   5.884
 6862TIP3    H220532   2.453   3.776   5.925
 6863TIP3   OH220533   8.246   0.471   5.019
 6863TIP3    H120534   8.240   0.451   4.925
 6863TIP3    H220535   8.280   0.390   5.058
 6864TIP3   OH220536   2.870   5.128   3.412
 6864TIP3    H120537   2.824   5.047   3.435
 6864TIP3    H220538   2.871   5.129   3.317
 6865TIP3   OH220539   6.950   2.340   4.795
 6865TIP3    H120540   7.032   2.322   4.751
 6865TIP3    H220541   6.956   2.293   4.878
 6866TIP3   OH220542   5.316   3.871   4.902
 6866TIP3    H120543   5.315   3.818   4.982
 6866TIP3    H220544   5.252   3.829   4.844
 6867TIP3   OH220545   4.055   7.512   5.268
 6867TIP3    H120546   4.069   7.607   5.278
 6867TIP3    H220547   4.091   7.475   5.349
 6868TIP3   OH220548   5.592   3.200   1.350
 6868TIP3    H120549   5.653   3.266   1.382
 6868TIP3    H220550   5.509   3.222   1.391
 6869TIP3   OH220551   8.273   3.967   1.814
 6869TIP3    H120552   8.246   3.879   1.787
 6869TIP3    H220553   8.205   3.994   1.876
 6870TIP3   OH220554   4.593   1.601   4.199
 6870TIP3    H120555   4.625   1.691   4.205
 6870TIP3    H220556   4.578   1.586   4.106
 6871TIP3   OH220557   3.960   1.508   2.945
 6871TIP3    H120558   4.000   1.551   2.869
 6871TIP3    H220559   3.869   1.494   2.918
 6872TIP3   OH220560   6.861   1.803   6.526
 6872TIP3    H120561   6.787   1.749   6.550
 6872TIP3    H220562   6.898   1.832   6.610
 6873TIP3   OH220563   2.716   5.918   0.554
 6873TIP3    H120564   2.798   5.901   0.507
 6873TIP3    H220565   2.726   6.006   0.590
 6874TIP3   OH220566   6.368   0.798   3.560
 6874TIP3    H120567   6.431   0.847   3.506
 6874TIP3    H220568   6.421   0.733   3.605
 6875TIP3   OH220569   3.172   0.452   5.110
 6875TIP3    H120570   3.158   0.502   5.191
 6875TIP3    H220571   3.221   0.512   5.053
 6876TIP3   OH220572   6.104   4.042   1.587
 6876TIP3    H120573   6.065   4.108   1.644
 6876TIP3    H220574   6.135   3.974   1.648
 6877TIP3   OH220575   6.443   2.484   1.952
 6877TIP3    H120576   6.448   2.504   1.858
 6877TIP3    H220577   6.377   2.415   1.958
 6878TIP3   OH220578   5.425   5.575   5.729
 6878TIP3    H120579   5.377   5.594   5.809
 6878TIP3    H220580   5.375   5.619   5.660
 6879TIP3   OH220581   6.629   0.703   5.971
 6879TIP3    H120582   6.686   0.635   6.006
 6879TIP3    H220583   6.570   0.657   5.912
 6880TIP3   OH220584   5.236   5.206   6.256
 6880TIP3    H120585   5.185   5.283   6.278
 6880TIP3    H220586   5.319   5.241   6.223
 6881TIP3   OH220587   6.284   6.980   3.589
 6881TIP3    H120588   6.344   7.042   3.547
 6881TIP3    H220589   6.221   7.035   3.635
 6882TIP3   OH220590   1.090   0.577   2.196
 6882TIP3    H120591   1.157   0.590   2.129
 6882TIP3    H220592   1.089   0.482   2.210
 6883TIP3   OH220593   5.475   2.883   5.776
 6883TIP3    H120594   5.506   2.969   5.803
 6883TIP3    H220595   5.403   2.901   5.716
 6884TIP3   OH220596   7.164   6.396   3.088
 6884TIP3    H120597   7.169   6.361   2.999
 6884TIP3    H220598   7.086   6.451   3.088
 6885TIP3   OH220599   2.211   6.349   6.699
 6885TIP3    H120600   2.253   6.412   6.641
 6885TIP3    H220601   2.204   6.269   6.647
 6886TIP3   OH220602   5.264   3.400   6.396
 6886TIP3    H120603   5.259   3.318   6.347
 6886TIP3    H220604   5.252   3.468   6.330
 6887TIP3   OH220605   7.954   4.143   4.378
 6887TIP3    H120606   7.911   4.201   4.441
 6887TIP3    H220607   7.888   4.129   4.310
 6888TIP3   OH220608   0.063   0.365   5.490
 6888TIP3    H120609   0.040   0.337   5.579
 6888TIP3    H220610   0.022   0.451   5.481
 6889TIP3   OH220611   0.985   2.843   1.041
 6889TIP3    H120612   1.036   2.771   1.003
 6889TIP3    H220613   0.988   2.826   1.135
 6890TIP3   OH220614   1.702   6.533   0.784
 6890TIP3    H120615   1.650   6.509   0.861
 6890TIP3    H220616   1.757   6.605   0.813
 6891TIP3   OH220617   0.144   2.608   4.767
 6891TIP3    H120618   0.108   2.692   4.737
 6891TIP3    H220619   0.236   2.626   4.782
 6892TIP3   OH220620   4.260   6.420   6.373
 6892TIP3    H120621   4.216   6.468   6.444
 6892TIP3    H220622   4.209   6.440   6.295
 6893TIP3   OH220623   5.777   6.853   4.999
 6893TIP3    H120624   5.850   6.849   5.061
 6893TIP3    H220625   5.700   6.833   5.052
 6894TIP3   OH220626   7.004   3.264   1.234
 6894TIP3    H120627   6.968   3.321   1.303
 6894TIP3    H220628   7.005   3.177   1.274
 6895TIP3   OH220629   3.097   4.503   0.852
 6895TIP3    H120630   3.122   4.595   0.847
 6895TIP3    H220631   3.168   4.456   0.806
 6896TIP3   OH220632   4.455   6.306   0.172
 6896TIP3    H120633   4.381   6.278   0.118
 6896TIP3    H220634   4.474   6.395   0.142
 6897TIP3   OH220635   2.569   5.614   4.217
 6897TIP3    H120636   2.520   5.561   4.154
 6897TIP3    H220637   2.660   5.587   4.205
 6898TIP3   OH220638   2.567   1.305   0.161
 6898TIP3    H120639   2.566   1.282   0.068
 6898TIP3    H220640   2.659   1.306   0.185
 6899TIP3   OH220641   7.175   2.395   3.217
 6899TIP3    H120642   7.255   2.347   3.195
 6899TIP3    H220643   7.199   2.449   3.292
 6900TIP3   OH220644   3.712   1.440   2.878
 6900TIP3    H120645   3.648   1.446   2.808
 6900TIP3    H220646   3.661   1.446   2.959
 6901TIP3   OH220647   0.359   0.719   3.966
 6901TIP3    H120648   0.290   0.783   3.949
 6901TIP3    H220649   0.430   0.770   4.005
 6902TIP3   OH220650   2.251   7.011   0.730
 6902TIP3    H120651   2.230   7.068   0.804
 6902TIP3    H220652   2.233   7.064   0.652
 6903TIP3   OH220653   3.772   2.569   1.062
 6903TIP3    H120654   3.823   2.646   1.036
 6903TIP3    H220655   3.758   2.580   1.156
 6904TIP3   OH220656   4.352   0.675   6.184
 6904TIP3    H120657   4.401   0.728   6.121
 6904TIP3    H220658   4.405   0.677   6.263
 6905TIP3   OH220659   0.951   2.207   6.745
 6905TIP3    H120660   0.937   2.289   6.793
 6905TIP3    H220661   0.979   2.234   6.658
 6906TIP3   OH220662   6.335   4.565   0.318
 6906TIP3    H120663   6.412   4.621   0.331
 6906TIP3    H220664   6.319   4.568   0.224
 6907TIP3   OH220665   0.085   4.954   3.751
 6907TIP3    H120666   0.002   4.977   3.708
 6907TIP3    H220667   0.152   4.975   3.686
 6908TIP3   OH220668   6.447   1.813   1.345
 6908TIP3    H120669   6.502   1.735   1.352
 6908TIP3    H220670   6.372   1.794   1.402
 6909TIP3   OH220671   4.964   0.454   1.548
 6909TIP3    H120672   4.989   0.368   1.584
 6909TIP3    H220673   4.888   0.479   1.600
 6910TIP3   OH220674   8.035   6.477   1.679
 6910TIP3    H120675   8.088   6.479   1.758
 6910TIP3    H220676   8.068   6.550   1.626
 6911TIP3   OH220677   4.385   5.746   1.800
 6911TIP3    H120678   4.302   5.722   1.758
 6911TIP3    H220679   4.381   5.841   1.807
 6912TIP3   OH220680   7.876   0.243   5.690
 6912TIP3    H120681   7.917   0.311   5.637
 6912TIP3    H220682   7.928   0.164   5.673
 6913TIP3   OH220683   3.357   4.085   1.119
 6913TIP3    H120684   3.276   4.117   1.078
 6913TIP3    H220685   3.423   4.094   1.051
 6914TIP3   OH220686   1.768   7.715   5.283
 6914TIP3    H120687   1.843   7.759   5.242
 6914TIP3    H220688   1.791   7.709   5.375
 6915TIP3   OH220689   1.902   1.581   0.848
 6915TIP3    H120690   1.985   1.533   0.845
 6915TIP3    H220691   1.895   1.611   0.939
 6916TIP3   OH220692   4.430   7.081   1.906
 6916TIP3    H120693   4.407   7.048   1.820
 6916TIP3    H220694   4.523   7.102   1.901
 6917TIP3   OH220695   7.478   0.185   2.989
 6917TIP3    H120696   7.518   0.101   3.009
 6917TIP3    H220697   7.444   0.174   2.900
 6918TIP3   OH220698   0.381   1.912   0.684
 6918TIP3    H120699   0.439   1.987   0.672
 6918TIP3    H220700   0.335   1.929   0.766
 6919TIP3   OH220701   3.370   7.689   5.648
 6919TIP3    H120702   3.355   7.747   5.723
 6919TIP3    H220703   3.410   7.745   5.582
 6920TIP3   OH220704   2.095   1.899   5.739
 6920TIP3    H120705   2.115   1.928   5.828
 6920TIP3    H220706   2.138   1.963   5.682
 6921TIP3   OH220707   7.821   6.221   4.071
 6921TIP3    H120708   7.815   6.316   4.080
 6921TIP3    H220709   7.809   6.205   3.977
 6922TIP3   OH220710   6.845   2.743   1.361
 6922TIP3    H120711   6.787   2.709   1.429
 6922TIP3    H220712   6.789   2.752   1.284
 6923TIP3   OH220713   2.195   7.418   6.407
 6923TIP3    H120714   2.137   7.348   6.437
 6923TIP3    H220715   2.283   7.379   6.408
 6924TIP3   OH220716   1.858   0.345   2.345
 6924TIP3    H120717   1.949   0.319   2.330
 6924TIP3    H220718   1.847   0.424   2.293
 6925TIP3   OH220719   3.532   1.338   4.417
 6925TIP3    H120720   3.570   1.254   4.391
 6925TIP3    H220721   3.596   1.376   4.477
 6926TIP3   OH220722   4.408   2.934   0.820
 6926TIP3    H120723   4.481   2.872   0.817
 6926TIP3    H220724   4.414   2.973   0.908
 6927TIP3   OH220725   1.865   0.897   6.145
 6927TIP3    H120726   1.773   0.895   6.119
 6927TIP3    H220727   1.865   0.949   6.226
 6928TIP3   OH220728   4.766   2.095   6.611
 6928TIP3    H120729   4.829   2.025   6.595
 6928TIP3    H220730   4.789   2.129   6.698
 6929TIP3   OH220731   0.281   2.483   0.622
 6929TIP3    H120732   0.317   2.411   0.673
 6929TIP3    H220733   0.287   2.453   0.531
 6930TIP3   OH220734   6.453   0.523   5.850
 6930TIP3    H120735   6.367   0.566   5.846
 6930TIP3    H220736   6.443   0.457   5.918
 6931TIP3   OH220737   7.822   5.193   6.133
 6931TIP3    H120738   7.813   5.288   6.129
 6931TIP3    H220739   7.798   5.163   6.045
 6932TIP3   OH220740   5.874   4.119   5.004
 6932TIP3    H120741   5.847   4.202   5.044
 6932TIP3    H220742   5.916   4.071   5.076
 6933TIP3   OH220743   4.255   0.656   0.000
 6933TIP3    H120744   4.216   0.673   0.086
 6933TIP3    H220745   4.215   0.573  -0.028
 6934TIP3   OH220746   5.991   5.043   2.262
 6934TIP3    H120747   6.013   5.106   2.194
 6934TIP3    H220748   5.903   5.067   2.290
 6935TIP3   OH220749   0.589   0.003   0.449
 6935TIP3    H120750   0.619  -0.043   0.528
 6935TIP3    H220751   0.615   0.094   0.464
 6936TIP3   OH220752   8.251   3.225   4.360
 6936TIP3    H120753   8.186   3.168   4.321
 6936TIP3    H220754   8.214   3.249   4.445
 6937TIP3   OH220755   0.450   2.537   5.685
 6937TIP3    H120756   0.465   2.448   5.655
 6937TIP3    H220757   0.370   2.565   5.640
 6938TIP3   OH220758   5.628   0.975   4.634
 6938TIP3    H120759   5.720   0.984   4.610
 6938TIP3    H220760   5.582   1.037   4.577
 6939TIP3   OH220761   1.213   0.067   3.220
 6939TIP3    H120762   1.133   0.015   3.216
 6939TIP3    H220763   1.221   0.107   3.134
 6940TIP3   OH220764   5.356   4.608   6.502
 6940TIP3    H120765   5.434   4.565   6.538
 6940TIP3    H220766   5.309   4.538   6.456
 6941TIP3   OH220767   4.255   2.057   1.908
 6941TIP3    H120768   4.272   1.997   1.981
 6941TIP3    H220769   4.338   2.062   1.861
 6942TIP3   OH220770   4.513   1.558   6.513
 6942TIP3    H120771   4.506   1.624   6.581
 6942TIP3    H220772   4.582   1.590   6.455
 6943TIP3   OH220773   2.540   4.983   4.160
 6943TIP3    H120774   2.600   4.980   4.234
 6943TIP3    H220775   2.491   5.065   4.173
 6944TIP3   OH220776   4.861   5.008   6.654
 6944TIP3    H120777   4.895   4.919   6.642
 6944TIP3    H220778   4.788   4.997   6.715
 6945TIP3   OH220779   2.223   0.540   4.639
 6945TIP3    H120780   2.226   0.537   4.735
 6945TIP3    H220781   2.179   0.622   4.619
 6946TIP3   OH220782   7.140   6.334   5.741
 6946TIP3    H120783   7.124   6.297   5.828
 6946TIP3    H220784   7.231   6.311   5.722
 6947TIP3   OH220785   0.008   3.541   5.289
 6947TIP3    H120786   0.024   3.617   5.232
 6947TIP3    H220787   0.088   3.533   5.341
 6948TIP3   OH220788   2.318   1.653   2.186
 6948TIP3    H120789   2.379   1.698   2.128
 6948TIP3    H220790   2.297   1.717   2.254
 6949TIP3   OH220791   0.370   1.227   3.696
 6949TIP3    H120792   0.449   1.177   3.714
 6949TIP3    H220793   0.360   1.224   3.601
 6950TIP3   OH220794   3.476   4.234   4.780
 6950TIP3    H120795   3.443   4.145   4.786
 6950TIP3    H220796   3.552   4.236   4.837
 6951TIP3   OH220797   8.130   5.437   0.033
 6951TIP3    H120798   8.218   5.405   0.047
 6951TIP3    H220799   8.113   5.422  -0.060
 6952TIP3   OH220800   7.844   0.056   2.832
 6952TIP3    H120801   7.844   0.073   2.926
 6952TIP3    H220802   7.906   0.118   2.796
 6953TIP3   OH220803   5.213   2.074   6.766
 6953TIP3    H120804   5.293   2.041   6.725
 6953TIP3    H220805   5.154   2.092   6.692
 6954TIP3   OH220806   1.500   4.991   5.056
 6954TIP3    H120807   1.468   5.014   5.143
 6954TIP3    H220808   1.592   4.968   5.069
 6955TIP3   OH220809   5.135   6.326   2.431
 6955TIP3    H120810   5.054   6.361   2.394
 6955TIP3    H220811   5.197   6.327   2.357
 6956TIP3   OH220812   6.773   6.380   2.972
 6956TIP3    H120813   6.771   6.300   3.024
 6956TIP3    H220814   6.684   6.415   2.978
 6957TIP3   OH220815   1.465   0.706   1.569
 6957TIP3    H120816   1.431   0.782   1.522
 6957TIP3    H220817   1.388   0.664   1.606
 6958TIP3   OH220818   7.321   5.271   5.349
 6958TIP3    H120819   7.325   5.354   5.302
 6958TIP3    H220820   7.332   5.295   5.441
 6959TIP3   OH220821   6.299   5.708   3.321
 6959TIP3    H120822   6.276   5.620   3.292
 6959TIP3    H220823   6.394   5.707   3.330
 6960TIP3   OH220824   5.156   7.285   3.700
 6960TIP3    H120825   5.084   7.234   3.662
 6960TIP3    H220826   5.113   7.359   3.743
 6961TIP3   OH220827   5.631   4.883   5.595
 6961TIP3    H120828   5.706   4.916   5.546
 6961TIP3    H220829   5.555   4.913   5.546
 6962TIP3   OH220830   5.276   4.148   6.523
 6962TIP3    H120831   5.227   4.140   6.441
 6962TIP3    H220832   5.361   4.183   6.496
 6963TIP3   OH220833   4.398   2.025   5.871
 6963TIP3    H120834   4.452   2.097   5.905
 6963TIP3    H220835   4.409   2.030   5.776
 6964TIP3   OH220836   0.655   5.039   5.114
 6964TIP3    H120837   0.728   4.978   5.117
 6964TIP3    H220838   0.696   5.126   5.120
 6965TIP3   OH220839   4.814   1.647   0.175
 6965TIP3    H120840   4.753   1.576   0.195
 6965TIP3    H220841   4.758   1.720   0.149
 6966TIP3   OH220842   1.493   1.499   4.983
 6966TIP3    H120843   1.522   1.499   5.075
 6966TIP3    H220844   1.399   1.480   4.987
 6967TIP3   OH220845   6.134   3.027   6.210
 6967TIP3    H120846   6.194   3.078   6.154
 6967TIP3    H220847   6.047   3.058   6.185
 6968TIP3   OH220848   0.197   0.752   5.436
 6968TIP3    H120849   0.161   0.721   5.352
 6968TIP3    H220850   0.282   0.790   5.413
 6969TIP3   OH220851   4.396   6.126   6.680
 6969TIP3    H120852   4.379   6.137   6.774
 6969TIP3    H220853   4.453   6.200   6.657
 6970TIP3   OH220854   3.534   1.498   4.678
 6970TIP3    H120855   3.451   1.453   4.694
 6970TIP3    H220856   3.529   1.529   4.588
 6971TIP3   OH220857   0.793   2.880   3.707
 6971TIP3    H120858   0.816   2.792   3.677
 6971TIP3    H220859   0.727   2.866   3.774
 6972TIP3   OH220860   5.103   5.404   4.264
 6972TIP3    H120861   5.067   5.319   4.241
 6972TIP3    H220862   5.075   5.462   4.194
 6973TIP3   OH220863   8.228   3.603   1.011
 6973TIP3    H120864   8.210   3.683   1.060
 6973TIP3    H220865   8.315   3.576   1.040
 6974TIP3   OH220866   2.882   4.527   5.149
 6974TIP3    H120867   2.797   4.520   5.193
 6974TIP3    H220868   2.865   4.495   5.061
 6975TIP3   OH220869   2.887   5.441   5.873
 6975TIP3    H120870   2.860   5.443   5.964
 6975TIP3    H220871   2.826   5.380   5.831
 6976TIP3   OH220872   2.251   2.340   3.053
 6976TIP3    H120873   2.293   2.416   3.012
 6976TIP3    H220874   2.196   2.377   3.121
 6977TIP3   OH220875   4.773   6.177   5.058
 6977TIP3    H120876   4.765   6.137   4.972
 6977TIP3    H220877   4.864   6.163   5.083
 6978TIP3   OH220878   1.962   7.302   3.603
 6978TIP3    H120879   1.961   7.397   3.598
 6978TIP3    H220880   2.039   7.281   3.656
 6979TIP3   OH220881   7.622   3.168   6.640
 6979TIP3    H120882   7.586   3.187   6.727
 6979TIP3    H220883   7.662   3.082   6.649
 6980TIP3   OH220884   2.092   3.920   0.352
 6980TIP3    H120885   2.124   3.947   0.266
 6980TIP3    H220886   2.172   3.904   0.403
 6981TIP3   OH220887   7.514   0.784   2.593
 6981TIP3    H120888   7.600   0.811   2.624
 6981TIP3    H220889   7.492   0.847   2.524
 6982TIP3   OH220890   6.074   6.131   6.172
 6982TIP3    H120891   6.133   6.202   6.194
 6982TIP3    H220892   6.045   6.095   6.256
 6983TIP3   OH220893   0.696   1.913   5.893
 6983TIP3    H120894   0.711   1.936   5.801
 6983TIP3    H220895   0.725   1.822   5.900
 6984TIP3   OH220896   7.046   1.905   5.385
 6984TIP3    H120897   6.976   1.971   5.387
 6984TIP3    H220898   7.008   1.832   5.336
 6985TIP3   OH220899   5.814   4.631   1.764
 6985TIP3    H120900   5.762   4.703   1.727
 6985TIP3    H220901   5.782   4.621   1.853
 6986TIP3   OH220902   8.017   5.210   0.585
 6986TIP3    H120903   8.007   5.305   0.596
 6986TIP3    H220904   7.962   5.172   0.654
 6987TIP3   OH220905   4.315   0.660   1.144
 6987TIP3    H120906   4.288   0.726   1.208
 6987TIP3    H220907   4.403   0.687   1.118
 6988TIP3   OH220908   1.221   4.270   0.275
 6988TIP3    H120909   1.190   4.224   0.353
 6988TIP3    H220910   1.311   4.240   0.264
 6989TIP3   OH220911   3.018   1.381   4.826
 6989TIP3    H120912   2.952   1.435   4.784
 6989TIP3    H220913   2.986   1.291   4.816
 6990TIP3   OH220914   7.319   5.741   1.946
 6990TIP3    H120915   7.332   5.717   2.037
 6990TIP3    H220916   7.225   5.732   1.931
 6991TIP3   OH220917   3.016   3.853   4.484
 6991TIP3    H120918   3.036   3.767   4.449
 6991TIP3    H220919   2.920   3.858   4.482
 6992TIP3   OH220920   2.285   1.375   0.972
 6992TIP3    H120921   2.367   1.421   0.987
 6992TIP3    H220922   2.241   1.426   0.904
 6993TIP3   OH220923   0.075   1.458   2.999
 6993TIP3    H120924   0.142   1.469   3.067
 6993TIP3    H220925  -0.004   1.495   3.037
 6994TIP3   OH220926   8.145   4.931   1.762
 6994TIP3    H120927   8.160   4.983   1.840
 6994TIP3    H220928   8.165   4.991   1.689
 6995TIP3   OH220929   0.989   3.933   5.574
 6995TIP3    H120930   1.069   3.977   5.603
 6995TIP3    H220931   0.995   3.845   5.611
 6996TIP3   OH220932   8.091   1.073   0.801
 6996TIP3    H120933   8.005   1.031   0.802
 6996TIP3    H220934   8.086   1.137   0.871
 6997TIP3   OH220935   0.749   6.928   5.876
 6997TIP3    H120936   0.719   7.019   5.875
 6997TIP3    H220937   0.802   6.920   5.797
 6998TIP3   OH220938   5.510   2.390   0.967
 6998TIP3    H120939   5.567   2.391   0.890
 6998TIP3    H220940   5.565   2.425   1.038
 6999TIP3   OH220941   7.679   6.286   5.553
 6999TIP3    H120942   7.656   6.193   5.561
 6999TIP3    H220943   7.750   6.298   5.615
 7000TIP3   OH220944   1.860   7.633   1.975
 7000TIP3    H120945   1.932   7.611   2.034
 7000TIP3    H220946   1.850   7.557   1.919
 7001TIP3   OH220947   1.883   3.955   1.532
 7001TIP3    H120948   1.871   3.912   1.448
 7001TIP3    H220949   1.977   3.957   1.546
 7002TIP3   OH220950   0.570   0.682   0.928
 7002TIP3    H120951   0.506   0.622   0.965
 7002TIP3    H220952   0.517   0.754   0.891
 7003TIP3   OH220953   3.739   5.884   6.111
 7003TIP3    H120954   3.752   5.798   6.151
 7003TIP3    H220955   3.644   5.897   6.115
 7004TIP3   OH220956   7.585   0.439   0.454
 7004TIP3    H120957   7.494   0.412   0.439
 7004TIP3    H220958   7.625   0.438   0.367
 7005TIP3   OH220959   7.228   3.603   1.094
 7005TIP3    H120960   7.284   3.641   1.161
 7005TIP3    H220961   7.139   3.612   1.129
 7006TIP3   OH220962   3.326   5.402   0.684
 7006TIP3    H120963   3.404   5.421   0.632
 7006TIP3    H220964   3.305   5.485   0.726
 7007TIP3   OH220965   2.375   5.345   2.119
 7007TIP3    H120966   2.378   5.410   2.189
 7007TIP3    H220967   2.416   5.389   2.044
 7008TIP3   OH220968   5.100   4.063   5.194
 7008TIP3    H120969   5.047   4.107   5.128
 7008TIP3    H220970   5.139   3.989   5.148
 7009TIP3   OH220971   8.258   2.765   4.991
 7009TIP3    H120972   8.329   2.779   5.053
 7009TIP3    H220973   8.237   2.852   4.958
 7010TIP3   OH220974   6.667   5.412   5.641
 7010TIP3    H120975   6.655   5.507   5.645
 7010TIP3    H220976   6.676   5.385   5.733
 7011TIP3   OH220977   0.819   1.351   3.567
 7011TIP3    H120978   0.883   1.307   3.623
 7011TIP3    H220979   0.734   1.318   3.599
 7012TIP3   OH220980   1.962   5.117   1.515
 7012TIP3    H120981   1.876   5.117   1.472
 7012TIP3    H220982   2.013   5.182   1.466
 7013TIP3   OH220983   4.267   5.888   3.828
 7013TIP3    H120984   4.188   5.852   3.787
 7013TIP3    H220985   4.337   5.829   3.801
 7014TIP3   OH220986   3.697   2.183   0.073
 7014TIP3    H120987   3.604   2.196   0.093
 7014TIP3    H220988   3.741   2.259   0.110
 7015TIP3   OH220989   0.897   1.211   2.246
 7015TIP3    H120990   0.982   1.197   2.205
 7015TIP3    H220991   0.860   1.124   2.257
 7016TIP3   OH220992   4.301   2.364   0.372
 7016TIP3    H120993   4.348   2.446   0.388
 7016TIP3    H220994   4.361   2.313   0.319
 7017TIP3   OH220995   1.968   5.740   3.699
 7017TIP3    H120996   1.996   5.721   3.788
 7017TIP3    H220997   1.966   5.655   3.655
 7018TIP3   OH220998   7.271   2.070   3.395
 7018TIP3    H120999   7.301   2.064   3.486
 7018TIP3    H221000   7.329   2.135   3.356
 7019TIP3   OH221001   4.944   7.450   5.567
 7019TIP3    H121002   4.976   7.373   5.520
 7019TIP3    H221003   5.014   7.514   5.558
 7020TIP3   OH221004   2.988   7.367   0.235
 7020TIP3    H121005   3.037   7.416   0.168
 7020TIP3    H221006   3.015   7.407   0.318
 7021TIP3   OH221007   6.755   5.214   4.888
 7021TIP3    H121008   6.820   5.166   4.939
 7021TIP3    H221009   6.707   5.147   4.840
 7022TIP3   OH221010   6.811   2.461   2.381
 7022TIP3    H121011   6.766   2.488   2.301
 7022TIP3    H221012   6.797   2.534   2.442
 7023TIP3   OH221013   5.628   6.020   3.668
 7023TIP3    H121014   5.682   6.088   3.708
 7023TIP3    H221015   5.683   5.984   3.598
 7024TIP3   OH221016   7.224   3.846   0.371
 7024TIP3    H121017   7.189   3.907   0.436
 7024TIP3    H221018   7.250   3.769   0.422
 7025TIP3   OH221019   5.841   2.317   4.850
 7025TIP3    H121020   5.862   2.403   4.888
 7025TIP3    H221021   5.890   2.315   4.768
 7026TIP3   OH221022   5.947   2.557   2.290
 7026TIP3    H121023   5.980   2.646   2.280
 7026TIP3    H221024   6.012   2.502   2.247
 7027TIP3   OH221025   0.143   3.606   5.689
 7027TIP3    H121026   0.217   3.557   5.654
 7027TIP3    H221027   0.170   3.630   5.778
 7028TIP3   OH221028   2.261   4.800   1.424
 7028TIP3    H121029   2.210   4.831   1.499
 7028TIP3    H221030   2.206   4.822   1.348
 7029TIP3   OH221031   3.900   2.086   4.296
 7029TIP3    H121032   3.994   2.071   4.308
 7029TIP3    H221033   3.893   2.176   4.265
 7030TIP3   OH221034   0.295   7.355   1.283
 7030TIP3    H121035   0.210   7.398   1.290
 7030TIP3    H221036   0.309   7.344   1.189
 7031TIP3   OH221037   3.867   6.478   4.798
 7031TIP3    H121038   3.813   6.515   4.728
 7031TIP3    H221039   3.841   6.525   4.876
 7032TIP3   OH221040   1.741   6.617   6.098
 7032TIP3    H121041   1.739   6.678   6.025
 7032TIP3    H221042   1.832   6.621   6.130
 7033TIP3   OH221043   3.554   1.926   0.519
 7033TIP3    H121044   3.557   1.859   0.587
 7033TIP3    H221045   3.568   2.008   0.566
 7034TIP3   OH221046   0.434   0.899   0.846
 7034TIP3    H121047   0.452   0.991   0.867
 7034TIP3    H221048   0.360   0.902   0.786
 7035TIP3   OH221049   1.298   1.486   1.644
 7035TIP3    H121050   1.351   1.563   1.665
 7035TIP3    H221051   1.272   1.451   1.729
 7036TIP3   OH221052   2.098   4.255   2.016
 7036TIP3    H121053   2.147   4.325   1.973
 7036TIP3    H221054   2.036   4.300   2.074
 7037TIP3   OH221055   0.772   3.453   0.992
 7037TIP3    H121056   0.776   3.539   1.034
 7037TIP3    H221057   0.777   3.472   0.899
 7038TIP3   OH221058   3.073   7.351   4.825
 7038TIP3    H121059   3.081   7.428   4.881
 7038TIP3    H221060   3.149   7.297   4.849
 7039TIP3   OH221061   6.582   3.292   5.960
 7039TIP3    H121062   6.542   3.317   6.043
 7039TIP3    H221063   6.640   3.219   5.983
 7040TIP3   OH221064   4.015   3.223   2.959
 7040TIP3    H121065   4.065   3.295   2.922
 7040TIP3    H221066   4.054   3.209   3.045
 7041TIP3   OH221067   1.982   1.938   6.141
 7041TIP3    H121068   1.942   2.013   6.186
 7041TIP3    H221069   1.911   1.874   6.134
 7042TIP3   OH221070   2.143   5.141   4.136
 7042TIP3    H121071   2.150   5.048   4.159
 7042TIP3    H221072   2.162   5.144   4.042
 7043TIP3   OH221073   1.814   2.936   4.787
 7043TIP3    H121074   1.734   2.974   4.825
 7043TIP3    H221075   1.800   2.943   4.692
 7044TIP3   OH221076   6.305   3.966   2.118
 7044TIP3    H121077   6.360   4.030   2.073
 7044TIP3    H221078   6.251   4.018   2.177
 7045TIP3   OH221079   3.680   0.417   4.905
 7045TIP3    H121080   3.669   0.477   4.831
 7045TIP3    H221081   3.749   0.456   4.958
 7046TIP3   OH221082   4.205   7.211   2.903
 7046TIP3    H121083   4.161   7.142   2.854
 7046TIP3    H221084   4.297   7.201   2.881
 7047TIP3   OH221085   4.838   3.018   1.841
 7047TIP3    H121086   4.900   3.013   1.913
 7047TIP3    H221087   4.766   3.072   1.875
 7048TIP3   OH221088   3.829   7.213   0.286
 7048TIP3    H121089   3.880   7.288   0.316
 7048TIP3    H221090   3.783   7.245   0.209
 7049TIP3   OH221091   2.788   3.784   3.460
 7049TIP3    H121092   2.875   3.769   3.424
 7049TIP3    H221093   2.781   3.724   3.533
 7050TIP3   OH221094   1.522   5.318   3.998
 7050TIP3    H121095   1.518   5.256   3.925
 7050TIP3    H221096   1.468   5.279   4.066
 7051TIP3   OH221097   1.996   6.917   3.256
 7051TIP3    H121098   2.032   6.831   3.278
 7051TIP3    H221099   2.054   6.979   3.299
 7052TIP3   OH221100   6.076   5.763   0.900
 7052TIP3    H121101   6.118   5.842   0.864
 7052TIP3    H221102   5.983   5.774   0.879
 7053TIP3   OH221103   3.123   0.528   1.855
 7053TIP3    H121104   3.097   0.436   1.850
 7053TIP3    H221105   3.082   0.560   1.935
 7054TIP3   OH221106   0.518   7.090   4.874
 7054TIP3    H121107   0.497   7.044   4.793
 7054TIP3    H221108   0.577   7.160   4.847
 7055TIP3   OH221109   7.996   0.497   6.340
 7055TIP3    H121110   7.951   0.553   6.277
 7055TIP3    H221111   7.993   0.547   6.422
 7056TIP3   OH221112   5.137   3.674   0.706
 7056TIP3    H121113   5.229   3.656   0.722
 7056TIP3    H221114   5.110   3.607   0.642
 7057TIP3   OH221115   3.277   3.209   4.217
 7057TIP3    H121116   3.254   3.221   4.310
 7057TIP3    H221117   3.257   3.117   4.200
 7058TIP3   OH221118   4.111   2.621   1.762
 7058TIP3    H121119   4.193   2.591   1.724
 7058TIP3    H221120   4.045   2.559   1.729
 7059TIP3   OH221121   7.670   5.236   6.378
 7059TIP3    H121122   7.754   5.269   6.412
 7059TIP3    H221123   7.680   5.240   6.283
 7060TIP3   OH221124   5.450   3.039   3.450
 7060TIP3    H121125   5.431   3.072   3.362
 7060TIP3    H221126   5.499   2.958   3.435
 7061TIP3   OH221127   0.322   7.268   6.026
 7061TIP3    H121128   0.251   7.332   6.020
 7061TIP3    H221129   0.397   7.312   5.988
 7062TIP3   OH221130   4.761   2.947   2.542
 7062TIP3    H121131   4.730   2.858   2.554
 7062TIP3    H221132   4.700   2.985   2.478
 7063TIP3   OH221133   4.499   1.865   0.652
 7063TIP3    H121134   4.504   1.772   0.675
 7063TIP3    H221135   4.439   1.869   0.578
 7064TIP3   OH221136   6.251   3.412   2.083
 7064TIP3    H121137   6.183   3.465   2.125
 7064TIP3    H221138   6.274   3.461   2.004
 7065TIP3   OH221139   5.227   6.454   0.449
 7065TIP3    H121140   5.290   6.506   0.400
 7065TIP3    H221141   5.155   6.514   0.468
 7066TIP3   OH221142   7.515   1.342   3.403
 7066TIP3    H121143   7.583   1.360   3.467
 7066TIP3    H221144   7.554   1.279   3.343
 7067TIP3   OH221145   3.328   4.037   4.091
 7067TIP3    H121146   3.422   4.032   4.073
 7067TIP3    H221147   3.310   3.961   4.146
 7068TIP3   OH221148   1.163   7.333   3.143
 7068TIP3    H121149   1.250   7.370   3.126
 7068TIP3    H221150   1.139   7.367   3.229
 7069TIP3   OH221151   0.874   5.958   2.715
 7069TIP3    H121152   0.811   5.917   2.775
 7069TIP3    H221153   0.865   6.052   2.732
 7070TIP3   OH221154   4.020   3.574   0.205
 7070TIP3    H121155   4.010   3.656   0.253
 7070TIP3    H221156   3.994   3.595   0.115
 7071TIP3   OH221157   7.598   4.062   2.227
 7071TIP3    H121158   7.504   4.073   2.211
 7071TIP3    H221159   7.639   4.083   2.143
 7072TIP3   OH221160   7.006   4.584   4.187
 7072TIP3    H121161   6.958   4.588   4.270
 7072TIP3    H221162   7.034   4.492   4.180
 7073TIP3   OH221163   1.806   4.652   5.521
 7073TIP3    H121164   1.885   4.705   5.529
 7073TIP3    H221165   1.811   4.589   5.592
 7074TIP3   OH221166   4.322   0.435   4.982
 7074TIP3    H121167   4.381   0.361   4.996
 7074TIP3    H221168   4.296   0.463   5.069
 7075TIP3   OH221169   3.300   3.234   3.394
 7075TIP3    H121170   3.325   3.268   3.308
 7075TIP3    H221171   3.280   3.311   3.446
 7076TIP3   OH221172   8.121   6.527   6.023
 7076TIP3    H121173   8.157   6.465   6.086
 7076TIP3    H221174   8.066   6.474   5.965
 7077TIP3   OH221175   5.312   0.921   2.891
 7077TIP3    H121176   5.276   0.869   2.963
 7077TIP3    H221177   5.405   0.929   2.910
 7078TIP3   OH221178   1.136   6.534   2.494
 7078TIP3    H121179   1.179   6.538   2.409
 7078TIP3    H221180   1.158   6.618   2.535
 7079TIP3   OH221181   3.774   1.453   2.228
 7079TIP3    H121182   3.788   1.368   2.186
 7079TIP3    H221183   3.822   1.447   2.311
 7080TIP3   OH221184   4.854   4.928   1.502
 7080TIP3    H121185   4.856   4.991   1.574
 7080TIP3    H221186   4.937   4.882   1.507
 7081TIP3   OH221187   1.090   6.755   0.351
 7081TIP3    H121188   1.087   6.664   0.378
 7081TIP3    H221189   1.042   6.756   0.267
 7082TIP3   OH221190   6.468   7.008   4.377
 7082TIP3    H121191   6.558   7.033   4.392
 7082TIP3    H221192   6.444   7.051   4.294
 7083TIP3   OH221193   0.241   7.706   2.014
 7083TIP3    H121194   0.324   7.676   2.051
 7083TIP3    H221195   0.229   7.793   2.052
 7084TIP3   OH221196   5.857   4.398   3.105
 7084TIP3    H121197   5.851   4.331   3.173
 7084TIP3    H221198   5.898   4.473   3.148
 7085TIP3   OH221199   3.900   2.402   4.265
 7085TIP3    H121200   3.978   2.413   4.319
 7085TIP3    H221201   3.934   2.384   4.177
 7086TIP3   OH221202   4.974   3.364   6.166
 7086TIP3    H121203   4.940   3.388   6.252
 7086TIP3    H221204   4.936   3.429   6.106
 7087TIP3   OH221205   0.752   0.671   5.699
 7087TIP3    H121206   0.836   0.714   5.714
 7087TIP3    H221207   0.770   0.607   5.630
 7088TIP3   OH221208   0.415   5.870   2.983
 7088TIP3    H121209   0.478   5.821   3.036
 7088TIP3    H221210   0.400   5.816   2.905
 7089TIP3   OH221211   6.558   4.863   4.490
 7089TIP3    H121212   6.614   4.806   4.542
 7089TIP3    H221213   6.527   4.808   4.419
 7090TIP3   OH221214   0.897   4.564   6.529
 7090TIP3    H121215   0.830   4.520   6.581
 7090TIP3    H221216   0.977   4.516   6.548
 7091TIP3   OH221217   4.065   6.919   3.933
 7091TIP3    H121218   4.109   6.847   3.889
 7091TIP3    H221219   3.973   6.910   3.909
 7092TIP3   OH221220   2.091   1.393   2.163
 7092TIP3    H121221   2.010   1.370   2.211
 7092TIP3    H221222   2.102   1.487   2.179
 7093TIP3   OH221223   6.299   4.077   1.272
 7093TIP3    H121224   6.384   4.069   1.228
 7093TIP3    H221225   6.315   4.043   1.360
 7094TIP3   OH221226   7.177   0.499   2.579
 7094TIP3    H121227   7.273   0.499   2.584
 7094TIP3    H221228   7.157   0.433   2.513
 7095TIP3   OH221229   5.139   3.081   4.524
 7095TIP3    H121230   5.133   3.168   4.486
 7095TIP3    H221231   5.194   3.032   4.463
 7096TIP3   OH221232   6.488   0.529   6.737
 7096TIP3    H121233   6.553   0.584   6.781
 7096TIP3    H221234   6.538   0.478   6.673
 7097TIP3   OH221235   3.712   3.392   4.507
 7097TIP3    H121236   3.770   3.317   4.497
 7097TIP3    H221237   3.745   3.457   4.446
 7098TIP3   OH221238   7.482   7.502   4.918
 7098TIP3    H121239   7.553   7.525   4.858
 7098TIP3    H221240   7.492   7.562   4.992
 7099TIP3   OH221241   2.194   1.027   2.012
 7099TIP3    H121242   2.241   1.043   1.931
 7099TIP3    H221243   2.262   1.002   2.075
 7100TIP3   OH221244   3.444   0.009   2.912
 7100TIP3    H121245   3.431   0.029   3.004
 7100TIP3    H221246   3.357  -0.014   2.879
 7101TIP3   OH221247   2.931   1.110   4.774
 7101TIP3    H121248   2.987   1.112   4.697
 7101TIP3    H221249   2.969   1.041   4.830
 7102TIP3   OH221250   0.572   2.445   1.788
 7102TIP3    H121251   0.576   2.534   1.753
 7102TIP3    H221252   0.505   2.401   1.736
 7103TIP3   OH221253   4.868   1.556   4.686
 7103TIP3    H121254   4.921   1.635   4.697
 7103TIP3    H221255   4.851   1.553   4.592
 7104TIP3   OH221256   0.865   2.560   6.638
 7104TIP3    H121257   0.931   2.619   6.603
 7104TIP3    H221258   0.840   2.598   6.722
 7105TIP3   OH221259   1.693   1.097   2.401
 7105TIP3    H121260   1.690   1.058   2.313
 7105TIP3    H221261   1.607   1.138   2.412
 7106TIP3   OH221262   6.836   3.350   3.214
 7106TIP3    H121263   6.820   3.405   3.138
 7106TIP3    H221264   6.928   3.366   3.236
 7107TIP3   OH221265   6.434   3.417   6.201
 7107TIP3    H121266   6.374   3.488   6.224
 7107TIP3    H221267   6.459   3.379   6.285
 7108TIP3   OH221268   1.826   6.899   4.714
 7108TIP3    H121269   1.813   6.900   4.809
 7108TIP3    H221270   1.916   6.870   4.703
 7109TIP3   OH221271   4.841   7.549   1.681
 7109TIP3    H121272   4.789   7.492   1.624
 7109TIP3    H221273   4.883   7.611   1.621
 7110TIP3   OH221274   2.904   3.928   6.258
 7110TIP3    H121275   2.893   3.833   6.262
 7110TIP3    H221276   2.947   3.951   6.341
 7111TIP3   OH221277   5.941   0.084   3.523
 7111TIP3    H121278   5.859   0.042   3.548
 7111TIP3    H221279   6.009   0.023   3.549
 7112TIP3   OH221280   7.243   6.811   0.461
 7112TIP3    H121281   7.217   6.767   0.542
 7112TIP3    H221282   7.333   6.841   0.479
 7113TIP3   OH221283   5.641   3.024   5.986
 7113TIP3    H121284   5.577   2.952   5.980
 7113TIP3    H221285   5.600   3.088   6.044
 7114TIP3   OH221286   3.214   6.524   3.636
 7114TIP3    H121287   3.168   6.532   3.552
 7114TIP3    H221288   3.214   6.613   3.671
 7115TIP3   OH221289   8.137   4.382   6.011
 7115TIP3    H121290   8.206   4.384   5.944
 7115TIP3    H221291   8.058   4.357   5.963
 7116TIP3   OH221292   6.686   5.217   0.325
 7116TIP3    H121293   6.656   5.144   0.379
 7116TIP3    H221294   6.693   5.180   0.237
 7117TIP3   OH221295   5.497   0.057   1.401
 7117TIP3    H121296   5.529   0.125   1.342
 7117TIP3    H221297   5.406   0.080   1.419
 7118TIP3   OH221298   7.451   0.823   6.401
 7118TIP3    H121299   7.463   0.916   6.380
 7118TIP3    H221300   7.470   0.777   6.319
 7119TIP3   OH221301   0.570   2.637   2.243
 7119TIP3    H121302   0.532   2.601   2.163
 7119TIP3    H221303   0.516   2.601   2.313
 7120TIP3   OH221304   7.689   6.566   0.551
 7120TIP3    H121305   7.760   6.626   0.528
 7120TIP3    H221306   7.723   6.479   0.530
 7121TIP3   OH221307   5.960   0.457   1.589
 7121TIP3    H121308   6.023   0.434   1.521
 7121TIP3    H221309   5.883   0.487   1.541
 7122TIP3   OH221310   4.871   3.400   6.424
 7122TIP3    H121311   4.850   3.484   6.464
 7122TIP3    H221312   4.893   3.343   6.498
 7123TIP3   OH221313   7.595   7.402   0.739
 7123TIP3    H121314   7.630   7.344   0.807
 7123TIP3    H221315   7.638   7.373   0.658
 7124TIP3   OH221316   4.709   2.487   0.336
 7124TIP3    H121317   4.647   2.505   0.265
 7124TIP3    H221318   4.653   2.479   0.414
 7125TIP3   OH221319   4.720   6.680   0.176
 7125TIP3    H121320   4.720   6.736   0.255
 7125TIP3    H221321   4.663   6.726   0.115
 7126TIP3   OH221322   1.145   3.505   1.739
 7126TIP3    H121323   1.140   3.590   1.783
 7126TIP3    H221324   1.156   3.441   1.809
 7127TIP3   OH221325   0.204   7.810   0.651
 7127TIP3    H121326   0.240   7.799   0.739
 7127TIP3    H221327   0.110   7.821   0.665
 7128TIP3   OH221328   7.262   6.830   6.237
 7128TIP3    H121329   7.185   6.880   6.264
 7128TIP3    H221330   7.306   6.886   6.174
 7129TIP3   OH221331   5.309   4.163   1.572
 7129TIP3    H121332   5.333   4.232   1.510
 7129TIP3    H221333   5.305   4.084   1.518
 7130TIP3   OH221334   3.407   3.936   5.947
 7130TIP3    H121335   3.479   3.896   5.995
 7130TIP3    H221336   3.411   4.028   5.970
 7131TIP3   OH221337   1.474   5.338   1.437
 7131TIP3    H121338   1.553   5.325   1.385
 7131TIP3    H221339   1.406   5.354   1.372
 7132TIP3   OH221340   2.462   4.730   0.292
 7132TIP3    H121341   2.475   4.719   0.386
 7132TIP3    H221342   2.502   4.815   0.272
 7133TIP3   OH221343   3.437   0.008   5.122
 7133TIP3    H121344   3.342   0.012   5.127
 7133TIP3    H221345   3.466   0.093   5.155
 7134TIP3   OH221346   3.456   3.798   2.228
 7134TIP3    H121347   3.395   3.832   2.294
 7134TIP3    H221348   3.477   3.873   2.173
 7135TIP3   OH221349   5.742   7.156   6.689
 7135TIP3    H121350   5.739   7.224   6.622
 7135TIP3    H221351   5.654   7.120   6.690
 7136TIP3   OH221352   3.592   5.476   1.238
 7136TIP3    H121353   3.647   5.474   1.316
 7136TIP3    H221354   3.654   5.469   1.165
 7137TIP3   OH221355   1.638   6.517   5.395
 7137TIP3    H121356   1.618   6.572   5.471
 7137TIP3    H221357   1.663   6.579   5.327
 7138TIP3   OH221358   0.124   5.789   4.677
 7138TIP3    H121359   0.170   5.873   4.672
 7138TIP3    H221360   0.045   5.809   4.727
 7139TIP3   OH221361   3.117   2.413   5.075
 7139TIP3    H121362   3.150   2.503   5.077
 7139TIP3    H221363   3.055   2.409   5.148
 7140TIP3   OH221364   2.324   0.550   2.959
 7140TIP3    H121365   2.371   0.591   2.887
 7140TIP3    H221366   2.309   0.621   3.022
 7141TIP3   OH221367   4.059   3.589   5.581
 7141TIP3    H121368   3.992   3.571   5.515
 7141TIP3    H221369   4.089   3.678   5.561
 7142TIP3   OH221370   1.668   7.614   1.310
 7142TIP3    H121371   1.594   7.628   1.369
 7142TIP3    H221372   1.678   7.519   1.305
 7143TIP3   OH221373   1.575   1.077   5.527
 7143TIP3    H121374   1.523   1.087   5.448
 7143TIP3    H221375   1.638   1.008   5.506
 7144TIP3   OH221376   1.085   1.697   0.952
 7144TIP3    H121377   1.066   1.744   1.034
 7144TIP3    H221378   1.000   1.666   0.922
 7145TIP3   OH221379   1.532   2.368   0.348
 7145TIP3    H121380   1.563   2.334   0.432
 7145TIP3    H221381   1.437   2.362   0.354
 7146TIP3   OH221382   0.376   3.766   1.741
 7146TIP3    H121383   0.370   3.722   1.657
 7146TIP3    H221384   0.337   3.852   1.726
 7147TIP3   OH221385   7.307   7.623   2.966
 7147TIP3    H121386   7.299   7.624   3.061
 7147TIP3    H221387   7.349   7.707   2.946
 7148TIP3   OH221388   3.870   4.177   0.170
 7148TIP3    H121389   3.803   4.244   0.175
 7148TIP3    H221390   3.950   4.219   0.201
 7149TIP3   OH221391   0.079   3.931   6.351
 7149TIP3    H121392   0.102   3.968   6.436
 7149TIP3    H221393   0.048   3.843   6.370
 7150TIP3   OH221394   5.741   5.708   2.947
 7150TIP3    H121395   5.651   5.740   2.953
 7150TIP3    H221396   5.774   5.712   3.036
 7151TIP3   OH221397   5.042   7.729   3.926
 7151TIP3    H121398   5.072   7.700   3.840
 7151TIP3    H221399   5.094   7.807   3.945
 7152TIP3   OH221400   2.824   7.499   4.588
 7152TIP3    H121401   2.810   7.408   4.562
 7152TIP3    H221402   2.791   7.505   4.677
 7153TIP3   OH221403   2.139   1.491   0.205
 7153TIP3    H121404   2.164   1.398   0.208
 7153TIP3    H221405   2.044   1.490   0.215
 7154TIP3   OH221406   3.157   3.999   3.846
 7154TIP3    H121407   3.202   4.016   3.929
 7154TIP3    H221408   3.174   4.077   3.793
 7155TIP3   OH221409   2.564   3.538   5.789
 7155TIP3    H121410   2.610   3.543   5.873
 7155TIP3    H221411   2.622   3.580   5.726
 7156TIP3   OH221412   6.516   4.261   2.188
 7156TIP3    H121413   6.453   4.221   2.248
 7156TIP3    H221414   6.600   4.254   2.234
 7157TIP3   OH221415   5.477   7.172   2.907
 7157TIP3    H121416   5.541   7.200   2.842
 7157TIP3    H221417   5.453   7.253   2.953
 7158TIP3   OH221418   2.738   7.291   5.706
 7158TIP3    H121419   2.829   7.301   5.676
 7158TIP3    H221420   2.709   7.381   5.723
 7159TIP3   OH221421   3.423   5.656   4.928
 7159TIP3    H121422   3.430   5.576   4.877
 7159TIP3    H221423   3.335   5.690   4.910
 7160TIP3   OH221424   1.004   1.160   2.538
 7160TIP3    H121425   0.986   1.067   2.552
 7160TIP3    H221426   0.937   1.188   2.475
 7161TIP3   OH221427   6.137   4.510   0.695
 7161TIP3    H121428   6.195   4.586   0.698
 7161TIP3    H221429   6.169   4.452   0.764
 7162TIP3   OH221430   0.802   1.981   4.468
 7162TIP3    H121431   0.784   1.917   4.536
 7162TIP3    H221432   0.724   2.035   4.464
 7163TIP3   OH221433   5.700   5.436   5.256
 7163TIP3    H121434   5.736   5.350   5.234
 7163TIP3    H221435   5.608   5.418   5.278
 7164TIP3   OH221436   0.088   1.555   1.558
 7164TIP3    H121437  -0.004   1.532   1.570
 7164TIP3    H221438   0.131   1.524   1.638
 7165TIP3   OH221439   1.812   2.910   6.764
 7165TIP3    H121440   1.764   2.962   6.828
 7165TIP3    H221441   1.746   2.884   6.699
 7166TIP3   OH221442   5.078   3.380   4.858
 7166TIP3    H121443   5.085   3.303   4.801
 7166TIP3    H221444   5.168   3.407   4.873
 7167TIP3   OH221445   7.749   5.186   4.220
 7167TIP3    H121446   7.756   5.219   4.309
 7167TIP3    H221447   7.826   5.220   4.175
 7168TIP3   OH221448   8.262   1.739   6.645
 7168TIP3    H121449   8.228   1.663   6.598
 7168TIP3    H221450   8.200   1.810   6.624
 7169TIP3   OH221451   8.023   1.642   0.337
 7169TIP3    H121452   7.965   1.578   0.296
 7169TIP3    H221453   8.015   1.720   0.282
 7170TIP3   OH221454   5.718   3.539   5.754
 7170TIP3    H121455   5.802   3.585   5.758
 7170TIP3    H221456   5.737   3.459   5.705
 7171TIP3   OH221457   2.131   1.437   3.051
 7171TIP3    H121458   2.078   1.357   3.056
 7171TIP3    H221459   2.141   1.465   3.142
 7172TIP3   OH221460   4.098   0.038   3.581
 7172TIP3    H121461   4.116  -0.056   3.582
 7172TIP3    H221462   4.110   0.066   3.671
 7173TIP3   OH221463   5.575   7.369   3.925
 7173TIP3    H121464   5.580   7.273   3.928
 7173TIP3    H221465   5.581   7.396   4.016
 7174TIP3   OH221466   2.956   2.706   4.628
 7174TIP3    H121467   2.869   2.745   4.644
 7174TIP3    H221468   2.942   2.612   4.639
 7175TIP3   OH221469   2.433   7.663   3.538
 7175TIP3    H121470   2.511   7.652   3.485
 7175TIP3    H221471   2.465   7.688   3.625
 7176TIP3   OH221472   8.124   5.927   1.952
 7176TIP3    H121473   8.056   5.994   1.948
 7176TIP3    H221474   8.125   5.890   1.864
 7177TIP3   OH221475   7.078   6.492   6.377
 7177TIP3    H121476   7.153   6.500   6.318
 7177TIP3    H221477   7.003   6.516   6.323
 7178TIP3   OH221478   1.082   0.947   6.364
 7178TIP3    H121479   1.036   0.968   6.445
 7178TIP3    H221480   1.061   0.855   6.348
 7179TIP3   OH221481   2.849   6.391   2.239
 7179TIP3    H121482   2.890   6.349   2.164
 7179TIP3    H221483   2.805   6.319   2.286
 7180TIP3   OH221484   2.348   0.380   4.871
 7180TIP3    H121485   2.404   0.458   4.877
 7180TIP3    H221486   2.265   0.408   4.908
 7181TIP3   OH221487   7.165   4.944   2.563
 7181TIP3    H121488   7.207   4.932   2.649
 7181TIP3    H221489   7.174   4.859   2.520
 7182TIP3   OH221490   6.545   5.951   2.023
 7182TIP3    H121491   6.532   5.862   2.053
 7182TIP3    H221492   6.570   6.000   2.102
 7183TIP3   OH221493   1.473   5.629   3.333
 7183TIP3    H121494   1.408   5.597   3.396
 7183TIP3    H221495   1.422   5.654   3.256
 7184TIP3   OH221496   1.888   2.966   1.220
 7184TIP3    H121497   1.944   2.889   1.211
 7184TIP3    H221498   1.917   3.026   1.151
 7185TIP3   OH221499   1.749   0.831   2.481
 7185TIP3    H121500   1.747   0.925   2.462
 7185TIP3    H221501   1.803   0.823   2.560
 7186TIP3   OH221502   0.703   6.231   6.494
 7186TIP3    H121503   0.756   6.308   6.514
 7186TIP3    H221504   0.624   6.242   6.547
 7187TIP3   OH221505   7.892   1.440   4.532
 7187TIP3    H121506   7.921   1.467   4.445
 7187TIP3    H221507   7.958   1.475   4.592
 7188TIP3   OH221508   1.955   0.103   3.960
 7188TIP3    H121509   2.018   0.122   3.890
 7188TIP3    H221510   1.879   0.158   3.940
 7189TIP3   OH221511   3.701   3.680   4.676
 7189TIP3    H121512   3.737   3.598   4.709
 7189TIP3    H221513   3.729   3.746   4.739
 7190TIP3   OH221514   5.159   1.642   2.873
 7190TIP3    H121515   5.188   1.558   2.838
 7190TIP3    H221516   5.227   1.667   2.936
 7191TIP3   OH221517   3.098   4.939   2.303
 7191TIP3    H121518   3.074   4.951   2.211
 7191TIP3    H221519   3.185   4.978   2.310
 7192TIP3   OH221520   3.830   1.740   0.461
 7192TIP3    H121521   3.777   1.770   0.388
 7192TIP3    H221522   3.900   1.689   0.420
 7193TIP3   OH221523   5.927   0.275   0.845
 7193TIP3    H121524   5.906   0.250   0.755
 7193TIP3    H221525   5.842   0.276   0.890
 7194TIP3   OH221526   2.806   7.238   1.239
 7194TIP3    H121527   2.815   7.246   1.334
 7194TIP3    H221528   2.722   7.279   1.220
 7195TIP3   OH221529   6.649   5.738   3.915
 7195TIP3    H121530   6.627   5.684   3.840
 7195TIP3    H221531   6.693   5.678   3.976
 7196TIP3   OH221532   0.510   3.754   5.029
 7196TIP3    H121533   0.529   3.663   5.052
 7196TIP3    H221534   0.554   3.766   4.944
 7197TIP3   OH221535   4.938   2.153   5.935
 7197TIP3    H121536   5.005   2.086   5.944
 7197TIP3    H221537   4.856   2.105   5.921
 7198TIP3   OH221538   0.826   4.857   3.015
 7198TIP3    H121539   0.770   4.934   3.009
 7198TIP3    H221540   0.895   4.882   3.077
 7199TIP3   OH221541   0.790   4.791   1.930
 7199TIP3    H121542   0.742   4.751   1.857
 7199TIP3    H221543   0.721   4.817   1.991
 7200TIP3   OH221544   1.803   4.565   3.772
 7200TIP3    H121545   1.715   4.530   3.784
 7200TIP3    H221546   1.858   4.514   3.832
 7201TIP3   OH221547   0.225   7.531   0.232
 7201TIP3    H121548   0.249   7.439   0.244
 7201TIP3    H221549   0.131   7.529   0.213
 7202TIP3   OH221550   8.005   1.279   0.186
 7202TIP3    H121551   8.022   1.242   0.100
 7202TIP3    H221552   7.931   1.338   0.173
 7203TIP3   OH221553   1.268   7.506   5.898
 7203TIP3    H121554   1.252   7.494   5.992
 7203TIP3    H221555   1.261   7.418   5.861
 7204TIP3   OH221556   1.875   1.887   1.026
 7204TIP3    H121557   1.866   1.970   0.979
 7204TIP3    H221558   1.963   1.889   1.062
 7205TIP3   OH221559   7.072   7.314   1.386
 7205TIP3    H121560   6.992   7.282   1.345
 7205TIP3    H221561   7.076   7.269   1.471
 7206TIP3   OH221562   2.731   1.028   5.268
 7206TIP3    H121563   2.717   1.065   5.181
 7206TIP3    H221564   2.725   0.933   5.254
 7207TIP3   OH221565   6.167   4.779   5.467
 7207TIP3    H121566   6.073   4.775   5.481
 7207TIP3    H221567   6.182   4.868   5.435
 7208TIP3   OH221568   8.284   5.492   6.661
 7208TIP3    H121569   8.379   5.489   6.672
 7208TIP3    H221570   8.269   5.566   6.601
 7209TIP3   OH221571   5.731   0.587   1.495
 7209TIP3    H121572   5.741   0.680   1.517
 7209TIP3    H221573   5.674   0.552   1.563
 7210TIP3   OH221574   1.846   0.030   0.879
 7210TIP3    H121575   1.866   0.123   0.872
 7210TIP3    H221576   1.930  -0.012   0.895
 7211TIP3   OH221577   8.053   0.497   0.987
 7211TIP3    H121578   7.969   0.452   0.978
 7211TIP3    H221579   8.040   0.557   1.061
 7212TIP3   OH221580   1.980   6.957   2.873
 7212TIP3    H121581   1.938   6.890   2.927
 7212TIP3    H221582   2.001   7.028   2.934
 7213TIP3   OH221583   5.272   0.085   5.253
 7213TIP3    H121584   5.270   0.130   5.169
 7213TIP3    H221585   5.251   0.153   5.317
 7214TIP3   OH221586   0.691   5.706   1.968
 7214TIP3    H121587   0.744   5.644   1.919
 7214TIP3    H221588   0.621   5.653   2.007
 7215TIP3   OH221589   0.745   3.655   6.559
 7215TIP3    H121590   0.683   3.649   6.632
 7215TIP3    H221591   0.692   3.685   6.485
 7216TIP3   OH221592   2.341   7.389   1.816
 7216TIP3    H121593   2.355   7.300   1.782
 7216TIP3    H221594   2.348   7.445   1.739
 7217TIP3   OH221595   1.388   3.685   3.265
 7217TIP3    H121596   1.370   3.710   3.356
 7217TIP3    H221597   1.339   3.749   3.213
 7218TIP3   OH221598   0.315   3.240   1.304
 7218TIP3    H121599   0.376   3.183   1.257
 7218TIP3    H221600   0.369   3.312   1.335
 7219TIP3   OH221601   6.507   3.966   5.485
 7219TIP3    H121602   6.579   3.925   5.438
 7219TIP3    H221603   6.545   4.044   5.526
 7220TIP3   OH221604   3.655   7.237   2.386
 7220TIP3    H121605   3.695   7.273   2.465
 7220TIP3    H221606   3.563   7.224   2.411
 7221TIP3   OH221607   5.366   5.868   1.247
 7221TIP3    H121608   5.362   5.964   1.245
 7221TIP3    H221609   5.289   5.840   1.198
 7222TIP3   OH221610   2.705   3.930   3.687
 7222TIP3    H121611   2.737   4.020   3.691
 7222TIP3    H221612   2.738   3.896   3.604
 7223TIP3   OH221613   4.096   4.833   5.267
 7223TIP3    H121614   4.113   4.751   5.313
 7223TIP3    H221615   4.002   4.849   5.279
 7224TIP3   OH221616   8.051   6.193   5.430
 7224TIP3    H121617   8.051   6.284   5.400
 7224TIP3    H221618   8.121   6.189   5.495
 7225TIP3   OH221619   6.828   0.314   5.317
 7225TIP3    H121620   6.786   0.237   5.355
 7225TIP3    H221621   6.921   0.304   5.339
 7226TIP3   OH221622   3.454   7.804   1.085
 7226TIP3    H121623   3.431   7.872   1.149
 7226TIP3    H221624   3.525   7.755   1.126
 7227TIP3   OH221625   8.119   2.512   5.595
 7227TIP3    H121626   8.195   2.472   5.551
 7227TIP3    H221627   8.085   2.442   5.652
 7228TIP3   OH221628   5.902   4.428   3.686
 7228TIP3    H121629   5.909   4.332   3.678
 7228TIP3    H221630   5.810   4.443   3.709
 7229TIP3   OH221631   7.135   1.435   6.614
 7229TIP3    H121632   7.216   1.395   6.647
 7229TIP3    H221633   7.065   1.376   6.642
 7230TIP3   OH221634   2.586   1.963   5.302
 7230TIP3    H121635   2.676   1.995   5.303
 7230TIP3    H221636   2.550   1.996   5.219
 7231TIP3   OH221637   0.903   2.504   2.278
 7231TIP3    H121638   0.974   2.466   2.226
 7231TIP3    H221639   0.823   2.478   2.232
 7232TIP3   OH221640   5.955   6.317   3.220
 7232TIP3    H121641   5.866   6.282   3.221
 7232TIP3    H221642   5.963   6.362   3.136
 7233TIP3   OH221643   7.227   3.875   1.242
 7233TIP3    H121644   7.322   3.882   1.247
 7233TIP3    H221645   7.196   3.966   1.236
 7234TIP3   OH221646   1.911   6.383   1.888
 7234TIP3    H121647   1.855   6.391   1.811
 7234TIP3    H221648   1.998   6.407   1.856
 7235TIP3   OH221649   1.144   3.583   1.016
 7235TIP3    H121650   1.113   3.533   0.940
 7235TIP3    H221651   1.196   3.654   0.978
 7236TIP3   OH221652   3.383   7.216   6.768
 7236TIP3    H121653   3.342   7.162   6.700
 7236TIP3    H221654   3.334   7.196   6.847
 7237TIP3   OH221655   5.766   0.015   4.690
 7237TIP3    H121656   5.689  -0.011   4.740
 7237TIP3    H221657   5.735   0.082   4.630
 7238TIP3   OH221658   1.323   2.778   4.719
 7238TIP3    H121659   1.316   2.819   4.805
 7238TIP3    H221660   1.299   2.686   4.735
 7239TIP3   OH221661   0.343   5.188   1.863
 7239TIP3    H121662   0.381   5.105   1.893
 7239TIP3    H221663   0.260   5.163   1.822
 7240TIP3   OH221664   7.906   7.172   5.475
 7240TIP3    H121665   7.988   7.135   5.506
 7240TIP3    H221666   7.850   7.173   5.553
 7241TIP3   OH221667   1.388   7.362   6.187
 7241TIP3    H121668   1.386   7.276   6.144
 7241TIP3    H221669   1.460   7.356   6.250
 7242TIP3   OH221670   0.778   5.824   1.489
 7242TIP3    H121671   0.854   5.782   1.449
 7242TIP3    H221672   0.704   5.790   1.438
 7243TIP3   OH221673   2.227   5.815   4.545
 7243TIP3    H121674   2.173   5.845   4.619
 7243TIP3    H221675   2.192   5.728   4.524
 7244TIP3   OH221676   7.442   3.890   1.794
 7244TIP3    H121677   7.408   3.945   1.723
 7244TIP3    H221678   7.527   3.859   1.762
 7245TIP3   OH221679   7.095   7.639   3.521
 7245TIP3    H121680   7.144   7.558   3.517
 7245TIP3    H221681   7.063   7.652   3.431
 7246TIP3   OH221682   7.154   5.315   0.305
 7246TIP3    H121683   7.168   5.221   0.314
 7246TIP3    H221684   7.136   5.328   0.212
 7247TIP3   OH221685   0.705   7.257   4.712
 7247TIP3    H121686   0.710   7.222   4.623
 7247TIP3    H221687   0.724   7.351   4.701
 7248TIP3   OH221688   4.625   5.441   5.818
 7248TIP3    H121689   4.542   5.457   5.863
 7248TIP3    H221690   4.666   5.370   5.867
 7249TIP3   OH221691   4.403   2.833   0.479
 7249TIP3    H121692   4.478   2.852   0.535
 7249TIP3    H221693   4.353   2.914   0.476
 7250TIP3   OH221694   5.312   0.938   6.220
 7250TIP3    H121695   5.283   0.849   6.239
 7250TIP3    H221696   5.231   0.986   6.201
 7251TIP3   OH221697   4.897   3.404   5.107
 7251TIP3    H121698   4.902   3.331   5.045
 7251TIP3    H221699   4.929   3.479   5.057
 7252TIP3   OH221700   7.315   5.953   1.414
 7252TIP3    H121701   7.359   6.030   1.377
 7252TIP3    H221702   7.329   5.960   1.509
 7253TIP3   OH221703   5.089   2.080   1.867
 7253TIP3    H121704   5.048   2.153   1.823
 7253TIP3    H221705   5.023   2.011   1.867
 7254TIP3   OH221706   2.587   6.252   0.885
 7254TIP3    H121707   2.569   6.158   0.882
 7254TIP3    H221708   2.590   6.273   0.978
 7255TIP3   OH221709   5.397   2.516   4.317
 7255TIP3    H121710   5.363   2.572   4.248
 7255TIP3    H221711   5.334   2.525   4.389
 7256TIP3   OH221712   8.186   6.810   2.189
 7256TIP3    H121713   8.092   6.826   2.187
 7256TIP3    H221714   8.195   6.721   2.154
 7257TIP3   OH221715   3.509   2.619   6.286
 7257TIP3    H121716   3.587   2.595   6.335
 7257TIP3    H221717   3.506   2.714   6.291
 7258TIP3   OH221718   2.676   7.597   1.275
 7258TIP3    H121719   2.639   7.685   1.270
 7258TIP3    H221720   2.602   7.540   1.296
 7259TIP3   OH221721   0.413   6.282   5.844
 7259TIP3    H121722   0.329   6.239   5.857
 7259TIP3    H221723   0.459   6.227   5.781
 7260TIP3   OH221724   3.194   1.466   3.943
 7260TIP3    H121725   3.102   1.473   3.917
 7260TIP3    H221726   3.199   1.510   4.028
 7261TIP3   OH221727   6.507   3.967   4.051
 7261TIP3    H121728   6.493   4.043   3.994
 7261TIP3    H221729   6.442   3.903   4.021
 7262TIP3   OH221730   7.318   5.883   4.179
 7262TIP3    H121731   7.266   5.940   4.123
 7262TIP3    H221732   7.317   5.926   4.265
 7263TIP3   OH221733   3.475   4.446   4.464
 7263TIP3    H121734   3.428   4.380   4.414
 7263TIP3    H221735   3.406   4.495   4.509
 7264TIP3   OH221736   2.705   3.134   4.868
 7264TIP3    H121737   2.645   3.193   4.914
 7264TIP3    H221738   2.657   3.108   4.789
 7265TIP3   OH221739   5.715   2.372   4.037
 7265TIP3    H121740   5.808   2.361   4.058
 7265TIP3    H221741   5.692   2.292   3.990
 7266TIP3   OH221742   5.688   0.471   4.366
 7266TIP3    H121743   5.755   0.523   4.323
 7266TIP3    H221744   5.681   0.509   4.454
 7267TIP3   OH221745   2.290   5.992   5.097
 7267TIP3    H121746   2.308   6.019   5.007
 7267TIP3    H221747   2.260   5.901   5.090
 7268TIP3   OH221748   4.525   7.795   3.848
 7268TIP3    H121749   4.529   7.721   3.908
 7268TIP3    H221750   4.457   7.852   3.884
 7269TIP3   OH221751   7.323   6.144   4.386
 7269TIP3    H121752   7.355   6.077   4.446
 7269TIP3    H221753   7.394   6.209   4.383
 7270TIP3   OH221754   4.701   0.359   5.550
 7270TIP3    H121755   4.717   0.268   5.525
 7270TIP3    H221756   4.787   0.400   5.549
 7271TIP3   OH221757   3.887   0.877   4.848
 7271TIP3    H121758   3.949   0.950   4.840
 7271TIP3    H221759   3.936   0.810   4.896
 7272TIP3   OH221760   5.945   2.532   2.569
 7272TIP3    H121761   5.970   2.621   2.592
 7272TIP3    H221762   5.947   2.530   2.473
 7273TIP3   OH221763   3.220   6.880   0.050
 7273TIP3    H121764   3.146   6.851   0.104
 7273TIP3    H221765   3.179   6.916  -0.029
 7274TIP3   OH221766   1.421   2.651   4.363
 7274TIP3    H121767   1.365   2.719   4.327
 7274TIP3    H221768   1.509   2.689   4.362
 7275TIP3   OH221769   2.116   0.983   1.390
 7275TIP3    H121770   2.051   1.049   1.415
 7275TIP3    H221771   2.146   0.946   1.473
 7276TIP3   OH221772   0.901   6.150   3.506
 7276TIP3    H121773   0.963   6.089   3.546
 7276TIP3    H221774   0.872   6.205   3.579
 7277TIP3   OH221775   7.523   3.520   0.372
 7277TIP3    H121776   7.576   3.480   0.441
 7277TIP3    H221777   7.488   3.600   0.411
 7278TIP3   OH221778   4.100   0.939   1.096
 7278TIP3    H121779   4.168   0.986   1.048
 7278TIP3    H221780   4.031   0.924   1.031
 7279TIP3   OH221781   3.742   6.508   6.305
 7279TIP3    H121782   3.741   6.510   6.210
 7279TIP3    H221783   3.651   6.524   6.331
 7280TIP3   OH221784   5.761   5.184   2.161
 7280TIP3    H121785   5.824   5.242   2.118
 7280TIP3    H221786   5.725   5.131   2.091
 7281TIP3   OH221787   6.614   5.461   4.819
 7281TIP3    H121788   6.664   5.381   4.834
 7281TIP3    H221789   6.523   5.437   4.840
 7282TIP3   OH221790   7.910   5.251   1.835
 7282TIP3    H121791   7.915   5.191   1.760
 7282TIP3    H221792   7.840   5.216   1.890
 7283TIP3   OH221793   5.054   2.646   2.508
 7283TIP3    H121794   5.125   2.641   2.573
 7283TIP3    H221795   4.996   2.574   2.530
 7284TIP3   OH221796   1.861   5.923   4.732
 7284TIP3    H121797   1.824   5.925   4.821
 7284TIP3    H221798   1.911   5.841   4.729
 7285TIP3   OH221799   6.026   2.456   3.228
 7285TIP3    H121800   6.106   2.435   3.180
 7285TIP3    H221801   5.970   2.380   3.215
 7286TIP3   OH221802   2.513   7.114   2.544
 7286TIP3    H121803   2.450   7.059   2.498
 7286TIP3    H221804   2.524   7.191   2.487
 7287TIP3   OH221805   1.196   6.636   2.888
 7287TIP3    H121806   1.112   6.596   2.864
 7287TIP3    H221807   1.209   6.610   2.980
 7288TIP3   OH221808   7.416   5.514   1.382
 7288TIP3    H121809   7.482   5.557   1.436
 7288TIP3    H221810   7.338   5.568   1.391
 7289TIP3   OH221811   2.179   3.049   5.117
 7289TIP3    H121812   2.231   3.114   5.162
 7289TIP3    H221813   2.229   2.968   5.124
 7290TIP3   OH221814   2.900   5.878   3.973
 7290TIP3    H121815   2.950   5.858   4.052
 7290TIP3    H221816   2.828   5.932   4.005
 7291TIP3   OH221817   3.245   6.292   1.308
 7291TIP3    H121818   3.217   6.336   1.228
 7291TIP3    H221819   3.167   6.293   1.364
 7292TIP3   OH221820   5.669   7.355   4.600
 7292TIP3    H121821   5.622   7.277   4.569
 7292TIP3    H221822   5.618   7.428   4.567
 7293TIP3   OH221823   8.204   3.355   5.491
 7293TIP3    H121824   8.250   3.401   5.420
 7293TIP3    H221825   8.272   3.302   5.532
 7294TIP3   OH221826   6.146   7.189   1.928
 7294TIP3    H121827   6.117   7.122   1.866
 7294TIP3    H221828   6.112   7.161   2.012
 7295TIP3   OH221829   0.919   3.841   1.805
 7295TIP3    H121830   0.849   3.793   1.761
 7295TIP3    H221831   0.882   3.928   1.821
 7296TIP3   OH221832   4.382   0.974   3.772
 7296TIP3    H121833   4.457   1.029   3.751
 7296TIP3    H221834   4.413   0.918   3.843
 7297TIP3   OH221835   0.382   3.820   5.570
 7297TIP3    H121836   0.392   3.747   5.632
 7297TIP3    H221837   0.288   3.820   5.549
 7298TIP3   OH221838   7.557   0.179   4.605
 7298TIP3    H121839   7.507   0.127   4.668
 7298TIP3    H221840   7.559   0.126   4.526
 7299TIP3   OH221841   6.921   5.891   4.843
 7299TIP3    H121842   6.892   5.982   4.850
 7299TIP3    H221843   7.017   5.896   4.844
 7300TIP3   OH221844   3.780   0.999   1.249
 7300TIP3    H121845   3.841   0.926   1.243
 7300TIP3    H221846   3.698   0.959   1.279
 7301TIP3   OH221847   4.871   5.618   4.675
 7301TIP3    H121848   4.870   5.530   4.713
 7301TIP3    H221849   4.900   5.675   4.746
 7302TIP3   OH221850   1.445   4.780   2.977
 7302TIP3    H121851   1.446   4.772   2.881
 7302TIP3    H221852   1.495   4.860   2.994
 7303TIP3   OH221853   2.323   1.454   3.303
 7303TIP3    H121854   2.384   1.493   3.366
 7303TIP3    H221855   2.277   1.386   3.353
 7304TIP3   OH221856   7.987   0.359   4.637
 7304TIP3    H121857   7.965   0.290   4.574
 7304TIP3    H221858   7.902   0.389   4.670
 7305TIP3   OH221859   2.282   4.455   1.905
 7305TIP3    H121860   2.313   4.466   1.815
 7305TIP3    H221861   2.362   4.457   1.958
 7306TIP3   OH221862   5.387   6.352   0.669
 7306TIP3    H121863   5.476   6.373   0.642
 7306TIP3    H221864   5.331   6.395   0.604
 7307TIP3   OH221865   0.989   5.690   3.006
 7307TIP3    H121866   0.935   5.691   2.927
 7307TIP3    H221867   0.929   5.711   3.077
 7308TIP3   OH221868   4.080   3.648   2.767
 7308TIP3    H121869   4.044   3.736   2.778
 7308TIP3    H221870   4.161   3.648   2.818
 7309TIP3   OH221871   1.965   5.571   4.047
 7309TIP3    H121872   1.891   5.579   3.986
 7309TIP3    H221873   1.950   5.488   4.093
 7310TIP3   OH221874   4.313   5.769   4.950
 7310TIP3    H121875   4.223   5.754   4.979
 7310TIP3    H221876   4.309   5.767   4.855
 7311TIP3   OH221877   3.907   4.937   1.116
 7311TIP3    H121878   3.819   4.973   1.111
 7311TIP3    H221879   3.894   4.848   1.149
 7312TIP3   OH221880   2.036   4.435   1.710
 7312TIP3    H121881   2.105   4.468   1.768
 7312TIP3    H221882   2.080   4.424   1.625
 7313TIP3   OH221883   2.844   1.326   1.444
 7313TIP3    H121884   2.818   1.415   1.469
 7313TIP3    H221885   2.909   1.301   1.510
 7314TIP3   OH221886   4.341   7.527   1.033
 7314TIP3    H121887   4.336   7.615   1.071
 7314TIP3    H221888   4.304   7.471   1.101
 7315TIP3   OH221889   0.636   2.455   6.536
 7315TIP3    H121890   0.578   2.530   6.526
 7315TIP3    H221891   0.714   2.491   6.578
 7316TIP3   OH221892   7.407   3.777   3.925
 7316TIP3    H121893   7.391   3.759   4.018
 7316TIP3    H221894   7.499   3.756   3.912
 7317TIP3   OH221895   3.194   5.824   6.070
 7317TIP3    H121896   3.177   5.872   5.990
 7317TIP3    H221897   3.179   5.888   6.140
 7318TIP3   OH221898   5.362   0.979   4.951
 7318TIP3    H121899   5.317   1.020   5.025
 7318TIP3    H221900   5.442   0.943   4.989
 7319TIP3   OH221901   7.766   6.004   1.364
 7319TIP3    H121902   7.762   6.012   1.460
 7319TIP3    H221903   7.846   5.954   1.348
 7320TIP3   OH221904   5.193   6.061   2.497
 7320TIP3    H121905   5.175   6.142   2.450
 7320TIP3    H221906   5.168   5.991   2.436
 7321TIP3   OH221907   6.227   2.218   1.977
 7321TIP3    H121908   6.301   2.166   2.009
 7321TIP3    H221909   6.220   2.193   1.884
 7322TIP3   OH221910   1.152   2.667   1.487
 7322TIP3    H121911   1.109   2.581   1.495
 7322TIP3    H221912   1.137   2.693   1.397
 7323TIP3   OH221913   1.431   1.361   1.024
 7323TIP3    H121914   1.516   1.321   1.039
 7323TIP3    H221915   1.409   1.402   1.108
 7324TIP3   OH221916   6.576   3.916   0.030
 7324TIP3    H121917   6.491   3.879   0.008
 7324TIP3    H221918   6.596   3.977  -0.042
 7325TIP3   OH221919   6.008   2.849   1.633
 7325TIP3    H121920   6.015   2.883   1.544
 7325TIP3    H221921   5.939   2.901   1.674
 7326TIP3   OH221922   5.630   0.860   0.876
 7326TIP3    H121923   5.598   0.773   0.850
 7326TIP3    H221924   5.571   0.888   0.945
 7327TIP3   OH221925   3.824   4.472   5.529
 7327TIP3    H121926   3.847   4.467   5.436
 7327TIP3    H221927   3.859   4.557   5.558
 7328TIP3   OH221928   3.720   2.385   5.099
 7328TIP3    H121929   3.754   2.300   5.073
 7328TIP3    H221930   3.796   2.431   5.134
 7329TIP3   OH221931   3.300   2.997   1.958
 7329TIP3    H121932   3.211   3.031   1.969
 7329TIP3    H221933   3.345   3.064   1.906
 7330TIP3   OH221934   7.574   1.735   0.212
 7330TIP3    H121935   7.619   1.808   0.255
 7330TIP3    H221936   7.558   1.672   0.283
 7331TIP3   OH221937   1.680   1.717   4.961
 7331TIP3    H121938   1.623   1.659   4.910
 7331TIP3    H221939   1.625   1.791   4.985
 7332TIP3   OH221940   1.225   1.981   2.171
 7332TIP3    H121941   1.320   1.990   2.181
 7332TIP3    H221942   1.214   1.894   2.132
 7333TIP3   OH221943   0.184   1.921   4.857
 7333TIP3    H121944   0.231   1.977   4.796
 7333TIP3    H221945   0.243   1.847   4.872
 7334TIP3   OH221946   1.291   3.679   2.328
 7334TIP3    H121947   1.372   3.692   2.277
 7334TIP3    H221948   1.315   3.702   2.418
 7335TIP3   OH221949   7.337   0.643   0.734
 7335TIP3    H121950   7.300   0.704   0.798
 7335TIP3    H221951   7.422   0.619   0.770
 7336TIP3   OH221952   2.505   0.228   1.237
 7336TIP3    H121953   2.573   0.188   1.182
 7336TIP3    H221954   2.539   0.314   1.259
 7337TIP3   OH221955   6.855   4.975   2.183
 7337TIP3    H121956   6.765   4.970   2.150
 7337TIP3    H221957   6.879   4.884   2.200
 7338TIP3   OH221958   2.259   6.113   0.797
 7338TIP3    H121959   2.320   6.044   0.770
 7338TIP3    H221960   2.265   6.114   0.892
 7339TIP3   OH221961   0.850   0.134   1.804
 7339TIP3    H121962   0.857   0.134   1.709
 7339TIP3    H221963   0.895   0.214   1.832
 7340TIP3   OH221964   6.019   1.550   5.264
 7340TIP3    H121965   6.016   1.566   5.170
 7340TIP3    H221966   5.934   1.512   5.284
 7341TIP3   OH221967   4.013   6.981   3.631
 7341TIP3    H121968   3.937   6.949   3.582
 7341TIP3    H221969   3.975   7.022   3.710
 7342TIP3   OH221970   6.440   7.445   3.999
 7342TIP3    H121971   6.358   7.433   3.951
 7342TIP3    H221972   6.506   7.457   3.930
 7343TIP3   OH221973   5.696   2.092   3.949
 7343TIP3    H121974   5.637   2.019   3.968
 7343TIP3    H221975   5.675   2.117   3.859
 7344TIP3   OH221976   1.670   6.778   6.458
 7344TIP3    H121977   1.762   6.803   6.455
 7344TIP3    H221978   1.623   6.860   6.472
 7345TIP3   OH221979   5.000   3.550   4.255
 7345TIP3    H121980   4.948   3.615   4.207
 7345TIP3    H221981   5.087   3.588   4.260
 7346TIP3   OH221982   2.721   1.453   3.338
 7346TIP3    H121983   2.732   1.452   3.433
 7346TIP3    H221984   2.809   1.432   3.305
 7347TIP3   OH221985   6.594   0.473   2.330
 7347TIP3    H121986   6.641   0.548   2.366
 7347TIP3    H221987   6.544   0.438   2.404
 7348TIP3   OH221988   5.852   4.510   2.219
 7348TIP3    H121989   5.828   4.460   2.141
 7348TIP3    H221990   5.863   4.599   2.187
 7349TIP3   OH221991   8.188   5.097   0.169
 7349TIP3    H121992   8.248   5.041   0.218
 7349TIP3    H221993   8.211   5.186   0.196
 7350TIP3   OH221994   3.183   5.046   2.649
 7350TIP3    H121995   3.257   5.029   2.707
 7350TIP3    H221996   3.218   5.105   2.583
 7351TIP3   OH221997   0.603   4.676   3.110
 7351TIP3    H121998   0.663   4.702   3.040
 7351TIP3    H221999   0.617   4.582   3.120
 7352TIP3   OH222000   7.765   1.036   5.682
 7352TIP3    H122001   7.696   0.969   5.679
 7352TIP3    H222002   7.789   1.041   5.774
 7353TIP3   OH222003   1.163   3.907   1.515
 7353TIP3    H122004   1.111   3.830   1.493
 7353TIP3    H222005   1.250   3.872   1.535
 7354TIP3   OH222006   6.307   5.115   0.856
 7354TIP3    H122007   6.360   5.157   0.789
 7354TIP3    H222008   6.303   5.179   0.928
 7355TIP3   OH222009   6.562   2.748   3.421
 7355TIP3    H122010   6.483   2.694   3.423
 7355TIP3    H222011   6.563   2.787   3.334
 7356TIP3   OH222012   1.509   1.188   2.987
 7356TIP3    H122013   1.583   1.212   3.043
 7356TIP3    H222014   1.546   1.184   2.899
 7357TIP3   OH222015   3.335   1.268   0.821
 7357TIP3    H122016   3.369   1.355   0.842
 7357TIP3    H222017   3.305   1.233   0.905
 7358TIP3   OH222018   6.376   1.072   1.031
 7358TIP3    H122019   6.342   0.988   1.001
 7358TIP3    H222020   6.459   1.083   0.984
 7359TIP3   OH222021   2.527   7.021   1.699
 7359TIP3    H122022   2.617   7.053   1.709
 7359TIP3    H222023   2.520   6.948   1.760
 7360TIP3   OH222024   2.495   0.533   4.353
 7360TIP3    H122025   2.456   0.611   4.392
 7360TIP3    H222026   2.477   0.542   4.259
 7361TIP3   OH222027   1.161   4.585   4.091
 7361TIP3    H122028   1.112   4.509   4.123
 7361TIP3    H222029   1.111   4.660   4.123
 7362TIP3   OH222030   0.421   2.504   2.467
 7362TIP3    H122031   0.467   2.430   2.506
 7362TIP3    H222032   0.331   2.496   2.499
 7363TIP3   OH222033   7.118   7.627   1.620
 7363TIP3    H122034   7.103   7.669   1.536
 7363TIP3    H222035   7.211   7.643   1.639
 7364TIP3   OH222036   2.582   6.471   0.251
 7364TIP3    H122037   2.676   6.465   0.231
 7364TIP3    H222038   2.543   6.398   0.203
 7365TIP3   OH222039   1.418   1.156   3.999
 7365TIP3    H122040   1.511   1.134   3.999
 7365TIP3    H222041   1.414   1.245   4.036
 7366TIP3   OH222042   0.952   0.281   5.047
 7366TIP3    H122043   1.045   0.269   5.064
 7366TIP3    H222044   0.929   0.210   4.987
 7367TIP3   OH222045   0.767   5.041   0.716
 7367TIP3    H122046   0.693   5.100   0.736
 7367TIP3    H222047   0.818   5.089   0.650
 7368TIP3   OH222048   6.260   2.533   5.848
 7368TIP3    H122049   6.290   2.442   5.844
 7368TIP3    H222050   6.164   2.526   5.842
 7369TIP3   OH222051   5.130   4.480   1.846
 7369TIP3    H122052   5.064   4.418   1.814
 7369TIP3    H222053   5.103   4.564   1.810
 7370TIP3   OH222054   3.805   3.173   2.512
 7370TIP3    H122055   3.884   3.119   2.514
 7370TIP3    H222056   3.837   3.263   2.506
 7371TIP3   OH222057   8.283   1.873   0.791
 7371TIP3    H122058   8.218   1.916   0.735
 7371TIP3    H222059   8.235   1.851   0.871
 7372TIP3   OH222060   7.782   3.312   3.317
 7372TIP3    H122061   7.839   3.280   3.387
 7372TIP3    H222062   7.828   3.289   3.236
 7373TIP3   OH222063   6.364   3.610   2.564
 7373TIP3    H122064   6.323   3.553   2.500
 7373TIP3    H222065   6.339   3.699   2.537
 7374TIP3   OH222066   3.394   3.317   4.996
 7374TIP3    H122067   3.480   3.358   5.003
 7374TIP3    H222068   3.382   3.270   5.078
 7375TIP3   OH222069   2.199   1.613   4.831
 7375TIP3    H122070   2.158   1.543   4.881
 7375TIP3    H222071   2.259   1.568   4.772
 7376TIP3   OH222072   0.730   0.630   2.399
 7376TIP3    H122073   0.805   0.576   2.427
 7376TIP3    H222074   0.719   0.693   2.470
 7377TIP3   OH222075   8.002   2.779   5.546
 7377TIP3    H122076   7.921   2.766   5.497
 7377TIP3    H222077   8.034   2.690   5.564
 7378TIP3   OH222078   0.484   1.289   6.495
 7378TIP3    H122079   0.454   1.315   6.409
 7378TIP3    H222080   0.424   1.333   6.556
 7379TIP3   OH222081   3.010   4.195   4.690
 7379TIP3    H122082   3.001   4.100   4.677
 7379TIP3    H222083   2.920   4.228   4.693
 7380TIP3   OH222084   0.015   6.240   1.714
 7380TIP3    H122085   0.102   6.201   1.721
 7380TIP3    H222086   0.019   6.293   1.635
 7381TIP3   OH222087   4.375   1.381   0.888
 7381TIP3    H122088   4.440   1.342   0.829
 7381TIP3    H222089   4.424   1.443   0.942
 7382TIP3   OH222090   4.410   4.465   2.539
 7382TIP3    H122091   4.373   4.543   2.499
 7382TIP3    H222092   4.368   4.392   2.494
 7383TIP3   OH222093   3.670   7.115   3.447
 7383TIP3    H122094   3.626   7.118   3.362
 7383TIP3    H222095   3.622   7.177   3.501
 7384TIP3   OH222096   2.510   5.500   1.945
 7384TIP3    H122097   2.581   5.483   1.884
 7384TIP3    H222098   2.468   5.579   1.911
 7385TIP3   OH222099   7.466   1.811   2.167
 7385TIP3    H122100   7.480   1.840   2.077
 7385TIP3    H222101   7.552   1.821   2.209
 7386TIP3   OH222102   7.699   6.025   2.914
 7386TIP3    H122103   7.655   6.106   2.941
 7386TIP3    H222104   7.721   6.040   2.822
 7387TIP3   OH222105   3.129   7.640   0.693
 7387TIP3    H122106   3.100   7.553   0.719
 7387TIP3    H222107   3.164   7.679   0.774
 7388TIP3   OH222108   6.906   3.412   1.025
 7388TIP3    H122109   6.943   3.354   1.093
 7388TIP3    H222110   6.881   3.491   1.073
 7389TIP3   OH222111   2.836   3.915   6.748
 7389TIP3    H122112   2.787   3.839   6.717
 7389TIP3    H222113   2.870   3.889   6.833
 7390TIP3   OH222114   3.562   5.009   6.368
 7390TIP3    H122115   3.572   4.921   6.404
 7390TIP3    H222116   3.509   5.056   6.432
 7391TIP3   OH222117   6.528   7.120   6.175
 7391TIP3    H122118   6.456   7.105   6.114
 7391TIP3    H222119   6.495   7.090   6.260
 7392TIP3   OH222120   2.630   4.445   4.160
 7392TIP3    H122121   2.682   4.409   4.231
 7392TIP3    H222122   2.673   4.528   4.137
 7393TIP3   OH222123   1.034   1.588   1.308
 7393TIP3    H122124   0.995   1.663   1.263
 7393TIP3    H222125   1.014   1.603   1.401
 7394TIP3   OH222126   6.154   0.516   1.806
 7394TIP3    H122127   6.105   0.503   1.888
 7394TIP3    H222128   6.116   0.595   1.768
 7395TIP3   OH222129   4.126   7.344   4.830
 7395TIP3    H122130   4.040   7.320   4.865
 7395TIP3    H222131   4.124   7.314   4.739
 7396TIP3   OH222132   6.614   6.674   2.867
 7396TIP3    H122133   6.682   6.738   2.850
 7396TIP3    H222134   6.532   6.721   2.853
 7397TIP3   OH222135   1.926   4.253   6.410
 7397TIP3    H122136   1.975   4.335   6.418
 7397TIP3    H222137   1.976   4.201   6.348
 7398TIP3   OH222138   1.706   5.125   5.340
 7398TIP3    H122139   1.687   5.209   5.298
 7398TIP3    H222140   1.784   5.142   5.393
 7399TIP3   OH222141   3.025   5.639   0.665
 7399TIP3    H122142   2.996   5.571   0.725
 7399TIP3    H222143   3.051   5.592   0.586
 7400TIP3   OH222144   4.273   5.325   1.939
 7400TIP3    H122145   4.239   5.409   1.972
 7400TIP3    H222146   4.342   5.301   1.999
 7401TIP3   OH222147   1.629   2.388   1.805
 7401TIP3    H122148   1.680   2.445   1.747
 7401TIP3    H222149   1.640   2.300   1.768
 7402TIP3   OH222150   4.975   6.468   4.542
 7402TIP3    H122151   5.035   6.410   4.495
 7402TIP3    H222152   5.026   6.548   4.557
 7403TIP3   OH222153   3.157   0.927   1.928
 7403TIP3    H122154   3.066   0.953   1.927
 7403TIP3    H222155   3.184   0.926   1.836
 7404TIP3   OH222156   1.986   6.637   1.156
 7404TIP3    H122157   2.023   6.565   1.206
 7404TIP3    H222158   1.984   6.606   1.066
 7405TIP3   OH222159   1.776   4.909   5.977
 7405TIP3    H122160   1.736   4.993   5.954
 7405TIP3    H222161   1.862   4.933   6.011
 7406TIP3   OH222162   7.774   2.875   0.698
 7406TIP3    H122163   7.828   2.800   0.722
 7406TIP3    H222164   7.692   2.836   0.666
 7407TIP3   OH222165   3.194   0.526   1.373
 7407TIP3    H122166   3.236   0.442   1.392
 7407TIP3    H222167   3.208   0.540   1.280
 7408TIP3   OH222168   1.058   6.861   3.238
 7408TIP3    H122169   1.030   6.894   3.323
 7408TIP3    H222170   1.021   6.924   3.175
 7409TIP3   OH222171   3.035   5.002   4.919
 7409TIP3    H122172   3.127   4.981   4.934
 7409TIP3    H222173   3.033   5.040   4.831
 7410TIP3   OH222174   4.398   5.500   6.467
 7410TIP3    H122175   4.468   5.479   6.405
 7410TIP3    H222176   4.432   5.575   6.516
 7411TIP3   OH222177   5.194   1.189   2.023
 7411TIP3    H122178   5.150   1.221   2.102
 7411TIP3    H222179   5.127   1.139   1.976
 7412TIP3   OH222180   6.947   2.477   5.807
 7412TIP3    H122181   6.888   2.501   5.879
 7412TIP3    H222182   7.035   2.494   5.842
 7413TIP3   OH222183   0.169   1.603   5.219
 7413TIP3    H122184   0.128   1.532   5.269
 7413TIP3    H222185   0.261   1.600   5.246
 7414TIP3   OH222186   3.641   5.151   5.914
 7414TIP3    H122187   3.637   5.143   6.009
 7414TIP3    H222188   3.564   5.202   5.890
 7415TIP3   OH222189   2.392   6.379   1.143
 7415TIP3    H122190   2.363   6.465   1.111
 7415TIP3    H222191   2.420   6.395   1.233
 7416TIP3   OH222192   5.987   4.872   4.915
 7416TIP3    H122193   5.981   4.935   4.844
 7416TIP3    H222194   5.946   4.792   4.880
 7417TIP3   OH222195   5.471   1.975   2.127
 7417TIP3    H122196   5.377   1.987   2.129
 7417TIP3    H222197   5.504   2.050   2.078
 7418TIP3   OH222198   2.070   0.951   4.721
 7418TIP3    H122199   2.022   0.919   4.797
 7418TIP3    H222200   2.006   1.003   4.672
 7419TIP3   OH222201   0.590   6.148   4.503
 7419TIP3    H122202   0.594   6.052   4.504
 7419TIP3    H222203   0.662   6.174   4.446
 7420TIP3   OH222204   1.233   0.270   5.098
 7420TIP3    H122205   1.277   0.236   5.176
 7420TIP3    H222206   1.283   0.234   5.025
 7421TIP3   OH222207   4.955   5.382   0.136
 7421TIP3    H122208   4.873   5.421   0.104
 7421TIP3    H222209   4.931   5.292   0.159
 7422TIP3   OH222210   3.746   0.873   1.535
 7422TIP3    H122211   3.819   0.934   1.520
 7422TIP3    H222212   3.681   0.897   1.469
 7423TIP3   OH222213   0.246   2.806   4.216
 7423TIP3    H122214   0.334   2.827   4.186
 7423TIP3    H222215   0.246   2.711   4.224
 7424TIP3   OH222216   3.774   3.578   2.943
 7424TIP3    H122217   3.751   3.495   2.900
 7424TIP3    H222218   3.862   3.564   2.978
 7425TIP3   OH222219   2.828   1.872   0.764
 7425TIP3    H122220   2.834   1.968   0.761
 7425TIP3    H222221   2.906   1.843   0.717
 7426TIP3   OH222222   7.651   1.293   4.282
 7426TIP3    H122223   7.638   1.356   4.353
 7426TIP3    H222224   7.588   1.223   4.300
 7427TIP3   OH222225   5.263   2.240   1.659
 7427TIP3    H122226   5.354   2.261   1.682
 7427TIP3    H222227   5.264   2.145   1.646
 7428TIP3   OH222228   0.925   3.557   6.151
 7428TIP3    H122229   0.881   3.482   6.191
 7428TIP3    H222230   1.018   3.539   6.162
 7429TIP3   OH222231   2.939   4.361   4.919
 7429TIP3    H122232   2.941   4.367   4.824
 7429TIP3    H222233   2.990   4.282   4.940
 7430TIP3   OH222234   3.982   5.124   4.553
 7430TIP3    H122235   4.067   5.170   4.553
 7430TIP3    H222236   3.946   5.141   4.640
 7431TIP3   OH222237   6.569   3.495   2.694
 7431TIP3    H122238   6.530   3.482   2.780
 7431TIP3    H222239   6.501   3.541   2.644
 7432TIP3   OH222240   1.398   7.549   4.592
 7432TIP3    H122241   1.303   7.542   4.583
 7432TIP3    H222242   1.412   7.581   4.681
 7433TIP3   OH222243   1.225   2.105   1.290
 7433TIP3    H122244   1.208   2.183   1.343
 7433TIP3    H222245   1.256   2.039   1.352
 7434TIP3   OH222246   3.341   4.566   3.429
 7434TIP3    H122247   3.382   4.508   3.493
 7434TIP3    H222248   3.414   4.604   3.381
 7435TIP3   OH222249   2.278   0.747   3.172
 7435TIP3    H122250   2.309   0.827   3.129
 7435TIP3    H222251   2.316   0.750   3.259
 7436TIP3   OH222252   2.996   1.446   3.199
 7436TIP3    H122253   3.010   1.407   3.113
 7436TIP3    H222254   3.001   1.541   3.184
 7437TIP3   OH222255   2.245   3.552   2.529
 7437TIP3    H122256   2.247   3.523   2.438
 7437TIP3    H222257   2.305   3.626   2.532
 7438TIP3   OH222258   1.221   2.120   2.782
 7438TIP3    H122259   1.270   2.038   2.793
 7438TIP3    H222260   1.130   2.093   2.780
 7439TIP3   OH222261   7.865   0.798   3.418
 7439TIP3    H122262   7.959   0.809   3.428
 7439TIP3    H222263   7.842   0.850   3.342
 7440TIP3   OH222264   5.845   6.889   1.371
 7440TIP3    H122265   5.758   6.924   1.353
 7440TIP3    H222266   5.874   6.854   1.287
 7441TIP3   OH222267   0.558   7.038   3.230
 7441TIP3    H122268   0.467   7.054   3.206
 7441TIP3    H222269   0.599   7.125   3.227
 7442TIP3   OH222270   7.769   6.758   1.286
 7442TIP3    H122271   7.789   6.842   1.244
 7442TIP3    H222272   7.738   6.783   1.373
 7443TIP3   OH222273   7.568   3.967   5.350
 7443TIP3    H122274   7.606   4.036   5.404
 7443TIP3    H222275   7.504   3.925   5.407
 7444TIP3   OH222276   7.142   7.040   0.389
 7444TIP3    H122277   7.228   7.078   0.374
 7444TIP3    H222278   7.159   6.947   0.403
 7445TIP3   OH222279   1.944   0.867   0.425
 7445TIP3    H122280   1.946   0.936   0.358
 7445TIP3    H222281   2.007   0.896   0.490
 7446TIP3   OH222282   4.565   6.563   6.163
 7446TIP3    H122283   4.573   6.498   6.093
 7446TIP3    H222284   4.575   6.513   6.243
 7447TIP3   OH222285   2.546   6.957   0.807
 7447TIP3    H122286   2.617   7.019   0.825
 7447TIP3    H222287   2.467   7.012   0.804
 7448TIP3   OH222288   6.932   5.451   4.898
 7448TIP3    H122289   7.010   5.401   4.921
 7448TIP3    H222290   6.860   5.405   4.942
 7449TIP3   OH222291   6.198   5.158   4.124
 7449TIP3    H122292   6.256   5.084   4.142
 7449TIP3    H222293   6.114   5.118   4.099
 7450TIP3   OH222294   6.566   2.047   2.904
 7450TIP3    H122295   6.583   1.961   2.864
 7450TIP3    H222296   6.498   2.029   2.969
 7451TIP3   OH222297   5.245   2.930   5.647
 7451TIP3    H122298   5.170   2.915   5.589
 7451TIP3    H222299   5.216   2.997   5.708
 7452TIP3   OH222300   6.205   4.005   6.691
 7452TIP3    H122301   6.143   4.077   6.680
 7452TIP3    H222302   6.266   4.035   6.758
 7453TIP3   OH222303   7.843   0.931   3.183
 7453TIP3    H122304   7.929   0.966   3.159
 7453TIP3    H222305   7.790   0.941   3.104
 7454TIP3   OH222306   1.196   3.770   2.907
 7454TIP3    H122307   1.281   3.741   2.873
 7454TIP3    H222308   1.194   3.864   2.890
 7455TIP3   OH222309   6.857   3.583   6.214
 7455TIP3    H122310   6.777   3.631   6.193
 7455TIP3    H222311   6.879   3.534   6.135
 7456TIP3   OH222312   7.012   6.452   0.487
 7456TIP3    H122313   6.932   6.496   0.460
 7456TIP3    H222314   7.047   6.414   0.406
 7457TIP3   OH222315   5.320   1.873   1.365
 7457TIP3    H122316   5.250   1.817   1.332
 7457TIP3    H222317   5.400   1.836   1.328
 7458TIP3   OH222318   0.493   0.890   6.331
 7458TIP3    H122319   0.427   0.854   6.391
 7458TIP3    H222320   0.554   0.936   6.388
 7459TIP3   OH222321   4.605   5.226   4.615
 7459TIP3    H122322   4.615   5.293   4.547
 7459TIP3    H222323   4.541   5.263   4.676
 7460TIP3   OH222324   6.605   2.053   1.336
 7460TIP3    H122325   6.561   1.968   1.341
 7460TIP3    H222326   6.688   2.040   1.381
 7461TIP3   OH222327   4.382   2.797   3.917
 7461TIP3    H122328   4.294   2.815   3.883
 7461TIP3    H222329   4.406   2.713   3.879
 7462TIP3   OH222330   7.495   1.223   1.005
 7462TIP3    H122331   7.451   1.287   1.061
 7462TIP3    H222332   7.541   1.275   0.940
 7463TIP3   OH222333   0.963   6.620   6.060
 7463TIP3    H122334   1.052   6.622   6.026
 7463TIP3    H222335   0.945   6.711   6.085
 7464TIP3   OH222336   6.595   6.263   1.386
 7464TIP3    H122337   6.530   6.241   1.452
 7464TIP3    H222338   6.679   6.257   1.432
 7465TIP3   OH222339   4.469   4.564   1.010
 7465TIP3    H122340   4.438   4.530   1.094
 7465TIP3    H222341   4.562   4.583   1.025
 7466TIP3   OH222342   3.256   5.005   1.611
 7466TIP3    H122343   3.331   5.014   1.670
 7466TIP3    H222344   3.193   5.070   1.644
 7467TIP3   OH222345   8.031   1.298   1.831
 7467TIP3    H122346   8.049   1.205   1.817
 7467TIP3    H222347   7.973   1.300   1.907
 7468TIP3   OH222348   1.512   0.335   5.919
 7468TIP3    H122349   1.565   0.259   5.943
 7468TIP3    H222350   1.422   0.303   5.923
 7469TIP3   OH222351   1.568   1.622   6.524
 7469TIP3    H122352   1.633   1.553   6.536
 7469TIP3    H222353   1.490   1.577   6.493
 7470TIP3   OH222354   5.440   2.696   1.513
 7470TIP3    H122355   5.527   2.677   1.548
 7470TIP3    H222356   5.440   2.657   1.426
 7471TIP3   OH222357   7.070   1.973   6.075
 7471TIP3    H122358   7.020   1.904   6.031
 7471TIP3    H222359   7.093   2.034   6.005
 7472TIP3   OH222360   7.375   4.279   1.500
 7472TIP3    H122361   7.336   4.318   1.578
 7472TIP3    H222362   7.320   4.309   1.428
 7473TIP3   OH222363   2.595   1.560   6.547
 7473TIP3    H122364   2.524   1.617   6.576
 7473TIP3    H222365   2.595   1.568   6.451
 7474TIP3   OH222366   2.458   4.157   4.287
 7474TIP3    H122367   2.514   4.196   4.354
 7474TIP3    H222368   2.440   4.228   4.226
 7475TIP3   OH222369   3.150   3.803   0.290
 7475TIP3    H122370   3.074   3.769   0.243
 7475TIP3    H222371   3.224   3.784   0.233
 7476TIP3   OH222372   0.322   6.967   1.391
 7476TIP3    H122373   0.237   6.999   1.420
 7476TIP3    H222374   0.309   6.873   1.377
 7477TIP3   OH222375   6.203   2.670   4.103
 7477TIP3    H122376   6.260   2.644   4.031
 7477TIP3    H222377   6.163   2.752   4.073
 7478TIP3   OH222378   4.624   2.976   5.063
 7478TIP3    H122379   4.687   3.002   5.131
 7478TIP3    H222380   4.566   2.914   5.106
 7479TIP3   OH222381   3.127   5.723   3.075
 7479TIP3    H122382   3.060   5.705   3.140
 7479TIP3    H222383   3.202   5.670   3.103
 7480TIP3   OH222384   3.109   5.690   1.321
 7480TIP3    H122385   3.069   5.651   1.399
 7480TIP3    H222386   3.142   5.775   1.350
 7481TIP3   OH222387   1.245   6.117   0.362
 7481TIP3    H122388   1.321   6.092   0.310
 7481TIP3    H222389   1.280   6.180   0.425
 7482TIP3   OH222390   6.867   0.541   0.036
 7482TIP3    H122391   6.826   0.597   0.101
 7482TIP3    H222392   6.945   0.589   0.009
 7483TIP3   OH222393   1.061   4.690   1.821
 7483TIP3    H122394   1.027   4.767   1.865
 7483TIP3    H222395   1.032   4.700   1.730
 7484TIP3   OH222396   1.894   2.085   1.400
 7484TIP3    H122397   1.864   2.096   1.490
 7484TIP3    H222398   1.882   1.991   1.383
 7485TIP3   OH222399   6.940   2.232   6.555
 7485TIP3    H122400   6.986   2.218   6.472
 7485TIP3    H222401   7.010   2.239   6.620
 7486TIP3   OH222402   2.537   1.596   1.717
 7486TIP3    H122403   2.533   1.667   1.653
 7486TIP3    H222404   2.446   1.570   1.729
 7487TIP3   OH222405   3.200   7.246   1.404
 7487TIP3    H122406   3.248   7.309   1.458
 7487TIP3    H222407   3.114   7.285   1.391
 7488TIP3   OH222408   7.035   0.579   1.922
 7488TIP3    H122409   7.053   0.670   1.944
 7488TIP3    H222410   6.941   0.569   1.937
 7489TIP3   OH222411   1.531   4.367   4.456
 7489TIP3    H122412   1.485   4.449   4.436
 7489TIP3    H222413   1.530   4.319   4.373
 7490TIP3   OH222414   3.388   4.636   5.690
 7490TIP3    H122415   3.446   4.712   5.691
 7490TIP3    H222416   3.402   4.595   5.775
 7491TIP3   OH222417   6.233   1.487   5.675
 7491TIP3    H122418   6.325   1.501   5.700
 7491TIP3    H222419   6.207   1.407   5.720
 7492TIP3   OH222420   1.610   5.095   3.378
 7492TIP3    H122421   1.531   5.044   3.398
 7492TIP3    H222422   1.581   5.186   3.384
 7493TIP3   OH222423   0.794   5.138   6.269
 7493TIP3    H122424   0.786   5.209   6.333
 7493TIP3    H222425   0.751   5.064   6.311
 7494TIP3   OH222426   4.776   2.049   4.414
 7494TIP3    H122427   4.762   2.099   4.493
 7494TIP3    H222428   4.757   2.110   4.342
 7495TIP3   OH222429   4.434   0.360   6.669
 7495TIP3    H122430   4.438   0.391   6.578
 7495TIP3    H222431   4.501   0.411   6.715
 7496TIP3   OH222432   3.694   7.758   4.487
 7496TIP3    H122433   3.747   7.795   4.557
 7496TIP3    H222434   3.604   7.768   4.516
 7497TIP3   OH222435   2.462   5.932   0.398
 7497TIP3    H122436   2.511   5.948   0.318
 7497TIP3    H222437   2.530   5.925   0.466
 7498TIP3   OH222438   3.500   2.258   6.648
 7498TIP3    H122439   3.518   2.351   6.657
 7498TIP3    H222440   3.543   2.218   6.724
 7499TIP3   OH222441   3.690   3.687   3.334
 7499TIP3    H122442   3.667   3.627   3.405
 7499TIP3    H222443   3.607   3.706   3.291
 7500TIP3   OH222444   2.512   3.697   1.318
 7500TIP3    H122445   2.517   3.774   1.262
 7500TIP3    H222446   2.582   3.709   1.382
 7501TIP3   OH222447   5.195   7.792   1.012
 7501TIP3    H122448   5.238   7.708   1.029
 7501TIP3    H222449   5.199   7.802   0.917
 7502TIP3   OH222450   7.807   4.530   3.622
 7502TIP3    H122451   7.772   4.544   3.710
 7502TIP3    H222452   7.731   4.539   3.564
 7503TIP3   OH222453   2.319   3.331   6.071
 7503TIP3    H122454   2.396   3.386   6.057
 7503TIP3    H222455   2.354   3.247   6.101
 7504TIP3   OH222456   3.311   6.572   4.202
 7504TIP3    H122457   3.345   6.545   4.117
 7504TIP3    H222458   3.327   6.496   4.259
 7505TIP3   OH222459   7.633   5.911   6.345
 7505TIP3    H122460   7.659   6.000   6.321
 7505TIP3    H222461   7.573   5.923   6.419
 7506TIP3   OH222462   0.416   5.527   4.145
 7506TIP3    H122463   0.366   5.594   4.098
 7506TIP3    H222464   0.507   5.555   4.138
 7507TIP3   OH222465   2.041   0.558   3.248
 7507TIP3    H122466   2.097   0.629   3.217
 7507TIP3    H222467   2.102   0.489   3.273
 7508TIP3   OH222468   3.840   6.657   2.138
 7508TIP3    H122469   3.756   6.616   2.153
 7508TIP3    H222470   3.869   6.623   2.053
 7509TIP3   OH222471   6.032   4.770   1.263
 7509TIP3    H122472   6.072   4.685   1.246
 7509TIP3    H222473   5.963   4.752   1.328
 7510TIP3   OH222474   2.191   3.585   6.008
 7510TIP3    H122475   2.184   3.495   6.040
 7510TIP3    H222476   2.225   3.635   6.082
 7511TIP3   OH222477   2.114   3.082   2.577
 7511TIP3    H122478   2.160   3.062   2.496
 7511TIP3    H222479   2.114   3.177   2.583
 7512TIP3   OH222480   8.127   1.502   1.673
 7512TIP3    H122481   8.092   1.440   1.737
 7512TIP3    H222482   8.155   1.577   1.725
 7513TIP3   OH222483   0.124   7.650   1.676
 7513TIP3    H122484   0.088   7.727   1.722
 7513TIP3    H222485   0.087   7.655   1.588
 7514TIP3   OH222486   4.868   1.068   5.303
 7514TIP3    H122487   4.794   1.128   5.313
 7514TIP3    H222488   4.873   1.051   5.209
 7515TIP3   OH222489   1.981   5.614   0.169
 7515TIP3    H122490   1.889   5.590   0.179
 7515TIP3    H222491   1.999   5.600   0.076
 7516TIP3   OH222492   1.140   3.998   0.241
 7516TIP3    H122493   1.083   3.939   0.290
 7516TIP3    H222494   1.080   4.058   0.198
 7517TIP3   OH222495   0.574   2.736   5.821
 7517TIP3    H122496   0.621   2.769   5.744
 7517TIP3    H222497   0.537   2.653   5.792
 7518TIP3   OH222498   2.749   0.763   0.818
 7518TIP3    H122499   2.837   0.800   0.824
 7518TIP3    H222500   2.726   0.769   0.725
 7519TIP3   OH222501   5.093   0.777   6.358
 7519TIP3    H122502   5.113   0.837   6.430
 7519TIP3    H222503   5.005   0.802   6.330
 7520TIP3   OH222504   7.006   3.004   3.661
 7520TIP3    H122505   6.989   2.921   3.705
 7520TIP3    H222506   6.984   2.988   3.569
 7521TIP3   OH222507   2.041   5.167   6.077
 7521TIP3    H122508   2.009   5.223   6.148
 7521TIP3    H222509   2.043   5.079   6.114
 7522TIP3   OH222510   5.459   5.970   0.045
 7522TIP3    H122511   5.524   6.023  -0.001
 7522TIP3    H222512   5.462   6.000   0.135
 7523TIP3   OH222513   3.975   6.392   2.232
 7523TIP3    H122514   4.034   6.454   2.190
 7523TIP3    H222515   4.007   6.306   2.206
 7524TIP3   OH222516   1.779   4.595   2.894
 7524TIP3    H122517   1.813   4.667   2.947
 7524TIP3    H222518   1.713   4.553   2.950
 7525TIP3   OH222519   6.828   0.951   0.387
 7525TIP3    H122520   6.835   1.018   0.454
 7525TIP3    H222521   6.915   0.909   0.385
 7526TIP3   OH222522   7.732   1.879   4.073
 7526TIP3    H122523   7.788   1.804   4.095
 7526TIP3    H222524   7.690   1.902   4.156
 7527TIP3   OH222525   3.757   1.217   3.161
 7527TIP3    H122526   3.797   1.146   3.211
 7527TIP3    H222527   3.792   1.297   3.199
 7528TIP3   OH222528   0.083   4.465   6.194
 7528TIP3    H122529   0.025   4.389   6.198
 7528TIP3    H222530   0.114   4.468   6.104
 7529TIP3   OH222531   2.000   6.983   0.907
 7529TIP3    H122532   2.029   6.962   0.996
 7529TIP3    H222533   2.069   6.946   0.851
 7530TIP3   OH222534   0.911   2.839   1.323
 7530TIP3    H122535   0.899   2.824   1.417
 7530TIP3    H222536   0.897   2.933   1.311
 7531TIP3   OH222537   2.738   2.148   4.273
 7531TIP3    H122538   2.741   2.223   4.213
 7531TIP3    H222539   2.682   2.177   4.345
 7532TIP3   OH222540   0.230   2.039   1.170
 7532TIP3    H122541   0.292   2.110   1.157
 7532TIP3    H222542   0.222   2.032   1.265
 7533TIP3   OH222543   0.575   1.358   4.242
 7533TIP3    H122544   0.541   1.275   4.209
 7533TIP3    H222545   0.532   1.371   4.326
 7534TIP3   OH222546   2.982   7.736   1.412
 7534TIP3    H122547   2.892   7.765   1.399
 7534TIP3    H222548   3.036   7.812   1.391
 7535TIP3   OH222549   1.119   5.958   1.288
 7535TIP3    H122550   1.101   6.016   1.362
 7535TIP3    H222551   1.172   6.012   1.228
 7536TIP3   OH222552   0.011   3.717   3.682
 7536TIP3    H122553   0.020   3.809   3.656
 7536TIP3    H222554  -0.079   3.710   3.714
 7537TIP3   OH222555   6.801   2.109   2.129
 7537TIP3    H122556   6.817   2.138   2.039
 7537TIP3    H222557   6.888   2.099   2.167
 7538TIP3   OH222558   7.576   0.381   4.983
 7538TIP3    H122559   7.564   0.333   5.064
 7538TIP3    H222560   7.665   0.414   4.988
 7539TIP3   OH222561   3.305   1.687   5.562
 7539TIP3    H122562   3.232   1.691   5.500
 7539TIP3    H222563   3.272   1.633   5.634
 7540TIP3   OH222564   7.099   1.109   2.845
 7540TIP3    H122565   7.015   1.134   2.805
 7540TIP3    H222566   7.110   1.017   2.823
 7541TIP3   OH222567   2.607   0.683   1.672
 7541TIP3    H122568   2.649   0.729   1.599
 7541TIP3    H222569   2.534   0.740   1.697
 7542TIP3   OH222570   7.118   5.450   1.874
 7542TIP3    H122571   7.073   5.441   1.789
 7542TIP3    H222572   7.069   5.519   1.919
 7543TIP3   OH222573   8.158   6.160   5.131
 7543TIP3    H122574   8.097   6.170   5.058
 7543TIP3    H222575   8.145   6.238   5.184
 7544TIP3   OH222576   4.891   2.203   2.788
 7544TIP3    H122577   4.806   2.196   2.745
 7544TIP3    H222578   4.954   2.194   2.717
 7545TIP3   OH222579   3.257   7.441   3.427
 7545TIP3    H122580   3.214   7.491   3.496
 7545TIP3    H222581   3.308   7.507   3.378
 7546TIP3   OH222582   6.637   2.181   4.247
 7546TIP3    H122583   6.718   2.136   4.270
 7546TIP3    H222584   6.605   2.135   4.170
 7547TIP3   OH222585   2.597  -0.005   1.512
 7547TIP3    H122586   2.518   0.031   1.553
 7547TIP3    H222587   2.643   0.071   1.477
 7548TIP3   OH222588   3.458   1.171   0.206
 7548TIP3    H122589   3.383   1.208   0.252
 7548TIP3    H222590   3.525   1.239   0.210
 7549TIP3   OH222591   2.916   5.361   3.816
 7549TIP3    H122592   2.835   5.310   3.822
 7549TIP3    H222593   2.942   5.355   3.724
 7550TIP3   OH222594   4.233   4.039   3.388
 7550TIP3    H122595   4.300   3.971   3.391
 7550TIP3    H222596   4.202   4.038   3.297
 7551TIP3   OH222597   1.313   2.470   6.257
 7551TIP3    H122598   1.288   2.546   6.310
 7551TIP3    H222599   1.340   2.507   6.173
 7552TIP3   OH222600   4.042   5.670   1.433
 7552TIP3    H122601   4.105   5.653   1.364
 7552TIP3    H222602   3.958   5.644   1.396
 7553TIP3   OH222603   2.943   3.879   1.535
 7553TIP3    H122604   2.974   3.963   1.568
 7553TIP3    H222605   3.023   3.826   1.528
 7554TIP3   OH222606   0.419   2.854   5.560
 7554TIP3    H122607   0.389   2.784   5.503
 7554TIP3    H222608   0.490   2.816   5.612
 7555TIP3   OH222609   3.651   1.810   0.273
 7555TIP3    H122610   3.579   1.748   0.260
 7555TIP3    H222611   3.624   1.864   0.346
 7556TIP3   OH222612   5.671   4.787   1.310
 7556TIP3    H122613   5.747   4.766   1.364
 7556TIP3    H222614   5.698   4.764   1.221
 7557TIP3   OH222615   0.875   2.326   4.407
 7557TIP3    H122616   0.867   2.302   4.500
 7557TIP3    H222617   0.800   2.284   4.365
 7558TIP3   OH222618   4.636   2.925   3.072
 7558TIP3    H122619   4.608   2.883   3.153
 7558TIP3    H222620   4.732   2.928   3.079
 7559TIP3   OH222621   1.196   5.302   0.181
 7559TIP3    H122622   1.160   5.308   0.093
 7559TIP3    H222623   1.266   5.238   0.175
 7560TIP3   OH222624   3.378   3.866   1.273
 7560TIP3    H122625   3.371   3.945   1.220
 7560TIP3    H222626   3.443   3.887   1.340
 7561TIP3   OH222627   4.470   5.131   3.250
 7561TIP3    H122628   4.414   5.209   3.256
 7561TIP3    H222629   4.556   5.162   3.277
 7562TIP3   OH222630   3.251   4.930   5.130
 7562TIP3    H122631   3.259   5.025   5.127
 7562TIP3    H222632   3.306   4.905   5.205
 7563TIP3   OH222633   5.056   7.392   2.243
 7563TIP3    H122634   5.044   7.318   2.304
 7563TIP3    H222635   5.075   7.350   2.159
 7564TIP3   OH222636   4.540   7.777   2.216
 7564TIP3    H122637   4.490   7.735   2.146
 7564TIP3    H222638   4.518   7.727   2.295
 7565TIP3   OH222639   2.583   7.158   3.898
 7565TIP3    H122640   2.504   7.105   3.895
 7565TIP3    H222641   2.563   7.234   3.844
 7566TIP3   OH222642   5.432   4.903   5.401
 7566TIP3    H122643   5.477   4.901   5.316
 7566TIP3    H222644   5.340   4.889   5.379
 7567TIP3   OH222645   3.662   4.266   4.995
 7567TIP3    H122646   3.648   4.205   5.067
 7567TIP3    H222647   3.736   4.230   4.947
 7568TIP3   OH222648   1.134   1.238   4.328
 7568TIP3    H122649   1.171   1.164   4.376
 7568TIP3    H222650   1.126   1.307   4.394
 7569TIP3   OH222651   2.362   0.310   6.019
 7569TIP3    H122652   2.350   0.220   6.051
 7569TIP3    H222653   2.383   0.360   6.097
 7570TIP3   OH222654   2.850   5.812   4.438
 7570TIP3    H122655   2.817   5.814   4.348
 7570TIP3    H222656   2.941   5.784   4.430
 7571TIP3   OH222657   0.253   2.951   1.221
 7571TIP3    H122658   0.194   3.023   1.247
 7571TIP3    H222659   0.196   2.890   1.174
 7572TIP3   OH222660   6.929   0.817   2.646
 7572TIP3    H122661   6.857   0.842   2.588
 7572TIP3    H222662   7.008   0.830   2.594
 7573TIP3   OH222663   5.249   4.550   3.251
 7573TIP3    H122664   5.211   4.621   3.198
 7573TIP3    H222665   5.209   4.560   3.337
 7574TIP3   OH222666   3.099   0.762   2.442
 7574TIP3    H122667   3.171   0.699   2.433
 7574TIP3    H222668   3.085   0.794   2.352
 7575TIP3   OH222669   6.455   5.730   0.191
 7575TIP3    H122670   6.544   5.717   0.224
 7575TIP3    H222671   6.398   5.697   0.261
 7576TIP3   OH222672   5.963   5.283   3.697
 7576TIP3    H122673   6.054   5.259   3.677
 7576TIP3    H222674   5.957   5.376   3.673
 7577TIP3   OH222675   7.892   0.190   4.871
 7577TIP3    H122676   7.892   0.189   4.966
 7577TIP3    H222677   7.818   0.246   4.847
 7578TIP3   OH222678   7.717   7.664   4.199
 7578TIP3    H122679   7.691   7.746   4.240
 7578TIP3    H222680   7.803   7.682   4.161
 7579TIP3   OH222681   6.639   1.913   0.436
 7579TIP3    H122682   6.583   1.913   0.513
 7579TIP3    H222683   6.678   1.825   0.434
 7580TIP3   OH222684   6.830   0.727   1.010
 7580TIP3    H122685   6.797   0.648   1.054
 7580TIP3    H222686   6.786   0.727   0.925
 7581TIP3   OH222687   4.027   4.370   2.204
 7581TIP3    H122688   4.077   4.299   2.244
 7581TIP3    H222689   3.979   4.409   2.277
 7582TIP3   OH222690   3.151   3.826   4.708
 7582TIP3    H122691   3.233   3.777   4.713
 7582TIP3    H222692   3.120   3.814   4.618
 7583TIP3   OH222693   7.621   4.195   3.091
 7583TIP3    H122694   7.532   4.209   3.121
 7583TIP3    H222695   7.676   4.225   3.163
 7584TIP3   OH222696   1.704   7.257   0.364
 7584TIP3    H122697   1.723   7.289   0.276
 7584TIP3    H222698   1.707   7.334   0.420
 7585TIP3   OH222699   7.989   7.390   5.321
 7585TIP3    H122700   7.941   7.320   5.366
 7585TIP3    H222701   8.081   7.370   5.337
 7586TIP3   OH222702   7.620   2.336   2.118
 7586TIP3    H122703   7.573   2.292   2.190
 7586TIP3    H222704   7.685   2.390   2.162
 7587TIP3   OH222705   6.473   7.079   3.403
 7587TIP3    H122706   6.499   7.161   3.362
 7587TIP3    H222707   6.467   7.017   3.330
 7588TIP3   OH222708   6.018   0.540   6.034
 7588TIP3    H122709   5.975   0.492   6.105
 7588TIP3    H222710   5.946   0.584   5.988
 7589TIP3   OH222711   6.002   7.032   0.724
 7589TIP3    H122712   6.089   7.014   0.758
 7589TIP3    H222713   5.955   7.072   0.798
 7590TIP3   OH222714   0.479   5.123   2.618
 7590TIP3    H122715   0.392   5.144   2.583
 7590TIP3    H222716   0.533   5.199   2.594
 7591TIP3   OH222717   2.019   2.542   3.867
 7591TIP3    H122718   2.032   2.448   3.882
 7591TIP3    H222719   1.929   2.549   3.836
 7592TIP3   OH222720   5.575   3.762   4.589
 7592TIP3    H122721   5.523   3.838   4.614
 7592TIP3    H222722   5.643   3.757   4.656
 7593TIP3   OH222723   0.289   5.017   4.104
 7593TIP3    H122724   0.282   5.019   4.009
 7593TIP3    H222725   0.344   5.092   4.126
 7594TIP3   OH222726   2.037   3.209   0.699
 7594TIP3    H122727   2.014   3.250   0.782
 7594TIP3    H222728   1.953   3.178   0.664
 7595TIP3   OH222729   0.330   6.009   3.876
 7595TIP3    H122730   0.303   6.075   3.940
 7595TIP3    H222731   0.294   6.041   3.793
 7596TIP3   OH222732   0.065   4.890   5.030
 7596TIP3    H122733   0.156   4.877   5.057
 7596TIP3    H222734   0.014   4.879   5.111
 7597TIP3   OH222735   4.270   5.172   1.705
 7597TIP3    H122736   4.261   5.211   1.792
 7597TIP3    H222737   4.365   5.162   1.694
 7598TIP3   OH222738   1.001   0.534   1.004
 7598TIP3    H122739   0.930   0.516   1.066
 7598TIP3    H222740   1.080   0.532   1.057
 7599TIP3   OH222741   2.526   7.194   3.076
 7599TIP3    H122742   2.594   7.137   3.041
 7599TIP3    H222743   2.567   7.281   3.081
 7600TIP3   OH222744   4.001   5.962   2.536
 7600TIP3    H122745   3.959   5.896   2.481
 7600TIP3    H222746   4.090   5.931   2.548
 7601TIP3   OH222747   5.311   1.752   5.194
 7601TIP3    H122748   5.306   1.846   5.178
 7601TIP3    H222749   5.358   1.717   5.118
 7602TIP3   OH222750   4.534   7.089   5.775
 7602TIP3    H122751   4.498   7.000   5.771
 7602TIP3    H222752   4.570   7.097   5.864
 7603TIP3   OH222753   3.322   4.559   2.225
 7603TIP3    H122754   3.392   4.616   2.256
 7603TIP3    H222755   3.291   4.602   2.145
 7604TIP3   OH222756   6.964   6.970   5.257
 7604TIP3    H122757   6.955   6.987   5.351
 7604TIP3    H222758   7.027   7.035   5.227
 7605TIP3   OH222759   1.703   2.130   0.890
 7605TIP3    H122760   1.658   2.052   0.857
 7605TIP3    H222761   1.698   2.123   0.985
 7606TIP3   OH222762   8.134   3.844   6.104
 7606TIP3    H122763   8.194   3.902   6.152
 7606TIP3    H222764   8.058   3.835   6.161
 7607TIP3   OH222765   0.384   0.769   3.512
 7607TIP3    H122766   0.333   0.689   3.501
 7607TIP3    H222767   0.321   0.832   3.548
 7608TIP3   OH222768   4.525   7.157   6.052
 7608TIP3    H122769   4.484   7.239   6.024
 7608TIP3    H222770   4.454   7.106   6.089
 7609TIP3   OH222771   5.302   7.252   5.219
 7609TIP3    H122772   5.237   7.318   5.195
 7609TIP3    H222773   5.352   7.237   5.139
 7610TIP3   OH222774   2.468   1.131   4.913
 7610TIP3    H122775   2.430   1.181   4.985
 7610TIP3    H222776   2.561   1.156   4.914
 7611TIP3   OH222777   3.651   5.684   0.301
 7611TIP3    H122778   3.701   5.706   0.380
 7611TIP3    H222779   3.703   5.720   0.229
 7612TIP3   OH222780   0.539   2.673   6.086
 7612TIP3    H122781   0.553   2.670   5.991
 7612TIP3    H222782   0.489   2.594   6.106
 7613TIP3   OH222783   6.487   3.638   0.434
 7613TIP3    H122784   6.434   3.561   0.454
 7613TIP3    H222785   6.554   3.638   0.502
 7614TIP3   OH222786   7.258   2.533   0.109
 7614TIP3    H122787   7.201   2.606   0.131
 7614TIP3    H222788   7.318   2.569   0.043
 7615TIP3   OH222789   7.341   2.354   2.234
 7615TIP3    H122790   7.254   2.370   2.269
 7615TIP3    H222791   7.367   2.270   2.271
 7616TIP3   OH222792   6.369   6.784   2.768
 7616TIP3    H122793   6.354   6.828   2.684
 7616TIP3    H222794   6.293   6.726   2.779
 7617TIP3   OH222795   3.350   4.313   5.106
 7617TIP3    H122796   3.407   4.345   5.036
 7617TIP3    H222797   3.280   4.378   5.112
 7618TIP3   OH222798   6.220   5.564   6.413
 7618TIP3    H122799   6.281   5.571   6.486
 7618TIP3    H222800   6.147   5.621   6.438
 7619TIP3   OH222801   5.498   7.499   0.274
 7619TIP3    H122802   5.584   7.499   0.316
 7619TIP3    H222803   5.474   7.406   0.269
 7620TIP3   OH222804   2.038   1.710   3.701
 7620TIP3    H122805   2.123   1.716   3.744
 7620TIP3    H222806   2.055   1.660   3.621
 7621TIP3   OH222807   6.140   3.585   5.160
 7621TIP3    H122808   6.163   3.516   5.097
 7621TIP3    H222809   6.182   3.558   5.242
 7622TIP3   OH222810   4.543   3.196   5.463
 7622TIP3    H122811   4.577   3.110   5.437
 7622TIP3    H222812   4.564   3.253   5.390
 7623TIP3   OH222813   6.320   2.239   5.231
 7623TIP3    H122814   6.408   2.262   5.261
 7623TIP3    H222815   6.284   2.321   5.198
 7624TIP3   OH222816   2.944   6.790   0.647
 7624TIP3    H122817   2.868   6.742   0.615
 7624TIP3    H222818   2.907   6.863   0.697
 7625TIP3   OH222819   0.193   2.846   2.539
 7625TIP3    H122820   0.212   2.924   2.486
 7625TIP3    H222821   0.125   2.800   2.490
 7626TIP3   OH222822   2.826   7.180   4.058
 7626TIP3    H122823   2.845   7.262   4.012
 7626TIP3    H222824   2.744   7.150   4.019
 7627TIP3   OH222825   3.985   6.952   6.720
 7627TIP3    H122826   3.925   6.983   6.652
 7627TIP3    H222827   3.928   6.916   6.788
 7628TIP3   OH222828   2.783   1.467   0.693
 7628TIP3    H122829   2.779   1.519   0.774
 7628TIP3    H222830   2.718   1.507   0.636
 7629TIP3   OH222831   4.089   5.708   5.528
 7629TIP3    H122832   4.013   5.761   5.552
 7629TIP3    H222833   4.090   5.709   5.432
 7630TIP3   OH222834   3.443   4.375   1.062
 7630TIP3    H122835   3.484   4.313   1.001
 7630TIP3    H222836   3.362   4.332   1.089
 7631TIP3   OH222837   7.910   0.844   0.886
 7631TIP3    H122838   7.851   0.920   0.889
 7631TIP3    H222839   7.925   0.822   0.978
 7632TIP3   OH222840   2.132   0.288   3.313
 7632TIP3    H122841   2.072   0.333   3.373
 7632TIP3    H222842   2.203   0.258   3.369
 7633TIP3   OH222843   5.807   1.267   5.864
 7633TIP3    H122844   5.783   1.358   5.849
 7633TIP3    H222845   5.819   1.260   5.959
 7634TIP3   OH222846   2.910   0.375   1.151
 7634TIP3    H122847   2.910   0.467   1.178
 7634TIP3    H222848   2.983   0.368   1.090
 7635TIP3   OH222849   8.111   2.957   2.538
 7635TIP3    H122850   8.164   2.973   2.617
 7635TIP3    H222851   8.171   2.910   2.479
 7636TIP3   OH222852   1.517   7.790   6.666
 7636TIP3    H122853   1.479   7.846   6.734
 7636TIP3    H222854   1.513   7.702   6.703
 7637TIP3   OH222855   2.551   5.155   1.605
 7637TIP3    H122856   2.555   5.081   1.666
 7637TIP3    H222857   2.515   5.118   1.524
 7638TIP3   OH222858   4.247   6.096   5.638
 7638TIP3    H122859   4.195   6.021   5.668
 7638TIP3    H222860   4.259   6.081   5.544
 7639TIP3   OH222861   8.088   1.172   3.331
 7639TIP3    H122862   8.076   1.143   3.241
 7639TIP3    H222863   8.144   1.250   3.324
 7640TIP3   OH222864   1.981   7.193   6.120
 7640TIP3    H122865   2.049   7.148   6.170
 7640TIP3    H222866   1.906   7.197   6.180
 7641TIP3   OH222867   5.562   1.219   0.508
 7641TIP3    H122868   5.620   1.224   0.432
 7641TIP3    H222869   5.554   1.309   0.539
 7642TIP3   OH222870   0.397   4.527   6.378
 7642TIP3    H122871   0.422   4.466   6.309
 7642TIP3    H222872   0.429   4.487   6.459
 7643TIP3   OH222873   2.203   5.988   0.446
 7643TIP3    H122874   2.196   6.081   0.425
 7643TIP3    H222875   2.293   5.965   0.423
 7644TIP3   OH222876   0.720   4.322   3.519
 7644TIP3    H122877   0.704   4.311   3.425
 7644TIP3    H222878   0.633   4.337   3.556
 7645TIP3   OH222879   1.577   1.893   0.330
 7645TIP3    H122880   1.603   1.803   0.310
 7645TIP3    H222881   1.487   1.899   0.298
 7646TIP3   OH222882   5.829   7.086   1.894
 7646TIP3    H122883   5.915   7.051   1.870
 7646TIP3    H222884   5.797   7.129   1.815
 7647TIP3   OH222885   3.069   1.784   3.926
 7647TIP3    H122886   3.039   1.874   3.933
 7647TIP3    H222887   3.080   1.755   4.017
 7648TIP3   OH222888   3.857   7.268   4.836
 7648TIP3    H122889   3.774   7.252   4.791
 7648TIP3    H222890   3.855   7.211   4.913
 7649TIP3   OH222891   5.525   4.361   0.918
 7649TIP3    H122892   5.455   4.384   0.980
 7649TIP3    H222893   5.479   4.340   0.837
 7650TIP3   OH222894   6.114   6.647   6.040
 7650TIP3    H122895   6.165   6.686   6.111
 7650TIP3    H222896   6.159   6.564   6.022
 7651TIP3   OH222897   3.466   7.261   5.545
 7651TIP3    H122898   3.393   7.321   5.559
 7651TIP3    H222899   3.523   7.306   5.483
 7652TIP3   OH222900   2.096   4.090   3.734
 7652TIP3    H122901   2.102   4.142   3.654
 7652TIP3    H222902   2.104   3.999   3.704
 7653TIP3   OH222903   7.159   0.810   0.872
 7653TIP3    H122904   7.144   0.784   0.963
 7653TIP3    H222905   7.177   0.904   0.876
 7654TIP3   OH222906   5.079   2.659   5.423
 7654TIP3    H122907   5.016   2.669   5.494
 7654TIP3    H222908   5.095   2.565   5.417
 7655TIP3   OH222909   4.478   1.744   3.740
 7655TIP3    H122910   4.408   1.687   3.707
 7655TIP3    H222911   4.431   1.815   3.785
 7656TIP3   OH222912   6.360   5.362   4.510
 7656TIP3    H122913   6.325   5.287   4.463
 7656TIP3    H222914   6.331   5.350   4.600
 7657TIP3   OH222915   0.375   1.743   4.940
 7657TIP3    H122916   0.457   1.771   4.899
 7657TIP3    H222917   0.369   1.650   4.921
 7658TIP3   OH222918   6.589   5.518   1.380
 7658TIP3    H122919   6.499   5.531   1.350
 7658TIP3    H222920   6.590   5.554   1.469
 7659TIP3   OH222921   2.682   7.795   2.478
 7659TIP3    H122922   2.745   7.848   2.429
 7659TIP3    H222923   2.629   7.859   2.526
 7660TIP3   OH222924   5.631   4.773   1.604
 7660TIP3    H122925   5.554   4.720   1.625
 7660TIP3    H222926   5.606   4.863   1.628
 7661TIP3   OH222927   1.706   1.866   6.650
 7661TIP3    H122928   1.683   1.783   6.607
 7661TIP3    H222929   1.665   1.860   6.736
 7662TIP3   OH222930   8.077   5.676   6.469
 7662TIP3    H122931   8.155   5.731   6.457
 7662TIP3    H222932   8.039   5.707   6.551
 7663TIP3   OH222933   6.082   2.214   5.678
 7663TIP3    H122934   5.988   2.223   5.696
 7663TIP3    H222935   6.094   2.258   5.594
 7664TIP3   OH222936   5.868   3.833   6.609
 7664TIP3    H122937   5.865   3.918   6.566
 7664TIP3    H222938   5.955   3.799   6.587
 7665TIP3   OH222939   2.978   0.208   6.683
 7665TIP3    H122940   2.990   0.155   6.604
 7665TIP3    H222941   2.898   0.257   6.667
 7666TIP3   OH222942   2.300   7.004   1.560
 7666TIP3    H122943   2.338   6.935   1.504
 7666TIP3    H222944   2.366   7.018   1.628
 7667TIP3   OH222945   6.472   6.498   0.431
 7667TIP3    H122946   6.401   6.462   0.485
 7667TIP3    H222947   6.476   6.590   0.457
 7668TIP3   OH222948   0.775   6.205   0.853
 7668TIP3    H122949   0.821   6.132   0.894
 7668TIP3    H222950   0.708   6.229   0.916
 7669TIP3   OH222951   1.230   7.795   1.329
 7669TIP3    H122952   1.138   7.770   1.326
 7669TIP3    H222953   1.230   7.887   1.358
 7670TIP3   OH222954   4.527   1.613   5.682
 7670TIP3    H122955   4.467   1.678   5.645
 7670TIP3    H222956   4.503   1.531   5.639
 7671TIP3   OH222957   4.643   5.960   4.178
 7671TIP3    H122958   4.673   5.899   4.111
 7671TIP3    H222959   4.592   6.025   4.130
 7672TIP3   OH222960   4.057   5.077   5.401
 7672TIP3    H122961   4.108   5.016   5.349
 7672TIP3    H222962   4.106   5.159   5.399
 7673TIP3   OH222963   7.108   5.048   1.171
 7673TIP3    H122964   7.064   5.096   1.242
 7673TIP3    H222965   7.201   5.066   1.184
 7674TIP3   OH222966   4.301   6.377   4.919
 7674TIP3    H122967   4.336   6.324   4.848
 7674TIP3    H222968   4.348   6.348   4.997
 7675TIP3   OH222969   0.207   6.086   2.049
 7675TIP3    H122970   0.131   6.113   1.997
 7675TIP3    H222971   0.278   6.144   2.021
 7676TIP3   OH222972   3.788   2.957   5.911
 7676TIP3    H122973   3.845   3.033   5.904
 7676TIP3    H222974   3.847   2.882   5.902
 7677TIP3   OH222975   1.371   2.817   0.051
 7677TIP3    H122976   1.447   2.828   0.107
 7677TIP3    H222977   1.344   2.906   0.029
 7678TIP3   OH222978   6.091   3.209   5.544
 7678TIP3    H122979   6.067   3.297   5.513
 7678TIP3    H222980   6.125   3.223   5.632
 7679TIP3   OH222981   3.740   5.462   1.506
 7679TIP3    H122982   3.659   5.432   1.547
 7679TIP3    H222983   3.808   5.406   1.545
 7680TIP3   OH222984   7.114   2.789   3.185
 7680TIP3    H122985   7.023   2.795   3.216
 7680TIP3    H222986   7.106   2.770   3.091
 7681TIP3   OH222987   3.394   2.301   1.422
 7681TIP3    H122988   3.383   2.296   1.517
 7681TIP3    H222989   3.479   2.262   1.405
 7682TIP3   OH222990   5.048   6.396   2.693
 7682TIP3    H122991   5.092   6.481   2.698
 7682TIP3    H222992   5.063   6.366   2.604
 7683TIP3   OH222993   7.583   0.025   5.391
 7683TIP3    H122994   7.603   0.074   5.471
 7683TIP3    H222995   7.550   0.090   5.330
 7684TIP3   OH222996   0.257   0.119   6.664
 7684TIP3    H122997   0.321   0.180   6.702
 7684TIP3    H222998   0.301   0.083   6.587
 7685TIP3   OH222999   7.881   6.836   5.108
 7685TIP3    H123000   7.866   6.930   5.103
 7685TIP3    H223001   7.962   6.826   5.157
 7686TIP3   OH223002   3.977   4.638   1.429
 7686TIP3    H123003   3.944   4.549   1.441
 7686TIP3    H223004   3.928   4.671   1.354
 7687TIP3   OH223005   5.663   1.868   5.825
 7687TIP3    H123006   5.595   1.804   5.846
 7687TIP3    H223007   5.718   1.872   5.903
 7688TIP3   OH223008   6.828   0.206   6.072
 7688TIP3    H123009   6.839   0.264   6.147
 7688TIP3    H223010   6.821   0.266   5.997
 7689TIP3   OH223011   7.972   6.613   4.980
 7689TIP3    H123012   7.981   6.544   5.046
 7689TIP3    H223013   7.952   6.692   5.031
 7690TIP3   OH223014   1.454   0.562   0.713
 7690TIP3    H123015   1.522   0.589   0.775
 7690TIP3    H223016   1.395   0.637   0.708
 7691TIP3   OH223017   3.792   6.011   2.254
 7691TIP3    H123018   3.855   5.953   2.211
 7691TIP3    H223019   3.839   6.094   2.263
 7692TIP3   OH223020   3.613   6.827   1.816
 7692TIP3    H123021   3.559   6.863   1.886
 7692TIP3    H223022   3.677   6.896   1.798
 7693TIP3   OH223023   1.057   6.271   4.677
 7693TIP3    H123024   0.978   6.233   4.715
 7693TIP3    H223025   1.075   6.217   4.600
 7694TIP3   OH223026   2.366   0.941   2.210
 7694TIP3    H123027   2.421   0.910   2.137
 7694TIP3    H223028   2.382   0.878   2.280
 7695TIP3   OH223029   4.406   1.626   5.928
 7695TIP3    H123030   4.414   1.678   6.007
 7695TIP3    H223031   4.486   1.645   5.878
 7696TIP3   OH223032   4.266   2.524   3.667
 7696TIP3    H123033   4.317   2.496   3.743
 7696TIP3    H223034   4.288   2.617   3.657
 7697TIP3   OH223035   7.808   0.105   1.870
 7697TIP3    H123036   7.871   0.170   1.838
 7697TIP3    H223037   7.857   0.023   1.868
 7698TIP3   OH223038   6.967   3.389   4.493
 7698TIP3    H123039   7.045   3.334   4.508
 7698TIP3    H223040   6.952   3.433   4.577
 7699TIP3   OH223041   7.677   1.817   0.649
 7699TIP3    H123042   7.649   1.906   0.669
 7699TIP3    H223043   7.735   1.826   0.573
 7700TIP3   OH223044   6.286   0.175   1.926
 7700TIP3    H123045   6.368   0.161   1.879
 7700TIP3    H223046   6.300   0.257   1.974
 7701TIP3   OH223047   2.397   1.528   2.873
 7701TIP3    H123048   2.399   1.623   2.885
 7701TIP3    H223049   2.307   1.503   2.895
 7702TIP3   OH223050   7.074   1.243   6.107
 7702TIP3    H123051   7.071   1.292   6.189
 7702TIP3    H223052   7.001   1.277   6.056
 7703TIP3   OH223053   4.230   6.123   4.779
 7703TIP3    H123054   4.155   6.072   4.746
 7703TIP3    H223055   4.298   6.057   4.796
 7704TIP3   OH223056   0.351   1.860   0.393
 7704TIP3    H123057   0.385   1.771   0.397
 7704TIP3    H223058   0.336   1.884   0.485
 7705TIP3   OH223059   3.331   4.257   6.157
 7705TIP3    H123060   3.415   4.302   6.166
 7705TIP3    H223061   3.269   4.314   6.202
 7706TIP3   OH223062   6.210   4.317   3.178
 7706TIP3    H123063   6.247   4.400   3.147
 7706TIP3    H223064   6.285   4.257   3.182
 7707TIP3   OH223065   3.475   6.869   1.489
 7707TIP3    H123066   3.564   6.902   1.503
 7707TIP3    H223067   3.444   6.915   1.410
 7708TIP3   OH223068   2.848   3.742   5.311
 7708TIP3    H123069   2.865   3.684   5.385
 7708TIP3    H223070   2.934   3.777   5.289
 7709TIP3   OH223071   2.196   4.696   0.610
 7709TIP3    H123072   2.220   4.605   0.629
 7709TIP3    H223073   2.135   4.690   0.537
 7710TIP3   OH223074   3.639   2.602   1.620
 7710TIP3    H123075   3.725   2.634   1.594
 7710TIP3    H223076   3.589   2.599   1.538
 7711TIP3   OH223077   4.899   6.323   3.380
 7711TIP3    H123078   4.900   6.276   3.464
 7711TIP3    H223079   4.866   6.260   3.317
 7712TIP3   OH223080   6.711   4.226   4.574
 7712TIP3    H123081   6.797   4.193   4.601
 7712TIP3    H223082   6.679   4.274   4.650
 7713TIP3   OH223083   2.065   4.693   5.559
 7713TIP3    H123084   2.081   4.760   5.625
 7713TIP3    H223085   2.049   4.613   5.608
 7714TIP3   OH223086   7.678   1.411   6.508
 7714TIP3    H123087   7.746   1.373   6.564
 7714TIP3    H223088   7.726   1.468   6.448
 7715TIP3   OH223089   5.265   3.415   0.915
 7715TIP3    H123090   5.322   3.354   0.962
 7715TIP3    H223091   5.322   3.489   0.895
 7716TIP3   OH223092   7.590   6.872   3.171
 7716TIP3    H123093   7.569   6.781   3.188
 7716TIP3    H223094   7.594   6.879   3.076
 7717TIP3   OH223095   5.778   1.345   4.526
 7717TIP3    H123096   5.687   1.362   4.503
 7717TIP3    H223097   5.775   1.307   4.613
 7718TIP3   OH223098   6.540   7.435   2.839
 7718TIP3    H123099   6.515   7.370   2.773
 7718TIP3    H223100   6.498   7.405   2.919
 7719TIP3   OH223101   1.814   5.765   4.370
 7719TIP3    H123102   1.735   5.712   4.366
 7719TIP3    H223103   1.884   5.703   4.391
 7720TIP3   OH223104   6.836   2.828   3.085
 7720TIP3    H123105   6.827   2.750   3.140
 7720TIP3    H223106   6.755   2.831   3.034
 7721TIP3   OH223107   0.932   4.416   1.838
 7721TIP3    H123108   0.985   4.496   1.840
 7721TIP3    H223109   0.920   4.398   1.745
 7722TIP3   OH223110   2.082   2.200   1.102
 7722TIP3    H123111   2.074   2.239   1.189
 7722TIP3    H223112   2.155   2.246   1.062
 7723TIP3   OH223113   3.395   6.665   1.917
 7723TIP3    H123114   3.440   6.702   1.841
 7723TIP3    H223115   3.464   6.651   1.982
 7724TIP3   OH223116   3.189   3.111   1.429
 7724TIP3    H123117   3.145   3.188   1.394
 7724TIP3    H223118   3.127   3.075   1.493
 7725TIP3   OH223119   2.566   7.144   6.584
 7725TIP3    H123120   2.642   7.090   6.607
 7725TIP3    H223121   2.552   7.199   6.660
 7726TIP3   OH223122   0.955   3.816   4.228
 7726TIP3    H123123   0.995   3.888   4.180
 7726TIP3    H223124   1.009   3.740   4.207
 7727TIP3   OH223125   4.261   5.275   6.611
 7727TIP3    H123126   4.265   5.219   6.533
 7727TIP3    H223127   4.296   5.360   6.581
 7728TIP3   OH223128   5.967   7.677   2.054
 7728TIP3    H123129   5.950   7.744   2.121
 7728TIP3    H223130   6.000   7.602   2.103
 7729TIP3   OH223131   1.898   1.753   1.907
 7729TIP3    H123132   1.980   1.721   1.946
 7729TIP3    H223133   1.912   1.747   1.813
 7730TIP3   OH223134   4.392   1.994   6.308
 7730TIP3    H123135   4.429   1.979   6.395
 7730TIP3    H223136   4.443   2.066   6.273
 7731TIP3   OH223137   3.910   0.107   2.074
 7731TIP3    H123138   3.982   0.048   2.096
 7731TIP3    H223139   3.840   0.050   2.044
 7732TIP3   OH223140   3.468   6.441   4.877
 7732TIP3    H123141   3.466   6.437   4.972
 7732TIP3    H223142   3.445   6.352   4.849
 7733TIP3   OH223143   1.869   7.050   2.521
 7733TIP3    H123144   1.955   7.088   2.538
 7733TIP3    H223145   1.883   6.955   2.527
 7734TIP3   OH223146   3.312   3.057   2.391
 7734TIP3    H123147   3.290   3.119   2.460
 7734TIP3    H223148   3.405   3.071   2.374
 7735TIP3   OH223149   6.171   3.848   5.047
 7735TIP3    H123150   6.167   3.756   5.071
 7735TIP3    H223151   6.099   3.888   5.097
 7736TIP3   OH223152   5.305   6.136   1.283
 7736TIP3    H123153   5.378   6.198   1.279
 7736TIP3    H223154   5.227   6.190   1.273
 7737TIP3   OH223155   1.347   3.230   1.812
 7737TIP3    H123156   1.349   3.174   1.734
 7737TIP3    H223157   1.255   3.229   1.840
 7738TIP3   OH223158   5.888   6.963   3.495
 7738TIP3    H123159   5.939   6.934   3.571
 7738TIP3    H223160   5.825   6.893   3.480
 7739TIP3   OH223161   0.704   0.843   2.623
 7739TIP3    H123162   0.774   0.799   2.672
 7739TIP3    H223163   0.624   0.819   2.670
 7740TIP3   OH223164   6.483   4.339   1.221
 7740TIP3    H123165   6.547   4.404   1.192
 7740TIP3    H223166   6.400   4.368   1.183
 7741TIP3   OH223167   2.055   2.692   0.334
 7741TIP3    H123168   2.095   2.605   0.335
 7741TIP3    H223169   2.110   2.745   0.391
 7742TIP3   OH223170   6.942   0.966   5.656
 7742TIP3    H123171   6.959   0.976   5.749
 7742TIP3    H223172   6.846   0.965   5.649
 7743TIP3   OH223173   4.108   6.983   1.976
 7743TIP3    H123174   4.040   6.970   2.042
 7743TIP3    H223175   4.136   7.074   1.987
 7744TIP3   OH223176   6.308   0.409   3.731
 7744TIP3    H123177   6.304   0.480   3.795
 7744TIP3    H223178   6.269   0.334   3.776
 7745TIP3   OH223179   6.593   6.446   5.683
 7745TIP3    H123180   6.624   6.477   5.598
 7745TIP3    H223181   6.567   6.355   5.667
 7746TIP3   OH223182   1.261   6.468   2.033
 7746TIP3    H123183   1.344   6.506   2.007
 7746TIP3    H223184   1.242   6.403   1.966
 7747TIP3   OH223185   1.392   2.453   5.661
 7747TIP3    H123186   1.459   2.464   5.593
 7747TIP3    H223187   1.393   2.535   5.710
 7748TIP3   OH223188   4.197   6.083   2.758
 7748TIP3    H123189   4.119   6.122   2.721
 7748TIP3    H223190   4.263   6.153   2.755
 7749TIP3   OH223191   2.286   2.906   1.349
 7749TIP3    H123192   2.368   2.857   1.350
 7749TIP3    H223193   2.276   2.934   1.258
 7750TIP3   OH223194   2.119   7.180   2.600
 7750TIP3    H123195   2.144   7.269   2.578
 7750TIP3    H223196   2.192   7.126   2.569
 7751TIP3   OH223197   4.422   1.112   4.265
 7751TIP3    H123198   4.433   1.203   4.291
 7751TIP3    H223199   4.480   1.100   4.190
 7752TIP3   OH223200   4.697   7.311   1.603
 7752TIP3    H123201   4.634   7.264   1.548
 7752TIP3    H223202   4.782   7.289   1.564
 7753TIP3   OH223203   0.779   5.139   3.719
 7753TIP3    H123204   0.801   5.214   3.664
 7753TIP3    H223205   0.861   5.119   3.765
 7754TIP3   OH223206   2.428   7.014   6.199
 7754TIP3    H123207   2.387   6.952   6.138
 7754TIP3    H223208   2.356   7.072   6.226
 7755TIP3   OH223209   3.568   2.026   4.186
 7755TIP3    H123210   3.595   1.980   4.106
 7755TIP3    H223211   3.560   1.957   4.251
 7756TIP3   OH223212   0.689   3.076   2.883
 7756TIP3    H123213   0.631   3.104   2.813
 7756TIP3    H223214   0.649   3.112   2.963
 7757TIP3   OH223215   0.730   4.063   5.258
 7757TIP3    H123216   0.751   4.107   5.340
 7757TIP3    H223217   0.727   3.970   5.281
 7758TIP3   OH223218   8.064   0.026   3.031
 7758TIP3    H123219   8.155   0.008   3.055
 7758TIP3    H223220   8.067   0.043   2.937
 7759TIP3   OH223221   2.064   0.055   4.342
 7759TIP3    H123222   2.083   0.112   4.416
 7759TIP3    H223223   1.969   0.057   4.333
 7760TIP3   OH223224   4.797   2.208   5.378
 7760TIP3    H123225   4.842   2.198   5.462
 7760TIP3    H223226   4.865   2.241   5.319
 7761TIP3   OH223227   6.947   7.413   4.331
 7761TIP3    H123228   6.962   7.319   4.323
 7761TIP3    H223229   7.033   7.450   4.353
 7762TIP3   OH223230   1.213   4.510   4.621
 7762TIP3    H123231   1.231   4.535   4.531
 7762TIP3    H223232   1.129   4.465   4.617
 7763TIP3   OH223233   7.880   6.382   2.454
 7763TIP3    H123234   7.850   6.357   2.367
 7763TIP3    H223235   7.878   6.300   2.504
 7764TIP3   OH223236   3.210   1.394   3.652
 7764TIP3    H123237   3.292   1.427   3.615
 7764TIP3    H223238   3.211   1.424   3.743
 7765TIP3   OH223239   6.804   6.706   0.209
 7765TIP3    H123240   6.770   6.684   0.122
 7765TIP3    H223241   6.898   6.695   0.202
 7766TIP3   OH223242   1.700   6.812   5.911
 7766TIP3    H123243   1.760   6.872   5.866
 7766TIP3    H223244   1.616   6.825   5.867
 7767TIP3   OH223245   2.986   2.710   2.378
 7767TIP3    H123246   3.025   2.701   2.465
 7767TIP3    H223247   3.060   2.710   2.318
 7768TIP3   OH223248   3.081   3.858   5.262
 7768TIP3    H123249   3.092   3.942   5.305
 7768TIP3    H223250   3.098   3.875   5.169
 7769TIP3   OH223251   3.424   5.546   3.367
 7769TIP3    H123252   3.346   5.507   3.406
 7769TIP3    H223253   3.495   5.486   3.388
 7770TIP3   OH223254   1.354   6.237   4.514
 7770TIP3    H123255   1.427   6.287   4.549
 7770TIP3    H223256   1.310   6.297   4.453
 7771TIP3   OH223257   2.902   7.565   2.354
 7771TIP3    H123258   2.889   7.622   2.278
 7771TIP3    H223259   2.821   7.575   2.405
 7772TIP3   OH223260   6.160   0.299   3.449
 7772TIP3    H123261   6.241   0.305   3.500
 7772TIP3    H223262   6.129   0.210   3.462
 7773TIP3   OH223263   5.714   6.088   1.744
 7773TIP3    H123264   5.732   6.098   1.837
 7773TIP3    H223265   5.705   5.994   1.731
 7774TIP3   OH223266   4.516   2.955   0.163
 7774TIP3    H123267   4.509   3.034   0.217
 7774TIP3    H223268   4.498   2.985   0.074
 7775TIP3   OH223269   6.601   3.630   6.152
 7775TIP3    H123270   6.558   3.545   6.162
 7775TIP3    H223271   6.541   3.680   6.097
 7776TIP3   OH223272   4.155   7.490   2.966
 7776TIP3    H123273   4.068   7.486   3.005
 7776TIP3    H223274   4.175   7.399   2.942
 7777TIP3   OH223275   1.166   1.001   3.989
 7777TIP3    H123276   1.254   1.038   3.987
 7777TIP3    H223277   1.145   0.985   3.897
 7778TIP3   OH223278   4.588   0.605   2.548
 7778TIP3    H123279   4.558   0.530   2.599
 7778TIP3    H223280   4.672   0.578   2.511
 7779TIP3   OH223281   2.564   5.077   5.063
 7779TIP3    H123282   2.479   5.064   5.020
 7779TIP3    H223283   2.551   5.154   5.118
 7780TIP3   OH223284   3.196   6.537   1.409
 7780TIP3    H123285   3.233   6.506   1.492
 7780TIP3    H223286   3.269   6.534   1.348
 7781TIP3   OH223287   4.104   7.693   3.627
 7781TIP3    H123288   4.089   7.610   3.672
 7781TIP3    H223289   4.036   7.697   3.561
 7782TIP3   OH223290   6.727   3.671   2.584
 7782TIP3    H123291   6.661   3.618   2.628
 7782TIP3    H223292   6.788   3.696   2.654
 7783TIP3   OH223293   0.338   1.777   1.195
 7783TIP3    H123294   0.408   1.765   1.131
 7783TIP3    H223295   0.324   1.871   1.199
 7784TIP3   OH223296   0.713   3.064   4.989
 7784TIP3    H123297   0.750   2.993   5.042
 7784TIP3    H223298   0.708   3.027   4.901
 7785TIP3   OH223299   1.658   3.719   4.407
 7785TIP3    H123300   1.596   3.685   4.472
 7785TIP3    H223301   1.606   3.780   4.355
 7786TIP3   OH223302   4.670   5.665   1.475
 7786TIP3    H123303   4.665   5.725   1.401
 7786TIP3    H223304   4.723   5.591   1.443
 7787TIP3   OH223305   0.891   1.016   6.581
 7787TIP3    H123306   0.912   1.098   6.625
 7787TIP3    H223307   0.801   1.028   6.550
 7788TIP3   OH223308   2.501   3.790   4.286
 7788TIP3    H123309   2.413   3.767   4.255
 7788TIP3    H223310   2.504   3.757   4.375
 7789TIP3   OH223311   1.503   4.178   0.294
 7789TIP3    H123312   1.463   4.097   0.262
 7789TIP3    H223313   1.576   4.149   0.348
 7790TIP3   OH223314   6.260   7.051   2.705
 7790TIP3    H123315   6.247   7.144   2.688
 7790TIP3    H223316   6.209   7.033   2.783
 7791TIP3   OH223317   7.478   1.636   6.676
 7791TIP3    H123318   7.502   1.668   6.588
 7791TIP3    H223319   7.451   1.546   6.663
 7792TIP3   OH223320   0.442   2.731   2.605
 7792TIP3    H123321   0.357   2.776   2.601
 7792TIP3    H223322   0.426   2.648   2.560
 7793TIP3   OH223323   2.741   7.485   5.307
 7793TIP3    H123324   2.764   7.568   5.265
 7793TIP3    H223325   2.658   7.502   5.352
 7794TIP3   OH223326   0.297   1.771   3.435
 7794TIP3    H123327   0.217   1.762   3.487
 7794TIP3    H223328   0.274   1.831   3.365
 7795TIP3   OH223329   3.820   5.538   3.407
 7795TIP3    H123330   3.781   5.572   3.326
 7795TIP3    H223331   3.754   5.480   3.443
 7796TIP3   OH223332   7.777   2.907   5.743
 7796TIP3    H123333   7.754   2.971   5.675
 7796TIP3    H223334   7.869   2.925   5.762
 7797TIP3   OH223335   1.601   7.785   4.550
 7797TIP3    H123336   1.614   7.795   4.644
 7797TIP3    H223337   1.539   7.853   4.526
 7798TIP3   OH223338   4.851   1.803   4.998
 7798TIP3    H123339   4.919   1.782   5.062
 7798TIP3    H223340   4.884   1.767   4.915
 7799TIP3   OH223341   3.030   5.971   2.790
 7799TIP3    H123342   2.983   6.051   2.767
 7799TIP3    H223343   2.962   5.911   2.819
 7800TIP3   OH223344   1.183   4.906   4.540
 7800TIP3    H123345   1.249   4.844   4.570
 7800TIP3    H223346   1.228   4.991   4.537
 7801TIP3   OH223347   0.730   5.052   6.570
 7801TIP3    H123348   0.693   4.969   6.600
 7801TIP3    H223349   0.682   5.119   6.620
 7802TIP3   OH223350   2.530   5.205   3.041
 7802TIP3    H123351   2.571   5.227   3.125
 7802TIP3    H223352   2.603   5.176   2.986
 7803TIP3   OH223353   3.846   2.000   3.020
 7803TIP3    H123354   3.858   1.957   2.935
 7803TIP3    H223355   3.751   2.015   3.026
 7804TIP3   OH223356   2.834   4.568   0.971
 7804TIP3    H123357   2.786   4.647   0.945
 7804TIP3    H223358   2.903   4.560   0.905
 7805TIP3   OH223359   2.630   1.200   0.674
 7805TIP3    H123360   2.678   1.277   0.705
 7805TIP3    H223361   2.628   1.210   0.579
 7806TIP3   OH223362   1.886   2.414   6.229
 7806TIP3    H123363   1.908   2.451   6.314
 7806TIP3    H223364   1.815   2.353   6.248
 7807TIP3   OH223365   5.492   2.621   5.634
 7807TIP3    H123366   5.461   2.531   5.624
 7807TIP3    H223367   5.426   2.664   5.689
 7808TIP3   OH223368   2.766   1.644   0.900
 7808TIP3    H123369   2.776   1.738   0.886
 7808TIP3    H223370   2.820   1.626   0.977
 7809TIP3   OH223371   0.708   1.333   5.103
 7809TIP3    H123372   0.777   1.267   5.109
 7809TIP3    H223373   0.729   1.396   5.172
 7810TIP3   OH223374   0.219   0.515   0.088
 7810TIP3    H123375   0.153   0.449   0.067
 7810TIP3    H223376   0.188   0.555   0.169
 7811TIP3   OH223377   5.261   6.221   6.728
 7811TIP3    H123378   5.326   6.289   6.746
 7811TIP3    H223379   5.189   6.267   6.685
 7812TIP3   OH223380   5.607   2.981   1.182
 7812TIP3    H123381   5.689   3.007   1.140
 7812TIP3    H223382   5.598   3.041   1.256
 7813TIP3   OH223383   3.839   0.415   3.137
 7813TIP3    H123384   3.764   0.431   3.194
 7813TIP3    H223385   3.894   0.493   3.148
 7814TIP3   OH223386   8.057   1.987   6.505
 7814TIP3    H123387   8.140   2.029   6.526
 7814TIP3    H223388   8.007   2.055   6.459
 7815TIP3   OH223389   1.653   4.354   6.459
 7815TIP3    H123390   1.722   4.297   6.424
 7815TIP3    H223391   1.625   4.407   6.385
 7816TIP3   OH223392   6.063   1.849   5.232
 7816TIP3    H123393   6.032   1.840   5.141
 7816TIP3    H223394   6.038   1.767   5.274
 7817TIP3   OH223395   2.420   0.912   4.106
 7817TIP3    H123396   2.469   0.959   4.173
 7817TIP3    H223397   2.331   0.947   4.111
 7818TIP3   OH223398   6.223   6.870   1.294
 7818TIP3    H123399   6.215   6.791   1.241
 7818TIP3    H223400   6.157   6.930   1.258
 7819TIP3   OH223401   1.386   4.478   6.010
 7819TIP3    H123402   1.392   4.540   6.082
 7819TIP3    H223403   1.378   4.393   6.054
 7820TIP3   OH223404   3.060   0.693   4.740
 7820TIP3    H123405   3.125   0.746   4.694
 7820TIP3    H223406   3.011   0.649   4.670
 7821TIP3   OH223407   2.468   1.789   1.988
 7821TIP3    H123408   2.533   1.719   1.985
 7821TIP3    H223409   2.479   1.836   1.905
 7822TIP3   OH223410   4.522   6.103   5.760
 7822TIP3    H123411   4.566   6.181   5.727
 7822TIP3    H223412   4.430   6.116   5.737
 7823TIP3   OH223413   2.184   4.236   0.281
 7823TIP3    H123414   2.218   4.315   0.324
 7823TIP3    H223415   2.248   4.168   0.301
 7824TIP3   OH223416   5.215   5.750   3.101
 7824TIP3    H123417   5.177   5.740   3.013
 7824TIP3    H223418   5.305   5.720   3.092
 7825TIP3   OH223419   4.187   1.940   2.495
 7825TIP3    H123420   4.126   1.974   2.560
 7825TIP3    H223421   4.199   2.012   2.433
 7826TIP3   OH223422   7.843   4.998   2.179
 7826TIP3    H123423   7.831   5.093   2.175
 7826TIP3    H223424   7.772   4.962   2.125
 7827TIP3   OH223425   6.153   6.130   4.789
 7827TIP3    H123426   6.199   6.208   4.821
 7827TIP3    H223427   6.219   6.061   4.792
 7828TIP3   OH223428   5.820   5.561   2.207
 7828TIP3    H123429   5.726   5.547   2.202
 7828TIP3    H223430   5.835   5.643   2.159
 7829TIP3   OH223431   3.671   3.174   0.184
 7829TIP3    H123432   3.638   3.256   0.222
 7829TIP3    H223433   3.610   3.154   0.113
 7830TIP3   OH223434   6.364   7.613   2.749
 7830TIP3    H123435   6.404   7.700   2.757
 7830TIP3    H223436   6.437   7.552   2.750
 7831TIP3   OH223437   2.376   2.551   2.916
 7831TIP3    H123438   2.340   2.535   2.829
 7831TIP3    H223439   2.450   2.610   2.901
 7832TIP3   OH223440   1.140   2.144   3.091
 7832TIP3    H123441   1.182   2.199   3.157
 7832TIP3    H223442   1.188   2.163   3.010
 7833TIP3   OH223443   4.632   1.635   6.277
 7833TIP3    H123444   4.591   1.558   6.239
 7833TIP3    H223445   4.570   1.706   6.260
 7834TIP3   OH223446   2.198   1.284   5.009
 7834TIP3    H123447   2.288   1.298   5.040
 7834TIP3    H223448   2.151   1.364   5.035
 7835TIP3   OH223449   0.642   1.122   0.820
 7835TIP3    H123450   0.684   1.051   0.868
 7835TIP3    H223451   0.654   1.099   0.727
 7836TIP3   OH223452   1.269   5.235   0.957
 7836TIP3    H123453   1.223   5.173   1.013
 7836TIP3    H223454   1.203   5.263   0.893
 7837TIP3   OH223455   3.616   6.574   0.345
 7837TIP3    H123456   3.530   6.538   0.369
 7837TIP3    H223457   3.615   6.663   0.380
 7838TIP3   OH223458   6.144   5.014   3.449
 7838TIP3    H123459   6.130   4.923   3.424
 7838TIP3    H223460   6.074   5.062   3.404
 7839TIP3   OH223461   2.241   3.875   3.635
 7839TIP3    H123462   2.291   3.957   3.638
 7839TIP3    H223463   2.249   3.840   3.723
 7840TIP3   OH223464   4.429   0.221   5.191
 7840TIP3    H123465   4.523   0.219   5.170
 7840TIP3    H223466   4.424   0.189   5.281
 7841TIP3   OH223467   0.580   4.130   2.194
 7841TIP3    H123468   0.570   4.175   2.110
 7841TIP3    H223469   0.535   4.046   2.182
 7842TIP3   OH223470   2.049   3.016   5.660
 7842TIP3    H123471   1.968   3.059   5.635
 7842TIP3    H223472   2.081   3.067   5.734
 7843TIP3   OH223473   1.457   1.122   1.398
 7843TIP3    H123474   1.369   1.107   1.430
 7843TIP3    H223475   1.461   1.075   1.315
 7844TIP3   OH223476   5.426   6.581   2.944
 7844TIP3    H123477   5.447   6.493   2.974
 7844TIP3    H223478   5.331   6.588   2.951
 7845TIP3   OH223479   5.359   6.037   4.858
 7845TIP3    H123480   5.397   6.016   4.943
 7845TIP3    H223481   5.289   6.100   4.878
 7846TIP3   OH223482   7.319   7.037   5.344
 7846TIP3    H123483   7.363   7.092   5.409
 7846TIP3    H223484   7.271   7.098   5.289
 7847TIP3   OH223485   4.360   0.206   1.679
 7847TIP3    H123486   4.322   0.210   1.591
 7847TIP3    H223487   4.375   0.113   1.694
 7848TIP3   OH223488   2.133   0.334   2.795
 7848TIP3    H123489   2.216   0.382   2.795
 7848TIP3    H223490   2.155   0.248   2.831
 7849TIP3   OH223491   1.854   2.747   3.354
 7849TIP3    H123492   1.826   2.733   3.263
 7849TIP3    H223493   1.916   2.820   3.349
 7850TIP3   OH223494   0.556   7.169   5.247
 7850TIP3    H123495   0.566   7.118   5.327
 7850TIP3    H223496   0.544   7.259   5.278
 7851TIP3   OH223497   1.173   6.443   4.884
 7851TIP3    H123498   1.099   6.461   4.942
 7851TIP3    H223499   1.134   6.402   4.807
 7852TIP3   OH223500   1.985   0.048   3.427
 7852TIP3    H123501   2.033  -0.001   3.361
 7852TIP3    H223502   1.961   0.130   3.384
 7853TIP3   OH223503   7.654   3.852   3.305
 7853TIP3    H123504   7.724   3.817   3.250
 7853TIP3    H223505   7.619   3.776   3.351
 7854TIP3   OH223506   4.162   2.605   0.918
 7854TIP3    H123507   4.214   2.581   0.995
 7854TIP3    H223508   4.095   2.536   0.912
 7855TIP3   OH223509   5.529   5.218   3.496
 7855TIP3    H123510   5.448   5.174   3.469
 7855TIP3    H223511   5.579   5.227   3.415
 7856TIP3   OH223512   6.502   0.969   0.764
 7856TIP3    H123513   6.471   0.894   0.714
 7856TIP3    H223514   6.596   0.956   0.771
 7857TIP3   OH223515   1.649   7.338   3.500
 7857TIP3    H123516   1.700   7.339   3.420
 7857TIP3    H223517   1.707   7.378   3.566
 7858TIP3   OH223518   1.508   2.056   2.238
 7858TIP3    H123519   1.465   2.014   2.312
 7858TIP3    H223520   1.595   2.078   2.271
 7859TIP3   OH223521   6.348   5.644   4.448
 7859TIP3    H123522   6.356   5.549   4.447
 7859TIP3    H223523   6.313   5.665   4.534
 7860TIP3   OH223524   7.093   1.229   5.209
 7860TIP3    H123525   7.059   1.228   5.298
 7860TIP3    H223526   7.128   1.141   5.195
 7861TIP3   OH223527   0.117   0.148   2.266
 7861TIP3    H123528   0.101   0.080   2.332
 7861TIP3    H223529   0.050   0.133   2.200
 7862TIP3   OH223530   1.175   7.807   4.609
 7862TIP3    H123531   1.235   7.795   4.683
 7862TIP3    H223532   1.226   7.780   4.532
 7863TIP3   OH223533   5.993   0.040   1.567
 7863TIP3    H123534   5.991   0.088   1.650
 7863TIP3    H223535   5.934   0.089   1.510
 7864TIP3   OH223536   0.677   5.115   1.774
 7864TIP3    H123537   0.669   5.204   1.740
 7864TIP3    H223538   0.667   5.124   1.869
 7865TIP3   OH223539   2.602   5.123   6.355
 7865TIP3    H123540   2.693   5.103   6.376
 7865TIP3    H223541   2.595   5.108   6.260
 7866TIP3   OH223542   4.778   5.336   1.744
 7866TIP3    H123543   4.690   5.369   1.728
 7866TIP3    H223544   4.797   5.278   1.670
 7867TIP3   OH223545   5.540   6.349   5.017
 7867TIP3    H123546   5.530   6.374   5.108
 7867TIP3    H223547   5.454   6.364   4.978
 7868TIP3   OH223548   0.821   7.150   5.125
 7868TIP3    H123549   0.846   7.242   5.128
 7868TIP3    H223550   0.729   7.149   5.150
 7869TIP3   OH223551   1.923   7.051   1.718
 7869TIP3    H123552   1.946   7.084   1.631
 7869TIP3    H223553   1.943   6.958   1.714
 7870TIP3   OH223554   7.841   5.503   2.405
 7870TIP3    H123555   7.830   5.414   2.439
 7870TIP3    H223556   7.905   5.543   2.463
 7871TIP3   OH223557   4.569   1.527   3.900
 7871TIP3    H123558   4.617   1.605   3.872
 7871TIP3    H223559   4.636   1.460   3.910
 7872TIP3   OH223560   1.542   1.790   1.500
 7872TIP3    H123561   1.559   1.727   1.570
 7872TIP3    H223562   1.596   1.760   1.427
 7873TIP3   OH223563   5.010   7.645   0.001
 7873TIP3    H123564   5.065   7.631   0.078
 7873TIP3    H223565   5.022   7.738  -0.021
 7874TIP3   OH223566   7.435   0.668   4.313
 7874TIP3    H123567   7.372   0.630   4.374
 7874TIP3    H223568   7.382   0.701   4.240
 7875TIP3   OH223569   5.521   4.851   3.260
 7875TIP3    H123570   5.527   4.783   3.193
 7875TIP3    H223571   5.503   4.931   3.212
 7876TIP3   OH223572   5.178   2.065   4.759
 7876TIP3    H123573   5.221   2.147   4.781
 7876TIP3    H223574   5.240   2.020   4.702
 7877TIP3   OH223575   0.751   2.484   5.300
 7877TIP3    H123576   0.775   2.551   5.236
 7877TIP3    H223577   0.812   2.412   5.283
 7878TIP3   OH223578   5.612   7.009   0.142
 7878TIP3    H123579   5.581   7.060   0.068
 7878TIP3    H223580   5.645   7.075   0.204
 7879TIP3   OH223581   1.203   3.067   2.817
 7879TIP3    H123582   1.110   3.056   2.795
 7879TIP3    H223583   1.242   2.982   2.802
 7880TIP3   OH223584   6.797   7.764   4.078
 7880TIP3    H123585   6.805   7.685   4.131
 7880TIP3    H223586   6.849   7.745   4.000
 7881TIP3   OH223587   6.148   4.045   2.400
 7881TIP3    H123588   6.199   3.964   2.410
 7881TIP3    H223589   6.057   4.018   2.410
 7882TIP3   OH223590   4.568   4.324   4.775
 7882TIP3    H123591   4.645   4.294   4.726
 7882TIP3    H223592   4.548   4.252   4.834
 7883TIP3   OH223593   8.062   0.797   5.927
 7883TIP3    H123594   8.077   0.891   5.930
 7883TIP3    H223595   7.969   0.788   5.905
 7884TIP3   OH223596   8.014   1.448   6.142
 7884TIP3    H123597   8.091   1.392   6.132
 7884TIP3    H223598   8.011   1.499   6.061
 7885TIP3   OH223599   2.615   1.694   1.253
 7885TIP3    H123600   2.700   1.661   1.223
 7885TIP3    H223601   2.599   1.771   1.197
 7886TIP3   OH223602   3.039   0.108   0.427
 7886TIP3    H123603   2.983   0.079   0.354
 7886TIP3    H223604   2.999   0.069   0.504
 7887TIP3   OH223605   5.302   6.384   2.225
 7887TIP3    H123606   5.346   6.468   2.234
 7887TIP3    H223607   5.277   6.379   2.133
 7888TIP3   OH223608   0.602   3.239   3.411
 7888TIP3    H123609   0.575   3.150   3.431
 7888TIP3    H223610   0.585   3.289   3.491
 7889TIP3   OH223611   1.385   0.726   5.291
 7889TIP3    H123612   1.476   0.736   5.265
 7889TIP3    H223613   1.342   0.685   5.216
 7890TIP3   OH223614   2.679   4.617   1.741
 7890TIP3    H123615   2.591   4.645   1.715
 7890TIP3    H223616   2.679   4.523   1.723
 7891TIP3   OH223617   3.273   1.249   6.294
 7891TIP3    H123618   3.311   1.319   6.347
 7891TIP3    H223619   3.180   1.250   6.317
 7892TIP3   OH223620   4.645   3.298   0.285
 7892TIP3    H123621   4.594   3.299   0.204
 7892TIP3    H223622   4.728   3.256   0.260
 7893TIP3   OH223623   1.680   2.993   4.123
 7893TIP3    H123624   1.708   2.909   4.084
 7893TIP3    H223625   1.671   2.974   4.216
 7894TIP3   OH223626   8.133   1.877   5.925
 7894TIP3    H123627   8.185   1.829   5.861
 7894TIP3    H223628   8.166   1.848   6.010
 7895TIP3   OH223629   3.152   5.569   5.928
 7895TIP3    H123630   3.059   5.548   5.921
 7895TIP3    H223631   3.154   5.646   5.986
 7896TIP3   OH223632   3.730   2.174   2.722
 7896TIP3    H123633   3.707   2.215   2.638
 7896TIP3    H223634   3.825   2.159   2.716
 7897TIP3   OH223635   2.477   6.220   5.156
 7897TIP3    H123636   2.428   6.153   5.203
 7897TIP3    H223637   2.413   6.259   5.095
 7898TIP3   OH223638   1.812   0.851   2.745
 7898TIP3    H123639   1.721   0.847   2.773
 7898TIP3    H223640   1.854   0.776   2.787
 7899TIP3   OH223641   7.696   0.769   5.050
 7899TIP3    H123642   7.701   0.680   5.085
 7899TIP3    H223643   7.735   0.763   4.963
 7900TIP3   OH223644   7.521   5.589   4.899
 7900TIP3    H123645   7.548   5.504   4.862
 7900TIP3    H223646   7.440   5.570   4.945
 7901TIP3   OH223647   3.640   0.800   6.664
 7901TIP3    H123648   3.615   0.877   6.613
 7901TIP3    H223649   3.591   0.728   6.624
 7902TIP3   OH223650   2.927   1.481   3.902
 7902TIP3    H123651   2.916   1.407   3.961
 7902TIP3    H223652   2.876   1.552   3.942
 7903TIP3   OH223653   1.674   0.444   6.444
 7903TIP3    H123654   1.616   0.390   6.390
 7903TIP3    H223655   1.618   0.514   6.477
 7904TIP3   OH223656   7.122   3.741   4.626
 7904TIP3    H123657   7.070   3.680   4.679
 7904TIP3    H223658   7.060   3.773   4.560
 7905TIP3   OH223659   6.384   1.825   4.728
 7905TIP3    H123660   6.420   1.883   4.661
 7905TIP3    H223661   6.457   1.767   4.749
 7906TIP3   OH223662   1.248   2.948   6.076
 7906TIP3    H123663   1.228   2.988   6.161
 7906TIP3    H223664   1.335   2.910   6.087
 7907TIP3   OH223665   2.695   3.001   1.159
 7907TIP3    H123666   2.639   2.997   1.081
 7907TIP3    H223667   2.746   2.920   1.156
 7908TIP3   OH223668   0.559   6.291   2.508
 7908TIP3    H123669   0.647   6.327   2.501
 7908TIP3    H223670   0.518   6.342   2.577
 7909TIP3   OH223671   2.224   3.953   6.048
 7909TIP3    H123672   2.159   3.886   6.069
 7909TIP3    H223673   2.251   3.932   5.958
 7910TIP3   OH223674   6.462   4.125   1.938
 7910TIP3    H123675   6.489   4.176   2.014
 7910TIP3    H223676   6.542   4.114   1.887
 7911TIP3   OH223677   5.791   7.189   4.758
 7911TIP3    H123678   5.864   7.149   4.712
 7911TIP3    H223679   5.760   7.258   4.699
 7912TIP3   OH223680   7.659   0.761   3.744
 7912TIP3    H123681   7.745   0.743   3.706
 7912TIP3    H223682   7.678   0.796   3.831
 7913TIP3   OH223683   2.712   0.272   1.552
 7913TIP3    H123684   2.750   0.331   1.617
 7913TIP3    H223685   2.623   0.306   1.537
 7914TIP3   OH223686   7.750   6.028   1.638
 7914TIP3    H123687   7.832   6.055   1.678
 7914TIP3    H223688   7.684   6.085   1.676
 7915TIP3   OH223689   7.769   5.497   4.078
 7915TIP3    H123690   7.763   5.534   3.990
 7915TIP3    H223691   7.691   5.443   4.087
 7916TIP3   OH223692   5.293   1.504   4.495
 7916TIP3    H123693   5.377   1.539   4.526
 7916TIP3    H223694   5.255   1.576   4.444
 7917TIP3   OH223695   6.595   2.893   4.318
 7917TIP3    H123696   6.652   2.960   4.355
 7917TIP3    H223697   6.569   2.839   4.393
 7918TIP3   OH223698   7.791   2.079   0.149
 7918TIP3    H123699   7.840   2.040   0.076
 7918TIP3    H223700   7.700   2.055   0.132
 7919TIP3   OH223701   4.541   4.627   3.261
 7919TIP3    H123702   4.626   4.635   3.304
 7919TIP3    H223703   4.553   4.560   3.194
 7920TIP3   OH223704   3.730   7.143   1.209
 7920TIP3    H123705   3.636   7.160   1.212
 7920TIP3    H223706   3.770   7.224   1.241
 7921TIP3   OH223707   6.370   6.787   5.855
 7921TIP3    H123708   6.449   6.839   5.840
 7921TIP3    H223709   6.394   6.728   5.926
 7922TIP3   OH223710   7.109   7.738   6.215
 7922TIP3    H123711   7.022   7.741   6.255
 7922TIP3    H223712   7.118   7.647   6.186
 7923TIP3   OH223713   7.239   4.179   4.911
 7923TIP3    H123714   7.226   4.200   5.003
 7923TIP3    H223715   7.299   4.247   4.880
 7924TIP3   OH223716   5.175   5.933   6.066
 7924TIP3    H123717   5.118   5.869   6.023
 7924TIP3    H223718   5.116   6.003   6.093
 7925TIP3   OH223719   4.783   3.551   2.852
 7925TIP3    H123720   4.744   3.465   2.865
 7925TIP3    H223721   4.872   3.533   2.822
 7926TIP3   OH223722   7.612   2.029   1.588
 7926TIP3    H123723   7.665   1.960   1.549
 7926TIP3    H223724   7.580   1.991   1.671
 7927TIP3   OH223725   0.817   1.441   0.519
 7927TIP3    H123726   0.822   1.475   0.430
 7927TIP3    H223727   0.902   1.401   0.535
 7928TIP3   OH223728   3.696   0.495   6.374
 7928TIP3    H123729   3.701   0.586   6.344
 7928TIP3    H223730   3.718   0.443   6.297
 7929TIP3   OH223731   2.925   2.372   2.714
 7929TIP3    H123732   2.839   2.405   2.686
 7929TIP3    H223733   2.969   2.348   2.632
 7930TIP3   OH223734   2.578   3.038   3.914
 7930TIP3    H123735   2.561   3.042   4.008
 7930TIP3    H223736   2.566   3.129   3.884
 7931TIP3   OH223737   0.444   1.971   2.637
 7931TIP3    H123738   0.507   1.913   2.680
 7931TIP3    H223739   0.361   1.924   2.642
 7932TIP3   OH223740   6.197   5.755   4.928
 7932TIP3    H123741   6.284   5.771   4.965
 7932TIP3    H223742   6.208   5.765   4.834
 7933TIP3   OH223743   7.484   0.278   6.086
 7933TIP3    H123744   7.485   0.305   5.994
 7933TIP3    H223745   7.541   0.341   6.130
 7934TIP3   OH223746   7.618   0.121   3.889
 7934TIP3    H123747   7.657   0.175   3.820
 7934TIP3    H223748   7.606   0.035   3.847
 7935TIP3   OH223749   5.050   0.365   2.011
 7935TIP3    H123750   5.023   0.305   1.942
 7935TIP3    H223751   5.141   0.384   1.992
 7936TIP3   OH223752   1.974   3.096   1.006
 7936TIP3    H123753   1.903   3.087   0.943
 7936TIP3    H223754   1.995   3.190   1.005
 7937TIP3   OH223755   0.114   6.861   0.559
 7937TIP3    H123756   0.193   6.899   0.520
 7937TIP3    H223757   0.051   6.857   0.487
 7938TIP3   OH223758   0.497   2.290   2.586
 7938TIP3    H123759   0.473   2.283   2.678
 7938TIP3    H223760   0.523   2.201   2.561
 7939TIP3   OH223761   4.289   1.292   3.916
 7939TIP3    H123762   4.351   1.253   3.979
 7939TIP3    H223763   4.213   1.233   3.919
 7940TIP3   OH223764   3.250   7.374   1.974
 7940TIP3    H123765   3.247   7.279   1.986
 7940TIP3    H223766   3.324   7.388   1.915
 7941TIP3   OH223767   4.645   0.607   4.522
 7941TIP3    H123768   4.681   0.576   4.438
 7941TIP3    H223769   4.550   0.603   4.509
 7942TIP3   OH223770   7.082   1.190   1.364
 7942TIP3    H123771   7.122   1.131   1.300
 7942TIP3    H223772   7.142   1.189   1.438
 7943TIP3   OH223773   0.544   0.832   3.307
 7943TIP3    H123774   0.500   0.905   3.263
 7943TIP3    H223775   0.482   0.804   3.375
 7944TIP3   OH223776   3.291   3.055   4.812
 7944TIP3    H123777   3.218   2.994   4.802
 7944TIP3    H223778   3.367   3.006   4.779
 7945TIP3   OH223779   3.348   2.650   4.863
 7945TIP3    H123780   3.395   2.624   4.942
 7945TIP3    H223781   3.286   2.579   4.847
 7946TIP3   OH223782   2.728   2.545   1.254
 7946TIP3    H123783   2.679   2.478   1.302
 7946TIP3    H223784   2.806   2.499   1.221
 7947TIP3   OH223785   4.050   6.580   3.117
 7947TIP3    H123786   4.032   6.629   3.036
 7947TIP3    H223787   4.061   6.489   3.088
 7948TIP3   OH223788   2.625   0.848   3.042
 7948TIP3    H123789   2.649   0.881   3.128
 7948TIP3    H223790   2.632   0.924   2.984
 7949TIP3   OH223791   4.014   5.338   1.333
 7949TIP3    H123792   3.922   5.313   1.342
 7949TIP3    H223793   4.059   5.256   1.313
 7950TIP3   OH223794   1.085   4.212   5.518
 7950TIP3    H123795   1.022   4.164   5.464
 7950TIP3    H223796   1.032   4.277   5.564
 7951TIP3   OH223797   3.883   1.454   2.495
 7951TIP3    H123798   3.843   1.501   2.569
 7951TIP3    H223799   3.897   1.365   2.528
 7952TIP3   OH223800   2.564   6.667   3.144
 7952TIP3    H123801   2.597   6.745   3.190
 7952TIP3    H223802   2.470   6.667   3.162
 7953TIP3   OH223803   6.210   4.694   2.943
 7953TIP3    H123804   6.163   4.702   2.860
 7953TIP3    H223805   6.182   4.771   2.993
 7954TIP3   OH223806   5.131   1.179   4.121
 7954TIP3    H123807   5.171   1.189   4.207
 7954TIP3    H223808   5.041   1.151   4.139
 7955TIP3   OH223809   7.050   7.492   2.070
 7955TIP3    H123810   7.131   7.534   2.099
 7955TIP3    H223811   7.072   7.452   1.986
 7956TIP3   OH223812   7.198   3.346   3.715
 7956TIP3    H123813   7.133   3.315   3.779
 7956TIP3    H223814   7.151   3.414   3.665
 7957TIP3   OH223815   8.214   4.412   1.329
 7957TIP3    H123816   8.309   4.422   1.317
 7957TIP3    H223817   8.204   4.330   1.377
 7958TIP3   OH223818   1.435   5.116   4.542
 7958TIP3    H123819   1.402   5.204   4.522
 7958TIP3    H223820   1.467   5.122   4.632
 7959TIP3   OH223821   5.526   6.338   6.737
 7959TIP3    H123822   5.554   6.417   6.690
 7959TIP3    H223823   5.478   6.371   6.812
 7960TIP3   OH223824   4.909   6.259   3.656
 7960TIP3    H123825   4.854   6.181   3.647
 7960TIP3    H223826   4.947   6.250   3.744
 7961TIP3   OH223827   6.035   1.749   0.204
 7961TIP3    H123828   6.129   1.759   0.185
 7961TIP3    H223829   6.019   1.655   0.196
 7962TIP3   OH223830   1.378   1.734   2.210
 7962TIP3    H123831   1.370   1.651   2.162
 7962TIP3    H223832   1.460   1.726   2.258
 7963TIP3   OH223833   5.323   6.889   3.296
 7963TIP3    H123834   5.363   6.906   3.210
 7963TIP3    H223835   5.363   6.807   3.325
 7964TIP3   OH223836   1.015   2.492   2.855
 7964TIP3    H123837   0.955   2.483   2.930
 7964TIP3    H223838   0.966   2.457   2.781
 7965TIP3   OH223839   3.277   6.584   5.328
 7965TIP3    H123840   3.311   6.553   5.244
 7965TIP3    H223841   3.243   6.672   5.310
 7966TIP3   OH223842   3.680   0.338   2.205
 7966TIP3    H123843   3.771   0.327   2.232
 7966TIP3    H223844   3.630   0.325   2.286
 7967TIP3   OH223845   5.105   0.473   3.636
 7967TIP3    H123846   5.011   0.480   3.616
 7967TIP3    H223847   5.140   0.560   3.616
 7968TIP3   OH223848   5.387   6.265   2.621
 7968TIP3    H123849   5.293   6.276   2.605
 7968TIP3    H223850   5.411   6.188   2.570
 7969TIP3   OH223851   5.581   7.396   1.163
 7969TIP3    H123852   5.639   7.331   1.203
 7969TIP3    H223853   5.522   7.422   1.234
 7970TIP3   OH223854   6.052   3.043   3.030
 7970TIP3    H123855   5.992   2.973   3.003
 7970TIP3    H223856   5.995   3.118   3.047
 7971TIP3   OH223857   3.197   3.996   6.187
 7971TIP3    H123858   3.112   4.034   6.207
 7971TIP3    H223859   3.251   4.070   6.160
 7972TIP3   OH223860   0.650   1.142   0.524
 7972TIP3    H123861   0.719   1.207   0.509
 7972TIP3    H223862   0.680   1.064   0.477
 7973TIP3   OH223863   3.618   3.591   2.173
 7973TIP3    H123864   3.681   3.597   2.246
 7973TIP3    H223865   3.550   3.655   2.195
 7974TIP3   OH223866   7.872   0.218   5.142
 7974TIP3    H123867   7.925   0.267   5.204
 7974TIP3    H223868   7.862   0.131   5.181
 7975TIP3   OH223869   3.825   3.400   0.103
 7975TIP3    H123870   3.810   3.307   0.120
 7975TIP3    H223871   3.893   3.425   0.165
 7976TIP3   OH223872   1.442   2.873   5.182
 7976TIP3    H123873   1.433   2.897   5.274
 7976TIP3    H223874   1.485   2.788   5.183
 7977TIP3   OH223875   2.842   4.513   4.674
 7977TIP3    H123876   2.785   4.481   4.744
 7977TIP3    H223877   2.908   4.565   4.719
 7978TIP3   OH223878   0.086   6.945   6.368
 7978TIP3    H123879   0.100   7.008   6.297
 7978TIP3    H223880   0.173   6.917   6.394
 7979TIP3   OH223881   4.848   1.377   2.388
 7979TIP3    H123882   4.915   1.400   2.324
 7979TIP3    H223883   4.810   1.296   2.354
 7980TIP3   OH223884   0.689   7.457   2.672
 7980TIP3    H123885   0.783   7.471   2.660
 7980TIP3    H223886   0.683   7.377   2.725
 7981TIP3   OH223887   0.028   3.795   0.403
 7981TIP3    H123888  -0.027   3.849   0.459
 7981TIP3    H223889   0.044   3.716   0.454
 7982TIP3   OH223890   2.868   1.319   4.533
 7982TIP3    H123891   2.950   1.271   4.542
 7982TIP3    H223892   2.889   1.392   4.474
 7983TIP3   OH223893   6.140   2.803   1.057
 7983TIP3    H123894   6.126   2.867   0.987
 7983TIP3    H223895   6.178   2.727   1.012
 7984TIP3   OH223896   3.722   2.006   6.479
 7984TIP3    H123897   3.800   1.970   6.436
 7984TIP3    H223898   3.743   2.005   6.572
 7985TIP3   OH223899   6.487   3.653   4.418
 7985TIP3    H123900   6.403   3.685   4.450
 7985TIP3    H223901   6.531   3.731   4.385
 7986TIP3   OH223902   3.708   4.340   3.683
 7986TIP3    H123903   3.782   4.390   3.650
 7986TIP3    H223904   3.704   4.361   3.776
 7987TIP3   OH223905   6.130   1.294   5.823
 7987TIP3    H123906   6.097   1.360   5.884
 7987TIP3    H223907   6.051   1.254   5.786
 7988TIP3   OH223908   6.678   6.657   0.762
 7988TIP3    H123909   6.723   6.573   0.749
 7988TIP3    H223910   6.640   6.650   0.850
 7989TIP3   OH223911   6.509   6.440   2.980
 7989TIP3    H123912   6.432   6.419   2.926
 7989TIP3    H223913   6.520   6.534   2.969
 7990TIP3   OH223914   5.864   7.800   0.873
 7990TIP3    H123915   5.826   7.868   0.818
 7990TIP3    H223916   5.896   7.846   0.951
 7991TIP3   OH223917   2.700   7.094   3.537
 7991TIP3    H123918   2.699   7.046   3.620
 7991TIP3    H223919   2.616   7.075   3.497
 7992TIP3   OH223920   4.285   2.830   3.412
 7992TIP3    H123921   4.286   2.809   3.318
 7992TIP3    H223922   4.272   2.924   3.415
 7993TIP3   OH223923   6.143   0.383   5.062
 7993TIP3    H123924   6.053   0.352   5.050
 7993TIP3    H223925   6.134   0.469   5.102
 7994TIP3   OH223926   7.510   2.128   4.124
 7994TIP3    H123927   7.443   2.195   4.141
 7994TIP3    H223928   7.501   2.066   4.196
 7995TIP3   OH223929   6.892   0.137   0.520
 7995TIP3    H123930   6.874   0.074   0.451
 7995TIP3    H223931   6.858   0.096   0.599
 7996TIP3   OH223932   1.362   0.940   5.621
 7996TIP3    H123933   1.336   1.003   5.688
 7996TIP3    H223934   1.430   0.985   5.571
 7997TIP3   OH223935   6.967   6.049   2.922
 7997TIP3    H123936   7.062   6.055   2.922
 7997TIP3    H223937   6.947   5.985   2.990
 7998TIP3   OH223938   2.527   2.379   3.251
 7998TIP3    H123939   2.432   2.387   3.238
 7998TIP3    H223940   2.540   2.402   3.343
 7999TIP3   OH223941   4.377   6.297   2.465
 7999TIP3    H123942   4.402   6.282   2.374
 7999TIP3    H223943   4.281   6.301   2.463
 8000TIP3   OH223944   4.313   2.820   4.635
 8000TIP3    H123945   4.309   2.887   4.567
 8000TIP3    H223946   4.308   2.737   4.587
 8001TIP3   OH223947   7.871   6.284   6.088
 8001TIP3    H123948   7.892   6.294   5.995
 8001TIP3    H223949   7.956   6.286   6.132
 8002TIP3   OH223950   2.974   7.704   6.352
 8002TIP3    H123951   2.988   7.611   6.373
 8002TIP3    H223952   3.056   7.747   6.375
 8003TIP3   OH223953   1.791   4.045   3.136
 8003TIP3    H123954   1.717   4.026   3.078
 8003TIP3    H223955   1.754   4.096   3.207
 8004TIP3   OH223956   1.177   1.492   3.526
 8004TIP3    H123957   1.162   1.546   3.604
 8004TIP3    H223958   1.226   1.417   3.558
 8005TIP3   OH223959   4.807   0.941   6.699
 8005TIP3    H123960   4.762   0.975   6.776
 8005TIP3    H223961   4.879   0.889   6.734
 8006TIP3   OH223962   4.790   7.284   2.596
 8006TIP3    H123963   4.748   7.210   2.551
 8006TIP3    H223964   4.718   7.329   2.640
 8007TIP3   OH223965   0.726   4.298   6.603
 8007TIP3    H123966   0.660   4.252   6.552
 8007TIP3    H223967   0.798   4.313   6.542
 8008TIP3   OH223968   1.591   5.969   2.142
 8008TIP3    H123969   1.513   5.960   2.087
 8008TIP3    H223970   1.614   6.061   2.136
 8009TIP3   OH223971   1.793   0.564   4.286
 8009TIP3    H123972   1.786   0.620   4.364
 8009TIP3    H223973   1.765   0.620   4.214
 8010TIP3   OH223974   7.449   6.590   4.438
 8010TIP3    H123975   7.492   6.655   4.383
 8010TIP3    H223976   7.359   6.586   4.405
 8011TIP3   OH223977   0.015   2.639   0.125
 8011TIP3    H123978   0.054   2.685   0.199
 8011TIP3    H223979  -0.078   2.664   0.127
 8012TIP3   OH223980   6.547   6.863   6.666
 8012TIP3    H123981   6.621   6.893   6.613
 8012TIP3    H223982   6.509   6.790   6.617
 8013TIP3   OH223983   7.841   0.482   2.210
 8013TIP3    H123984   7.850   0.575   2.230
 8013TIP3    H223985   7.763   0.454   2.258
 8014TIP3   OH223986   7.177   4.044   0.553
 8014TIP3    H123987   7.270   4.050   0.576
 8014TIP3    H223988   7.132   4.032   0.637
 8015TIP3   OH223989   2.248   5.812   2.382
 8015TIP3    H123990   2.214   5.735   2.426
 8015TIP3    H223991   2.176   5.875   2.384
 8016TIP3   OH223992   8.277   3.772   2.227
 8016TIP3    H123993   8.234   3.841   2.277
 8016TIP3    H223994   8.280   3.697   2.287
 8017TIP3   OH223995   6.576   0.314   5.655
 8017TIP3    H123996   6.602   0.397   5.616
 8017TIP3    H223997   6.634   0.249   5.615
 8018TIP3   OH223998   1.508   2.851   2.832
 8018TIP3    H123999   1.458   2.840   2.751
 8018TIP3    H224000   1.552   2.767   2.844
 8019TIP3   OH224001   8.166   4.828   5.976
 8019TIP3    H124002   8.185   4.919   5.999
 8019TIP3    H224003   8.251   4.790   5.953
 8020TIP3   OH224004   3.569   6.859   3.331
 8020TIP3    H124005   3.536   6.944   3.301
 8020TIP3    H224006   3.492   6.801   3.328
 8021TIP3   OH224007   0.434   6.266   6.613
 8021TIP3    H124008   0.400   6.219   6.689
 8021TIP3    H224009   0.402   6.356   6.625
 8022TIP3   OH224010   6.539   2.054   4.018
 8022TIP3    H124011   6.512   2.088   3.932
 8022TIP3    H224012   6.558   1.962   4.002
 8023TIP3   OH224013   6.009   4.809   4.212
 8023TIP3    H124014   6.075   4.763   4.263
 8023TIP3    H224015   5.931   4.753   4.216
 8024TIP3   OH224016   1.595   0.443   3.946
 8024TIP3    H124017   1.659   0.373   3.962
 8024TIP3    H224018   1.641   0.523   3.970
 8025TIP3   OH224019   6.116   1.032   4.339
 8025TIP3    H124020   6.127   1.072   4.253
 8025TIP3    H224021   6.184   0.965   4.343
 8026TIP3   OH224022   7.514   4.539   1.913
 8026TIP3    H124023   7.567   4.567   1.838
 8026TIP3    H224024   7.569   4.555   1.989
 8027TIP3   OH224025   0.535   1.324   1.507
 8027TIP3    H124026   0.525   1.278   1.424
 8027TIP3    H224027   0.589   1.400   1.486
 8028TIP3   OH224028   2.554   7.790   1.075
 8028TIP3    H124029   2.542   7.797   1.170
 8028TIP3    H224030   2.485   7.728   1.047
 8029TIP3   OH224031   4.412   0.937   2.756
 8029TIP3    H124032   4.382   0.846   2.760
 8029TIP3    H224033   4.334   0.987   2.732
 8030TIP3   OH224034   4.186   5.564   5.874
 8030TIP3    H124035   4.244   5.554   5.949
 8030TIP3    H224036   4.114   5.619   5.906
 8031TIP3   OH224037   3.047   2.668   2.027
 8031TIP3    H124038   3.120   2.694   2.084
 8031TIP3    H224039   3.048   2.732   1.956
 8032TIP3   OH224040   3.726   5.584   4.044
 8032TIP3    H124041   3.778   5.627   4.112
 8032TIP3    H224042   3.791   5.541   3.988
 8033TIP3   OH224043   5.104   2.398   3.121
 8033TIP3    H124044   5.041   2.403   3.049
 8033TIP3    H224045   5.170   2.335   3.092
 8034TIP3   OH224046   4.045   5.353   5.327
 8034TIP3    H124047   4.004   5.371   5.242
 8034TIP3    H224048   3.971   5.334   5.385
 8035TIP3   OH224049   5.660   7.142   1.324
 8035TIP3    H124050   5.736   7.197   1.342
 8035TIP3    H224051   5.595   7.167   1.390
 8036TIP3   OH224052   5.946   2.880   4.696
 8036TIP3    H124053   6.023   2.937   4.686
 8036TIP3    H224054   5.907   2.907   4.779
 8037TIP3   OH224055   3.622   7.031   5.516
 8037TIP3    H124056   3.557   7.094   5.547
 8037TIP3    H224057   3.580   6.946   5.525
 8038TIP3   OH224058   3.489   2.325   5.649
 8038TIP3    H124059   3.573   2.321   5.603
 8038TIP3    H224060   3.435   2.260   5.605
 8039TIP3   OH224061   3.360   6.681   2.641
 8039TIP3    H124062   3.418   6.606   2.629
 8039TIP3    H224063   3.293   6.671   2.573
 8040TIP3   OH224064   5.508   0.208   0.531
 8040TIP3    H124065   5.425   0.226   0.573
 8040TIP3    H224066   5.515   0.113   0.532
 8041TIP3   OH224067   6.095   4.173   4.767
 8041TIP3    H124068   6.110   4.174   4.861
 8041TIP3    H224069   6.020   4.231   4.754
 8042TIP3   OH224070   8.180   3.377   1.170
 8042TIP3    H124071   8.220   3.297   1.135
 8042TIP3    H224072   8.191   3.441   1.100
 8043TIP3   OH224073   6.264   4.431   1.110
 8043TIP3    H124074   6.171   4.455   1.105
 8043TIP3    H224075   6.281   4.384   1.029
 8044TIP3   OH224076   5.519   6.274   2.902
 8044TIP3    H124077   5.466   6.245   2.828
 8044TIP3    H224078   5.607   6.286   2.864
 8045TIP3   OH224079   4.584   4.436   6.231
 8045TIP3    H124080   4.588   4.429   6.327
 8045TIP3    H224081   4.528   4.363   6.204
 8046TIP3   OH224082   7.989   3.997   0.313
 8046TIP3    H124083   8.027   3.981   0.399
 8046TIP3    H224084   7.929   4.070   0.326
 8047TIP3   OH224085   1.451   4.380   4.739
 8047TIP3    H124086   1.476   4.429   4.661
 8047TIP3    H224087   1.357   4.365   4.730
 8048TIP3   OH224088   0.461   6.152   2.815
 8048TIP3    H124089   0.394   6.084   2.807
 8048TIP3    H224090   0.544   6.103   2.820
 8049TIP3   OH224091   3.051   1.682   2.244
 8049TIP3    H124092   2.998   1.755   2.277
 8049TIP3    H224093   3.063   1.625   2.320
 8050TIP3   OH224094   2.667   4.797   0.918
 8050TIP3    H124095   2.593   4.763   0.869
 8050TIP3    H224096   2.630   4.829   1.000
 8051TIP3   OH224097   2.105   5.216   0.152
 8051TIP3    H124098   2.016   5.243   0.175
 8051TIP3    H224099   2.102   5.202   0.058
 8052TIP3   OH224100   3.883   0.960   2.737
 8052TIP3    H124101   3.882   1.025   2.807
 8052TIP3    H224102   3.800   0.974   2.690
 8053TIP3   OH224103   1.330   0.272   4.396
 8053TIP3    H124104   1.304   0.277   4.304
 8053TIP3    H224105   1.394   0.343   4.407
 8054TIP3   OH224106   8.179   2.424   0.423
 8054TIP3    H124107   8.185   2.518   0.407
 8054TIP3    H224108   8.227   2.384   0.350
 8055TIP3   OH224109   4.590   5.102   1.771
 8055TIP3    H124110   4.621   5.186   1.805
 8055TIP3    H224111   4.581   5.116   1.677
 8056TIP3   OH224112   6.836   3.506   0.395
 8056TIP3    H124113   6.829   3.600   0.382
 8056TIP3    H224114   6.750   3.472   0.371
 8057TIP3   OH224115   6.059   0.883   1.339
 8057TIP3    H124116   6.027   0.823   1.272
 8057TIP3    H224117   5.979   0.922   1.376
 8058TIP3   OH224118   4.555   4.324   2.036
 8058TIP3    H124119   4.628   4.385   2.026
 8058TIP3    H224120   4.591   4.251   2.088
 8059TIP3   OH224121   4.049   2.830   0.025
 8059TIP3    H124122   4.125   2.841   0.081
 8059TIP3    H224123   4.083   2.786  -0.054
 8060TIP3   OH224124   3.223   1.237   0.315
 8060TIP3    H124125   3.265   1.196   0.391
 8060TIP3    H224126   3.191   1.321   0.348
 8061TIP3   OH224127   1.194   5.798   1.857
 8061TIP3    H124128   1.177   5.705   1.842
 8061TIP3    H224129   1.123   5.843   1.811
 8062TIP3   OH224130   3.479   5.449   5.606
 8062TIP3    H124131   3.572   5.466   5.616
 8062TIP3    H224132   3.436   5.521   5.653
 8063TIP3   OH224133   7.819   3.842   2.844
 8063TIP3    H124134   7.871   3.899   2.788
 8063TIP3    H224135   7.743   3.895   2.869
 8064TIP3   OH224136   1.555   7.791   4.225
 8064TIP3    H124137   1.513   7.716   4.182
 8064TIP3    H224138   1.559   7.858   4.157
 8065TIP3   OH224139   5.404   3.239   1.128
 8065TIP3    H124140   5.470   3.303   1.104
 8065TIP3    H224141   5.448   3.183   1.193
 8066TIP3   OH224142   7.452   2.596   2.109
 8066TIP3    H124143   7.400   2.535   2.161
 8066TIP3    H224144   7.508   2.540   2.055
 8067TIP3   OH224145   5.919   6.452   5.376
 8067TIP3    H124146   6.000   6.403   5.389
 8067TIP3    H224147   5.948   6.543   5.370
 8068TIP3   OH224148   7.108   4.668   2.485
 8068TIP3    H124149   7.137   4.627   2.404
 8068TIP3    H224150   7.020   4.699   2.467
 8069TIP3   OH224151   3.013   2.092   6.112
 8069TIP3    H124152   3.000   2.011   6.161
 8069TIP3    H224153   2.945   2.090   6.044
 8070TIP3   OH224154   7.405   1.042   2.849
 8070TIP3    H124155   7.378   0.951   2.856
 8070TIP3    H224156   7.425   1.054   2.756
 8071TIP3   OH224157   2.864   6.098   1.891
 8071TIP3    H124158   2.848   6.090   1.985
 8071TIP3    H224159   2.833   6.016   1.853
 8072TIP3   OH224160   1.864   2.386   5.480
 8072TIP3    H124161   1.868   2.425   5.392
 8072TIP3    H224162   1.952   2.353   5.496
 8073TIP3   OH224163   4.864   1.691   4.037
 8073TIP3    H124164   4.923   1.619   4.018
 8073TIP3    H224165   4.796   1.685   3.970
 8074TIP3   OH224166   2.064   4.014   4.835
 8074TIP3    H124167   2.106   3.955   4.772
 8074TIP3    H224168   1.984   4.042   4.790
 8075TIP3   OH224169   8.270   1.245   0.661
 8075TIP3    H124170   8.206   1.196   0.712
 8075TIP3    H224171   8.230   1.253   0.574
 8076TIP3   OH224172   7.403   3.249   4.752
 8076TIP3    H124173   7.418   3.171   4.698
 8076TIP3    H224174   7.395   3.321   4.690
 8077TIP3   OH224175   6.056   4.626   6.513
 8077TIP3    H124176   6.019   4.702   6.468
 8077TIP3    H224177   6.147   4.650   6.530
 8078TIP3   OH224178   7.723   1.052   0.272
 8078TIP3    H124179   7.723   0.968   0.318
 8078TIP3    H224180   7.815   1.077   0.266
 8079TIP3   OH224181   6.127   2.350   3.905
 8079TIP3    H124182   6.211   2.396   3.901
 8079TIP3    H224183   6.095   2.351   3.815
 8080TIP3   OH224184   3.352   0.942   2.245
 8080TIP3    H124185   3.397   0.897   2.316
 8080TIP3    H224186   3.259   0.933   2.266
 8081TIP3   OH224187   7.803   6.795   2.958
 8081TIP3    H124188   7.762   6.735   2.895
 8081TIP3    H224189   7.840   6.865   2.904
 8082TIP3   OH224190   5.536   7.037   1.893
 8082TIP3    H124191   5.509   6.947   1.910
 8082TIP3    H224192   5.632   7.033   1.891
 8083TIP3   OH224193   5.727   6.836   0.915
 8083TIP3    H124194   5.814   6.806   0.940
 8083TIP3    H224195   5.714   6.917   0.964
 8084TIP3   OH224196   5.601   3.764   0.094
 8084TIP3    H124197   5.596   3.708   0.172
 8084TIP3    H224198   5.526   3.823   0.102
 8085TIP3   OH224199   6.383   6.953   0.170
 8085TIP3    H124200   6.388   6.859   0.188
 8085TIP3    H224201   6.291   6.975   0.186
 8086TIP3   OH224202   5.738   6.627   4.803
 8086TIP3    H124203   5.756   6.688   4.874
 8086TIP3    H224204   5.821   6.582   4.787
 8087TIP3   OH224205   3.092   5.404   4.792
 8087TIP3    H124206   3.042   5.337   4.745
 8087TIP3    H224207   3.040   5.423   4.870
 8088TIP3   OH224208   2.516   7.312   4.884
 8088TIP3    H124209   2.598   7.360   4.875
 8088TIP3    H224210   2.482   7.340   4.970
 8089TIP3   OH224211   5.483   2.141   6.303
 8089TIP3    H124212   5.401   2.174   6.266
 8089TIP3    H224213   5.499   2.197   6.379
 8090TIP3   OH224214   4.725   3.034   2.209
 8090TIP3    H124215   4.795   2.969   2.206
 8090TIP3    H224216   4.661   3.003   2.145
 8091TIP3   OH224217   3.484   5.863   5.099
 8091TIP3    H124218   3.465   5.774   5.068
 8091TIP3    H224219   3.519   5.908   5.022
 8092TIP3   OH224220   7.573   4.005   2.660
 8092TIP3    H124221   7.517   3.934   2.629
 8092TIP3    H224222   7.559   4.007   2.755
 8093TIP3   OH224223   5.681   3.573   4.947
 8093TIP3    H124224   5.589   3.598   4.937
 8093TIP3    H224225   5.711   3.556   4.858
 8094TIP3   OH224226   0.777   2.616   3.593
 8094TIP3    H124227   0.740   2.541   3.640
 8094TIP3    H224228   0.743   2.607   3.504
 8095TIP3   OH224229   2.643   0.390   0.062
 8095TIP3    H124230   2.696   0.413   0.139
 8095TIP3    H224231   2.567   0.447   0.067
 8096TIP3   OH224232   6.624   2.734   5.391
 8096TIP3    H124233   6.706   2.773   5.420
 8096TIP3    H224234   6.627   2.643   5.423
 8097TIP3   OH224235   2.798   3.732   5.054
 8097TIP3    H124236   2.850   3.655   5.031
 8097TIP3    H224237   2.795   3.731   5.150
 8098TIP3   OH224238   3.841   2.759   0.493
 8098TIP3    H124239   3.794   2.829   0.447
 8098TIP3    H224240   3.870   2.700   0.424
 8099TIP3   OH224241   6.382   6.089   4.395
 8099TIP3    H124242   6.305   6.143   4.407
 8099TIP3    H224243   6.403   6.056   4.483
 8100TIP3   OH224244   0.979   1.183   1.595
 8100TIP3    H124245   1.040   1.141   1.535
 8100TIP3    H224246   0.978   1.275   1.567
 8101TIP3   OH224247   2.354   3.301   4.225
 8101TIP3    H124248   2.314   3.222   4.260
 8101TIP3    H224249   2.419   3.270   4.162
 8102TIP3   OH224250   2.641   4.780   1.450
 8102TIP3    H124251   2.638   4.861   1.399
 8102TIP3    H224252   2.679   4.715   1.391
 8103TIP3   OH224253   0.079   1.424   4.742
 8103TIP3    H124254   0.034   1.339   4.744
 8103TIP3    H224255   0.116   1.434   4.830
 8104TIP3   OH224256   4.454   6.542   4.138
 8104TIP3    H124257   4.391   6.614   4.130
 8104TIP3    H224258   4.519   6.560   4.069
 8105TIP3   OH224259   4.008   4.714   4.290
 8105TIP3    H124260   4.025   4.626   4.323
 8105TIP3    H224261   3.960   4.758   4.360
 8106TIP3   OH224262   0.441   4.161   2.447
 8106TIP3    H124263   0.513   4.136   2.506
 8106TIP3    H224264   0.478   4.152   2.359
 8107TIP3   OH224265   0.848   5.819   3.240
 8107TIP3    H124266   0.935   5.820   3.281
 8107TIP3    H224267   0.788   5.842   3.311
 8108TIP3   OH224268   3.508   6.183   4.648
 8108TIP3    H124269   3.451   6.153   4.718
 8108TIP3    H224270   3.504   6.114   4.582
 8109TIP3   OH224271   5.659   7.025   2.619
 8109TIP3    H124272   5.596   7.044   2.550
 8109TIP3    H224273   5.613   6.965   2.677
 8110TIP3   OH224274   5.859   4.652   3.298
 8110TIP3    H124275   5.935   4.614   3.343
 8110TIP3    H224276   5.800   4.678   3.369
 8111TIP3   OH224277   1.603   4.741   3.589
 8111TIP3    H124278   1.539   4.792   3.539
 8111TIP3    H224279   1.551   4.673   3.633
 8112TIP3   OH224280   0.414   5.313   3.356
 8112TIP3    H124281   0.490   5.347   3.403
 8112TIP3    H224282   0.423   5.217   3.363
 8113TIP3   OH224283   5.172   2.752   4.496
 8113TIP3    H124284   5.098   2.767   4.555
 8113TIP3    H224285   5.132   2.725   4.414
 8114TIP3   OH224286   1.571   2.979   1.663
 8114TIP3    H124287   1.664   2.971   1.685
 8114TIP3    H224288   1.559   2.920   1.588
 8115TIP3   OH224289   7.510   2.947   0.059
 8115TIP3    H124290   7.554   3.028   0.082
 8115TIP3    H224291   7.450   2.930   0.132
 8116TIP3   OH224292   0.216   6.608   4.742
 8116TIP3    H124293   0.132   6.561   4.743
 8116TIP3    H224294   0.209   6.668   4.668
 8117TIP3   OH224295   2.985   1.905   4.517
 8117TIP3    H124296   3.054   1.874   4.459
 8117TIP3    H224297   3.013   1.878   4.604
 8118TIP3   OH224298   0.951   1.591   6.088
 8118TIP3    H124299   1.016   1.572   6.156
 8118TIP3    H224300   0.995   1.569   6.006
 8119TIP3   OH224301   0.223   1.938   0.894
 8119TIP3    H124302   0.210   1.967   0.984
 8119TIP3    H224303   0.140   1.897   0.869
 8120TIP3   OH224304   0.597   4.857   2.124
 8120TIP3    H124305   0.502   4.859   2.118
 8120TIP3    H224306   0.617   4.775   2.169
 8121TIP3   OH224307   0.219   7.713   6.330
 8121TIP3    H124308   0.159   7.693   6.403
 8121TIP3    H224309   0.252   7.628   6.303
 8122TIP3   OH224310   0.980   4.412   3.535
 8122TIP3    H124311   0.889   4.381   3.533
 8122TIP3    H224312   1.017   4.373   3.614
 8123TIP3   OH224313   7.374   5.824   5.596
 8123TIP3    H124314   7.280   5.817   5.577
 8123TIP3    H224315   7.385   5.914   5.627
 8124TIP3   OH224316   5.634   7.680   3.643
 8124TIP3    H124317   5.629   7.626   3.564
 8124TIP3    H224318   5.557   7.654   3.695
 8125TIP3   OH224319   2.120   4.453   3.205
 8125TIP3    H124320   2.027   4.463   3.229
 8125TIP3    H224321   2.128   4.361   3.181
 8126TIP3   OH224322   4.805   4.470   2.079
 8126TIP3    H124323   4.747   4.546   2.074
 8126TIP3    H224324   4.858   4.486   2.158
 8127TIP3   OH224325   1.775   4.292   6.140
 8127TIP3    H124326   1.748   4.204   6.163
 8127TIP3    H224327   1.695   4.345   6.148
 8128TIP3   OH224328   7.174   2.334   1.263
 8128TIP3    H124329   7.220   2.259   1.226
 8128TIP3    H224330   7.083   2.322   1.237
 8129TIP3   OH224331   6.277   5.682   6.150
 8129TIP3    H124332   6.295   5.643   6.235
 8129TIP3    H224333   6.324   5.766   6.152
 8130TIP3   OH224334   2.127   2.999   6.132
 8130TIP3    H124335   2.053   2.956   6.088
 8130TIP3    H224336   2.116   2.976   6.224
 8131TIP3   OH224337   7.516   0.435   2.277
 8131TIP3    H124338   7.485   0.460   2.364
 8131TIP3    H224339   7.450   0.374   2.245
 8132TIP3   OH224340   7.367   5.087   6.246
 8132TIP3    H124341   7.349   4.994   6.237
 8132TIP3    H224342   7.429   5.093   6.318
 8133TIP3   OH224343   5.499   1.343   4.722
 8133TIP3    H124344   5.498   1.379   4.811
 8133TIP3    H224345   5.533   1.254   4.733
 8134TIP3   OH224346   2.320   6.792   1.351
 8134TIP3    H124347   2.400   6.762   1.308
 8134TIP3    H224348   2.263   6.715   1.353
 8135TIP3   OH224349   6.347   7.555   1.305
 8135TIP3    H124350   6.325   7.633   1.253
 8135TIP3    H224351   6.363   7.588   1.393
 8136TIP3   OH224352   2.406   4.688   4.784
 8136TIP3    H124353   2.443   4.777   4.783
 8136TIP3    H224354   2.393   4.669   4.877
 8137TIP3   OH224355   4.264   0.535   5.771
 8137TIP3    H124356   4.229   0.483   5.844
 8137TIP3    H224357   4.223   0.498   5.693
 8138TIP3   OH224358   2.992   7.719   5.237
 8138TIP3    H124359   3.046   7.790   5.201
 8138TIP3    H224360   2.902   7.747   5.222
 8139TIP3   OH224361   0.425   1.898   4.480
 8139TIP3    H124362   0.500   1.843   4.503
 8139TIP3    H224363   0.402   1.942   4.562
 8140TIP3   OH224364   1.976   4.396   3.869
 8140TIP3    H124365   2.068   4.375   3.886
 8140TIP3    H224366   1.938   4.314   3.837
 8141TIP3   OH224367   7.837   2.357   2.333
 8141TIP3    H124368   7.895   2.390   2.401
 8141TIP3    H224369   7.823   2.265   2.356
 8142TIP3   OH224370   7.959   4.303   2.286
 8142TIP3    H124371   7.880   4.270   2.327
 8142TIP3    H224372   7.929   4.369   2.224
 8143TIP3   OH224373   7.558   3.803   0.940
 8143TIP3    H124374   7.504   3.814   0.862
 8143TIP3    H224375   7.609   3.724   0.923
 8144TIP3   OH224376   0.907   4.149   4.987
 8144TIP3    H124377   0.849   4.126   5.059
 8144TIP3    H224378   0.880   4.093   4.914
 8145TIP3   OH224379   3.294   6.263   2.093
 8145TIP3    H124380   3.225   6.207   2.129
 8145TIP3    H224381   3.335   6.210   2.025
 8146TIP3   OH224382   5.738   6.347   4.047
 8146TIP3    H124383   5.794   6.422   4.069
 8146TIP3    H224384   5.652   6.385   4.033
 8147TIP3   OH224385   2.582   6.804   1.125
 8147TIP3    H124386   2.509   6.865   1.111
 8147TIP3    H224387   2.659   6.859   1.130
 8148TIP3   OH224388   0.349   0.768   1.170
 8148TIP3    H124389   0.301   0.818   1.235
 8148TIP3    H224390   0.283   0.747   1.103
 8149TIP3   OH224391   2.475   4.771   3.993
 8149TIP3    H124392   2.510   4.825   4.065
 8149TIP3    H224393   2.394   4.734   4.029
 8150TIP3   OH224394   3.817   2.998   3.905
 8150TIP3    H124395   3.738   2.949   3.928
 8150TIP3    H224396   3.819   2.994   3.809
 8151TIP3   OH224397   2.459   0.873   1.976
 8151TIP3    H124398   2.413   0.824   1.908
 8151TIP3    H224399   2.551   0.867   1.951
 8152TIP3   OH224400   5.357   6.744   4.051
 8152TIP3    H124401   5.393   6.818   4.100
 8152TIP3    H224402   5.305   6.696   4.115
 8153TIP3   OH224403   4.317   1.719   2.414
 8153TIP3    H124404   4.393   1.716   2.472
 8153TIP3    H224405   4.275   1.802   2.434
 8154TIP3   OH224406   5.595   1.795   5.300
 8154TIP3    H124407   5.569   1.869   5.245
 8154TIP3    H224408   5.677   1.822   5.340
 8155TIP3   OH224409   1.266   2.800   3.971
 8155TIP3    H124410   1.200   2.821   4.037
 8155TIP3    H224411   1.215   2.764   3.897
 8156TIP3   OH224412   2.086   3.270   5.393
 8156TIP3    H124413   2.010   3.322   5.367
 8156TIP3    H224414   2.155   3.297   5.333
 8157TIP3   OH224415   6.641   7.127   3.624
 8157TIP3    H124416   6.563   7.132   3.680
 8157TIP3    H224417   6.607   7.101   3.538
 8158TIP3   OH224418   2.304   3.196   2.351
 8158TIP3    H124419   2.318   3.274   2.297
 8158TIP3    H224420   2.388   3.151   2.350
 8159TIP3   OH224421   6.394   5.569   2.371
 8159TIP3    H124422   6.370   5.502   2.435
 8159TIP3    H224423   6.391   5.651   2.420
 8160TIP3   OH224424   0.178   3.313   0.660
 8160TIP3    H124425   0.187   3.346   0.749
 8160TIP3    H224426   0.264   3.277   0.639
 8161TIP3   OH224427   7.824   2.318   3.787
 8161TIP3    H124428   7.777   2.262   3.849
 8161TIP3    H224429   7.820   2.270   3.704
 8162TIP3   OH224430   1.245   2.847   4.972
 8162TIP3    H124431   1.166   2.881   5.014
 8162TIP3    H224432   1.316   2.873   5.029
 8163TIP3   OH224433   6.674   4.431   3.207
 8163TIP3    H124434   6.730   4.509   3.216
 8163TIP3    H224435   6.690   4.380   3.286
 8164TIP3   OH224436   3.219   2.589   2.535
 8164TIP3    H124437   3.302   2.576   2.489
 8164TIP3    H224438   3.171   2.508   2.519
 8165TIP3   OH224439   1.442   1.224   3.675
 8165TIP3    H124440   1.508   1.185   3.732
 8165TIP3    H224441   1.392   1.282   3.733
 8166TIP3   OH224442   1.878   2.213   3.642
 8166TIP3    H124443   1.829   2.278   3.592
 8166TIP3    H224444   1.876   2.134   3.587
 8167TIP3   OH224445   4.136   1.510   1.306
 8167TIP3    H124446   4.213   1.535   1.358
 8167TIP3    H224447   4.152   1.547   1.220
 8168TIP3   OH224448   3.518   1.387   2.637
 8168TIP3    H124449   3.426   1.384   2.663
 8168TIP3    H224450   3.535   1.479   2.618
 8169TIP3   OH224451   5.721   2.178   2.508
 8169TIP3    H124452   5.760   2.127   2.438
 8169TIP3    H224453   5.700   2.114   2.576
 8170TIP3   OH224454   7.802   2.162   4.112
 8170TIP3    H124455   7.822   2.130   4.200
 8170TIP3    H224456   7.708   2.145   4.102
 8171TIP3   OH224457   3.212   6.935   4.096
 8171TIP3    H124458   3.197   6.841   4.099
 8171TIP3    H224459   3.232   6.954   4.004
 8172TIP3   OH224460   1.581   6.573   6.592
 8172TIP3    H124461   1.622   6.652   6.558
 8172TIP3    H224462   1.584   6.583   6.687
 8173TIP3   OH224463   4.806   6.719   3.897
 8173TIP3    H124464   4.866   6.692   3.967
 8173TIP3    H224465   4.850   6.692   3.816
 8174TIP3   OH224466   0.921   1.620   3.163
 8174TIP3    H124467   0.934   1.712   3.187
 8174TIP3    H224468   0.894   1.577   3.244
 8175TIP3   OH224469   4.103   7.265   0.368
 8175TIP3    H124470   4.082   7.193   0.309
 8175TIP3    H224471   4.131   7.223   0.449
 8176TIP3   OH224472   5.339   4.528   1.091
 8176TIP3    H124473   5.363   4.530   1.183
 8176TIP3    H224474   5.255   4.573   1.087
 8177TIP3   OH224475   4.257   5.152   4.327
 8177TIP3    H124476   4.326   5.090   4.303
 8177TIP3    H224477   4.272   5.170   4.420
 8178TIP3   OH224478   2.852   7.209   5.952
 8178TIP3    H124479   2.787   7.171   6.010
 8178TIP3    H224480   2.805   7.277   5.904
 8179TIP3   OH224481   7.534   6.846   3.672
 8179TIP3    H124482   7.583   6.784   3.725
 8179TIP3    H224483   7.522   6.801   3.588
 8180TIP3   OH224484   1.208   6.201   5.740
 8180TIP3    H124485   1.268   6.214   5.813
 8180TIP3    H224486   1.123   6.232   5.771
 8181TIP3   OH224487   6.700   0.835   3.896
 8181TIP3    H124488   6.751   0.901   3.944
 8181TIP3    H224489   6.610   0.849   3.926
 8182TIP3   OH224490   0.695   2.100   2.563
 8182TIP3    H124491   0.672   2.074   2.473
 8182TIP3    H224492   0.633   2.051   2.618
 8183TIP3   OH224493   8.018   1.387   1.416
 8183TIP3    H124494   7.947   1.328   1.442
 8183TIP3    H224495   8.096   1.351   1.460
 8184TIP3   OH224496   5.573   2.066   0.704
 8184TIP3    H124497   5.653   2.018   0.685
 8184TIP3    H224498   5.594   2.157   0.685
 8185TIP3   OH224499   5.246   5.079   0.795
 8185TIP3    H124500   5.269   5.122   0.713
 8185TIP3    H224501   5.169   5.027   0.775
 8186TIP3   OH224502   3.216   2.113   0.805
 8186TIP3    H124503   3.169   2.184   0.761
 8186TIP3    H224504   3.219   2.043   0.740
 8187TIP3   OH224505   7.779   1.983   5.602
 8187TIP3    H124506   7.791   2.055   5.540
 8187TIP3    H224507   7.779   1.904   5.547
 8188TIP3   OH224508   3.497   0.813   3.093
 8188TIP3    H124509   3.475   0.739   3.149
 8188TIP3    H224510   3.571   0.856   3.137
 8189TIP3   OH224511   2.576   5.644   6.439
 8189TIP3    H124512   2.609   5.729   6.409
 8189TIP3    H224513   2.639   5.616   6.506
 8190TIP3   OH224514   7.095   6.209   4.624
 8190TIP3    H124515   7.185   6.239   4.616
 8190TIP3    H224516   7.096   6.144   4.694
 8191TIP3   OH224517   5.574   0.781   4.808
 8191TIP3    H124518   5.565   0.853   4.747
 8191TIP3    H224519   5.592   0.822   4.893
 8192TIP3   OH224520   7.770   1.511   1.616
 8192TIP3    H124521   7.808   1.577   1.558
 8192TIP3    H224522   7.837   1.494   1.681
 8193TIP3   OH224523   6.103   3.874   4.087
 8193TIP3    H124524   6.107   3.961   4.047
 8193TIP3    H224525   6.023   3.874   4.138
 8194TIP3   OH224526   2.903   2.507   5.266
 8194TIP3    H124527   2.937   2.529   5.353
 8194TIP3    H224528   2.827   2.564   5.255
 8195TIP3   OH224529   4.927   3.796   5.154
 8195TIP3    H124530   4.832   3.781   5.156
 8195TIP3    H224531   4.960   3.746   5.229
 8196TIP3   OH224532   0.952   4.636   0.310
 8196TIP3    H124533   0.935   4.620   0.217
 8196TIP3    H224534   0.886   4.700   0.337
 8197TIP3   OH224535   6.505   2.991   3.883
 8197TIP3    H124536   6.477   3.082   3.872
 8197TIP3    H224537   6.507   2.956   3.793
 8198TIP3   OH224538   2.110   2.505   0.866
 8198TIP3    H124539   2.111   2.552   0.950
 8198TIP3    H224540   2.156   2.423   0.884
 8199TIP3   OH224541   3.627   5.812   4.712
 8199TIP3    H124542   3.630   5.880   4.780
 8199TIP3    H224543   3.718   5.803   4.684
 8200TIP3   OH224544   7.499   7.491   3.705
 8200TIP3    H124545   7.563   7.548   3.746
 8200TIP3    H224546   7.433   7.476   3.772
 8201TIP3   OH224547   2.974   6.221   4.526
 8201TIP3    H124548   3.058   6.216   4.480
 8201TIP3    H224549   2.921   6.279   4.472
 8202TIP3   OH224550   0.205   5.561   5.210
 8202TIP3    H124551   0.291   5.523   5.194
 8202TIP3    H224552   0.182   5.532   5.298
 8203TIP3   OH224553   5.619   0.460   6.569
 8203TIP3    H124554   5.543   0.427   6.617
 8203TIP3    H224555   5.664   0.381   6.538
 8204TIP3   OH224556   3.105   5.673   2.579
 8204TIP3    H124557   3.078   5.749   2.528
 8204TIP3    H224558   3.114   5.706   2.668
 8205TIP3   OH224559   2.445   4.961   3.459
 8205TIP3    H124560   2.460   5.006   3.376
 8205TIP3    H224561   2.422   4.871   3.434
 8206TIP3   OH224562   8.139   3.038   5.140
 8206TIP3    H124563   8.215   3.090   5.114
 8206TIP3    H224564   8.092   3.020   5.059
 8207TIP3   OH224565   6.216   6.584   2.559
 8207TIP3    H124566   6.266   6.535   2.624
 8207TIP3    H224567   6.128   6.590   2.596
 8208TIP3   OH224568   4.346   3.514   2.685
 8208TIP3    H124569   4.347   3.476   2.773
 8208TIP3    H224570   4.424   3.569   2.682
 8209TIP3   OH224571   5.761   7.444   3.536
 8209TIP3    H124572   5.817   7.429   3.612
 8209TIP3    H224573   5.753   7.358   3.495
 8210TIP3   OH224574   4.514   0.392   2.687
 8210TIP3    H124575   4.579   0.337   2.643
 8210TIP3    H224576   4.434   0.340   2.686
 8211TIP3   OH224577   7.727   4.506   4.829
 8211TIP3    H124578   7.785   4.514   4.905
 8211TIP3    H224579   7.784   4.480   4.757
 8212TIP3   OH224580   4.634   5.697   1.936
 8212TIP3    H124581   4.551   5.698   1.888
 8212TIP3    H224582   4.678   5.618   1.906
 8213TIP3   OH224583   6.413   2.722   3.768
 8213TIP3    H124584   6.482   2.754   3.827
 8213TIP3    H224585   6.458   2.660   3.711
 8214TIP3   OH224586   8.114   4.199   2.506
 8214TIP3    H124587   8.164   4.118   2.498
 8214TIP3    H224588   8.080   4.215   2.418
 8215TIP3   OH224589   2.717   6.231   5.040
 8215TIP3    H124590   2.697   6.178   4.963
 8215TIP3    H224591   2.642   6.219   5.098
 8216TIP3   OH224592   7.784   1.555   2.573
 8216TIP3    H124593   7.828   1.634   2.541
 8216TIP3    H224594   7.708   1.589   2.622
 8217TIP3   OH224595   2.277   1.038   6.339
 8217TIP3    H124596   2.306   1.122   6.374
 8217TIP3    H224597   2.237   1.061   6.255
 8218TIP3   OH224598   3.220   5.767   2.806
 8218TIP3    H124599   3.164   5.844   2.806
 8218TIP3    H224600   3.210   5.731   2.894
 8219TIP3   OH224601   1.050   3.597   0.188
 8219TIP3    H124602   1.136   3.597   0.228
 8219TIP3    H224603   1.056   3.660   0.116
 8220TIP3   OH224604   3.989   1.384   6.104
 8220TIP3    H124605   3.978   1.328   6.027
 8220TIP3    H224606   3.931   1.458   6.088
 8221TIP3   OH224607   0.465   3.486   4.775
 8221TIP3    H124608   0.525   3.429   4.823
 8221TIP3    H224609   0.378   3.464   4.809
 8222TIP3   OH224610   6.590   3.180   3.216
 8222TIP3    H124611   6.677   3.218   3.228
 8222TIP3    H224612   6.587   3.159   3.122
 8223TIP3   OH224613   6.281   7.711   1.922
 8223TIP3    H124614   6.343   7.781   1.901
 8223TIP3    H224615   6.284   7.704   2.018
 8224TIP3   OH224616   2.524   3.915   5.575
 8224TIP3    H124617   2.533   4.010   5.586
 8224TIP3    H224618   2.440   3.904   5.530
 8225TIP3   OH224619   3.310   2.254   1.061
 8225TIP3    H124620   3.397   2.216   1.073
 8225TIP3    H224621   3.268   2.195   0.997
 8226TIP3   OH224622   6.589   4.593   6.075
 8226TIP3    H124623   6.559   4.552   5.994
 8226TIP3    H224624   6.683   4.607   6.061
 8227TIP3   OH224625   5.127   0.094   4.463
 8227TIP3    H124626   5.108   0.011   4.506
 8227TIP3    H224627   5.202   0.128   4.511
 8228TIP3   OH224628   6.070   0.369   0.338
 8228TIP3    H124629   6.107   0.456   0.319
 8228TIP3    H224630   6.058   0.329   0.252
 8229TIP3   OH224631   0.642   1.186   5.688
 8229TIP3    H124632   0.596   1.128   5.748
 8229TIP3    H224633   0.735   1.171   5.707
 8230TIP3   OH224634   3.465   4.371   6.500
 8230TIP3    H124635   3.506   4.376   6.414
 8230TIP3    H224636   3.396   4.305   6.489
 8231TIP3   OH224637   4.752   2.519   4.582
 8231TIP3    H124638   4.765   2.608   4.549
 8231TIP3    H224639   4.841   2.488   4.600
 8232TIP3   OH224640   1.484   7.522   3.898
 8232TIP3    H124641   1.446   7.495   3.814
 8232TIP3    H224642   1.481   7.618   3.896
 8233TIP3   OH224643   2.487   2.192   4.077
 8233TIP3    H124644   2.476   2.258   4.008
 8233TIP3    H224645   2.534   2.120   4.035
 8234TIP3   OH224646   6.380   7.549   6.412
 8234TIP3    H124647   6.356   7.457   6.424
 8234TIP3    H224648   6.310   7.598   6.455
 8235TIP3   OH224649   6.262   5.746   1.582
 8235TIP3    H124650   6.328   5.761   1.649
 8235TIP3    H224651   6.180   5.733   1.630
 8236TIP3   OH224652   1.459   6.939   5.017
 8236TIP3    H124653   1.394   6.890   4.967
 8236TIP3    H224654   1.502   6.874   5.072
 8237TIP3   OH224655   0.382   3.394   2.887
 8237TIP3    H124656   0.399   3.341   2.964
 8237TIP3    H224657   0.424   3.478   2.905
 8238TIP3   OH224658   0.150   3.718   5.034
 8238TIP3    H124659   0.088   3.666   4.982
 8238TIP3    H224660   0.157   3.801   4.987
 8239TIP3   OH224661   1.957   6.254   5.792
 8239TIP3    H124662   2.031   6.206   5.756
 8239TIP3    H224663   1.885   6.192   5.791
 8240TIP3   OH224664   5.521   3.180   6.223
 8240TIP3    H124665   5.562   3.167   6.308
 8240TIP3    H224666   5.534   3.274   6.205
 8241TIP3   OH224667   2.234   7.733   2.299
 8241TIP3    H124668   2.295   7.805   2.284
 8241TIP3    H224669   2.148   7.772   2.287
 8242TIP3   OH224670   2.075   4.246   0.665
 8242TIP3    H124671   2.104   4.337   0.670
 8242TIP3    H224672   2.012   4.245   0.593
 8243TIP3   OH224673   1.603   2.225   5.143
 8243TIP3    H124674   1.675   2.168   5.172
 8243TIP3    H224675   1.639   2.313   5.147
 8244TIP3   OH224676   5.301   6.776   5.974
 8244TIP3    H124677   5.343   6.815   5.897
 8244TIP3    H224678   5.221   6.736   5.940
 8245TIP3   OH224679   7.855   3.299   2.820
 8245TIP3    H124680   7.945   3.268   2.811
 8245TIP3    H224681   7.848   3.369   2.755
 8246TIP3   OH224682   2.271   6.736   6.602
 8246TIP3    H124683   2.319   6.710   6.680
 8246TIP3    H224684   2.255   6.829   6.613
 8247TIP3   OH224685   6.241   0.579   3.951
 8247TIP3    H124686   6.156   0.619   3.969
 8247TIP3    H224687   6.268   0.541   4.035
 8248TIP3   OH224688   7.749   3.110   5.569
 8248TIP3    H124689   7.761   3.193   5.614
 8248TIP3    H224690   7.759   3.131   5.476
 8249TIP3   OH224691   7.309   5.095   5.709
 8249TIP3    H124692   7.256   5.174   5.706
 8249TIP3    H224693   7.323   5.079   5.803
 8250TIP3   OH224694   0.975   3.856   3.056
 8250TIP3    H124695   0.980   3.950   3.039
 8250TIP3    H224696   1.053   3.820   3.013
 8251TIP3   OH224697   2.688   1.812   6.709
 8251TIP3    H124698   2.669   1.891   6.760
 8251TIP3    H224699   2.618   1.751   6.733
 8252TIP3   OH224700   2.123   3.979   0.086
 8252TIP3    H124701   2.180   4.050   0.057
 8252TIP3    H224702   2.038   3.999   0.047
 8253TIP3   OH224703   8.285   2.351   1.564
 8253TIP3    H124704   8.265   2.286   1.632
 8253TIP3    H224705   8.238   2.430   1.591
 8254TIP3   OH224706   0.625   6.551   0.385
 8254TIP3    H124707   0.534   6.555   0.357
 8254TIP3    H224708   0.673   6.596   0.315
 8255TIP3   OH224709   4.762   5.141   5.922
 8255TIP3    H124710   4.769   5.054   5.883
 8255TIP3    H224711   4.699   5.130   5.994
 8256TIP3   OH224712   3.802   6.871   1.172
 8256TIP3    H124713   3.885   6.846   1.212
 8256TIP3    H224714   3.794   6.965   1.187
 8257TIP3   OH224715   8.029   7.091   6.389
 8257TIP3    H124716   8.113   7.049   6.373
 8257TIP3    H224717   8.050   7.163   6.448
 8258TIP3   OH224718   7.867   0.611   2.734
 8258TIP3    H124719   7.893   0.685   2.790
 8258TIP3    H224720   7.805   0.562   2.787
 8259TIP3   OH224721   3.307   0.850   1.423
 8259TIP3    H124722   3.258   0.810   1.495
 8259TIP3    H224723   3.240   0.870   1.358
 8260TIP3   OH224724   5.154   5.985   3.893
 8260TIP3    H124725   5.215   6.056   3.872
 8260TIP3    H224726   5.077   6.003   3.840
 8261TIP3   OH224727   6.115   1.155   0.128
 8261TIP3    H124728   6.117   1.250   0.115
 8261TIP3    H224729   6.200   1.136   0.169
 8262TIP3   OH224730   8.253   4.627   5.121
 8262TIP3    H124731   8.281   4.655   5.034
 8262TIP3    H224732   8.198   4.699   5.153
 8263TIP3   OH224733   1.730   6.776   2.355
 8263TIP3    H124734   1.819   6.773   2.389
 8263TIP3    H224735   1.675   6.761   2.432
 8264TIP3   OH224736   6.037   3.358   6.677
 8264TIP3    H124737   5.995   3.288   6.628
 8264TIP3    H224738   6.003   3.348   6.766
 8265TIP3   OH224739   5.966   7.332   6.009
 8265TIP3    H124740   5.977   7.368   5.921
 8265TIP3    H224741   5.976   7.407   6.067
 8266TIP3   OH224742   2.167   1.194   2.677
 8266TIP3    H124743   2.207   1.150   2.602
 8266TIP3    H224744   2.125   1.123   2.726
 8267TIP3   OH224745   5.442   7.312   6.134
 8267TIP3    H124746   5.374   7.268   6.083
 8267TIP3    H224747   5.395   7.366   6.197
 8268TIP3   OH224748   6.913   1.736   5.220
 8268TIP3    H124749   6.947   1.740   5.131
 8268TIP3    H224750   6.829   1.782   5.216
 8269TIP3   OH224751   5.466   2.919   2.012
 8269TIP3    H124752   5.437   2.898   1.923
 8269TIP3    H224753   5.506   3.006   2.004
 8270TIP3   OH224754   0.061   4.769   3.971
 8270TIP3    H124755   0.056   4.832   3.899
 8270TIP3    H224756   0.088   4.687   3.929
 8271TIP3   OH224757   5.576   2.768   0.648
 8271TIP3    H124758   5.498   2.720   0.674
 8271TIP3    H224759   5.626   2.779   0.729
 8272TIP3   OH224760   8.182   4.039   4.266
 8272TIP3    H124761   8.254   4.090   4.302
 8272TIP3    H224762   8.104   4.075   4.308
 8273TIP3   OH224763   6.820   6.521   2.687
 8273TIP3    H124764   6.825   6.612   2.716
 8273TIP3    H224765   6.772   6.476   2.757
 8274TIP3   OH224766   7.929   5.000   0.398
 8274TIP3    H124767   7.967   5.074   0.446
 8274TIP3    H224768   7.878   5.041   0.328
 8275TIP3   OH224769   2.948   4.047   4.121
 8275TIP3    H124770   2.960   4.105   4.045
 8275TIP3    H224771   2.930   3.961   4.082
 8276TIP3   OH224772   0.609   1.142   3.451
 8276TIP3    H124773   0.635   1.062   3.404
 8276TIP3    H224774   0.651   1.133   3.537
 8277TIP3   OH224775   3.917   5.762   2.741
 8277TIP3    H124776   3.892   5.672   2.723
 8277TIP3    H224777   4.012   5.762   2.739
 8278TIP3   OH224778   4.050   6.461   4.221
 8278TIP3    H124779   4.114   6.401   4.258
 8278TIP3    H224780   3.989   6.477   4.293
 8279TIP3   OH224781   2.095   5.861   0.087
 8279TIP3    H124782   2.052   5.786   0.129
 8279TIP3    H224783   2.188   5.846   0.102
 8280TIP3   OH224784   0.010   4.096   4.643
 8280TIP3    H124785   0.100   4.108   4.674
 8280TIP3    H224786   0.008   4.139   4.558
 8281TIP3   OH224787   7.666   7.697   6.150
 8281TIP3    H124788   7.592   7.668   6.096
 8281TIP3    H224789   7.637   7.780   6.187
 8282TIP3   OH224790   4.866   3.038   1.564
 8282TIP3    H124791   4.806   3.111   1.546
 8282TIP3    H224792   4.848   3.013   1.654
 8283TIP3   OH224793   5.841   5.155   0.416
 8283TIP3    H124794   5.761   5.177   0.464
 8283TIP3    H224795   5.821   5.072   0.373
 8284TIP3   OH224796   1.267   4.524   3.518
 8284TIP3    H124797   1.247   4.459   3.585
 8284TIP3    H224798   1.221   4.603   3.545
 8285TIP3   OH224799   7.555   4.444   2.894
 8285TIP3    H124800   7.589   4.459   2.983
 8285TIP3    H224801   7.470   4.488   2.894
 8286TIP3   OH224802   3.264   0.768   4.939
 8286TIP3    H124803   3.346   0.791   4.895
 8286TIP3    H224804   3.202   0.753   4.867
 8287TIP3   OH224805   1.475   4.771   2.081
 8287TIP3    H124806   1.547   4.708   2.076
 8287TIP3    H224807   1.428   4.761   1.998
 8288TIP3   OH224808   6.993   5.957   1.120
 8288TIP3    H124809   6.998   6.051   1.139
 8288TIP3    H224810   6.964   5.917   1.202
 8289TIP3   OH224811   0.794   6.594   0.953
 8289TIP3    H124812   0.803   6.689   0.962
 8289TIP3    H224813   0.715   6.581   0.900
 8290TIP3   OH224814   0.033   6.378   3.922
 8290TIP3    H124815   0.008   6.287   3.938
 8290TIP3    H224816   0.127   6.375   3.906
 8291TIP3   OH224817   3.580   6.224   6.127
 8291TIP3    H124818   3.660   6.179   6.101
 8291TIP3    H224819   3.566   6.197   6.218
 8292TIP3   OH224820   7.038   7.768   0.813
 8292TIP3    H124821   7.049   7.821   0.892
 8292TIP3    H224822   6.944   7.752   0.807
 8293TIP3   OH224823   3.488   0.256   5.823
 8293TIP3    H124824   3.428   0.321   5.859
 8293TIP3    H224825   3.431   0.190   5.783
 8294TIP3   OH224826   6.292   6.851   3.862
 8294TIP3    H124827   6.207   6.889   3.886
 8294TIP3    H224828   6.302   6.872   3.769
 8295TIP3   OH224829   5.277   1.573   3.132
 8295TIP3    H124830   5.239   1.522   3.204
 8295TIP3    H224831   5.356   1.525   3.108
 8296TIP3   OH224832   5.628   0.211   5.078
 8296TIP3    H124833   5.600   0.226   5.168
 8296TIP3    H224834   5.564   0.150   5.042
 8297TIP3   OH224835   1.086   6.331   3.407
 8297TIP3    H124836   1.008   6.285   3.437
 8297TIP3    H224837   1.124   6.272   3.341
 8298TIP3   OH224838   4.023   6.779   5.521
 8298TIP3    H124839   4.070   6.717   5.577
 8298TIP3    H224840   3.930   6.766   5.543
 8299TIP3   OH224841   3.507   6.918   2.044
 8299TIP3    H124842   3.442   6.864   2.089
 8299TIP3    H224843   3.556   6.961   2.113
 8300TIP3   OH224844   7.447   1.804   3.178
 8300TIP3    H124845   7.397   1.765   3.106
 8300TIP3    H224846   7.420   1.754   3.255
 8301TIP3   OH224847   7.524   1.369   1.622
 8301TIP3    H124848   7.577   1.296   1.591
 8301TIP3    H224849   7.582   1.419   1.679
 8302TIP3   OH224850   7.589   1.234   5.573
 8302TIP3    H124851   7.525   1.279   5.628
 8302TIP3    H224852   7.648   1.192   5.635
 8303TIP3   OH224853   6.247   5.247   5.772
 8303TIP3    H124854   6.152   5.255   5.781
 8303TIP3    H224855   6.277   5.335   5.751
 8304TIP3   OH224856   3.298   1.673   3.353
 8304TIP3    H124857   3.225   1.680   3.291
 8304TIP3    H224858   3.257   1.673   3.439
 8305TIP3   OH224859   3.421   2.699   4.592
 8305TIP3    H124860   3.352   2.634   4.577
 8305TIP3    H224861   3.417   2.716   4.686
 8306TIP3   OH224862   3.855   6.842   0.816
 8306TIP3    H124863   3.784   6.850   0.880
 8306TIP3    H224864   3.867   6.931   0.783
 8307TIP3   OH224865   0.454   3.862   5.290
 8307TIP3    H124866   0.492   3.801   5.227
 8307TIP3    H224867   0.504   3.848   5.370
 8308TIP3   OH224868   8.013   6.095   0.403
 8308TIP3    H124869   8.027   6.176   0.452
 8308TIP3    H224870   8.044   6.026   0.461
 8309TIP3   OH224871   0.631   0.337   1.975
 8309TIP3    H124872   0.593   0.254   1.946
 8309TIP3    H224873   0.655   0.382   1.895
 8310TIP3   OH224874   8.192   4.973   6.470
 8310TIP3    H124875   8.184   4.978   6.565
 8310TIP3    H224876   8.156   4.888   6.447
 8311TIP3   OH224877   3.894   1.693   3.222
 8311TIP3    H124878   3.933   1.741   3.295
 8311TIP3    H224879   3.968   1.655   3.175
 8312TIP3   OH224880   7.086   1.840   0.313
 8312TIP3    H124881   7.063   1.916   0.261
 8312TIP3    H224882   7.013   1.779   0.300
 8313TIP3   OH224883   5.227   5.446   0.936
 8313TIP3    H124884   5.153   5.386   0.933
 8313TIP3    H224885   5.199   5.521   0.883
 8314TIP3   OH224886   5.126   1.905   6.036
 8314TIP3    H124887   5.129   1.921   6.130
 8314TIP3    H224888   5.153   1.813   6.026
 8315TIP3   OH224889   2.019   3.574   1.534
 8315TIP3    H124890   1.977   3.641   1.480
 8315TIP3    H224891   2.102   3.556   1.490
 8316TIP3   OH224892   6.825   0.656   0.274
 8316TIP3    H124893   6.791   0.582   0.325
 8316TIP3    H224894   6.777   0.732   0.306
 8317TIP3   OH224895   1.329   6.858   0.246
 8317TIP3    H124896   1.338   6.945   0.287
 8317TIP3    H224897   1.246   6.824   0.280
 8318TIP3   OH224898   0.573   5.221   1.053
 8318TIP3    H124899   0.497   5.275   1.077
 8318TIP3    H224900   0.552   5.134   1.088
 8319TIP3   OH224901   6.358   6.683   1.477
 8319TIP3    H124902   6.309   6.745   1.424
 8319TIP3    H224903   6.440   6.669   1.428
 8320TIP3   OH224904   5.216   1.139   6.728
 8320TIP3    H124905   5.268   1.186   6.793
 8320TIP3    H224906   5.151   1.203   6.698
 8321TIP3   OH224907   7.336   0.812   5.848
 8321TIP3    H124908   7.311   0.884   5.905
 8321TIP3    H224909   7.252   0.774   5.819
 8322TIP3   OH224910   4.090   6.526   6.184
 8322TIP3    H124911   4.078   6.621   6.177
 8322TIP3    H224912   4.120   6.499   6.097
 8323TIP3   OH224913   7.618   1.164   1.981
 8323TIP3    H124914   7.695   1.220   1.988
 8323TIP3    H224915   7.633   1.113   1.901
 8324TIP3   OH224916   1.140   4.626   3.013
 8324TIP3    H124917   1.178   4.546   3.050
 8324TIP3    H224918   1.071   4.594   2.954
 8325TIP3   OH224919   1.213   1.664   4.892
 8325TIP3    H124920   1.281   1.712   4.843
 8325TIP3    H224921   1.157   1.626   4.824
 8326TIP3   OH224922   1.510   6.448   4.748
 8326TIP3    H124923   1.504   6.368   4.801
 8326TIP3    H224924   1.599   6.447   4.713
 8327TIP3   OH224925   5.272   2.979   2.479
 8327TIP3    H124926   5.301   2.914   2.544
 8327TIP3    H224927   5.177   2.983   2.491
 8328TIP3   OH224928   3.547   2.093   0.973
 8328TIP3    H124929   3.495   2.032   0.922
 8328TIP3    H224930   3.554   2.052   1.060
 8329TIP3   OH224931   7.570   6.379   3.291
 8329TIP3    H124932   7.546   6.292   3.259
 8329TIP3    H224933   7.585   6.367   3.384
 8330TIP3   OH224934   6.227   5.415   4.273
 8330TIP3    H124935   6.223   5.329   4.231
 8330TIP3    H224936   6.189   5.400   4.360
 8331TIP3   OH224937   1.114   2.077   5.128
 8331TIP3    H124938   1.141   2.072   5.219
 8331TIP3    H224939   1.193   2.056   5.078
 8332TIP3   OH224940   5.323   1.890   2.928
 8332TIP3    H124941   5.387   1.961   2.934
 8332TIP3    H224942   5.360   1.829   2.864
 8333TIP3   OH224943   0.991   7.707   1.436
 8333TIP3    H124944   0.985   7.752   1.520
 8333TIP3    H224945   1.024   7.620   1.457
 8334TIP3   OH224946   1.562   3.485   3.188
 8334TIP3    H124947   1.560   3.422   3.260
 8334TIP3    H224948   1.503   3.555   3.216
 8335TIP3   OH224949   7.482   2.819   0.674
 8335TIP3    H124950   7.476   2.728   0.703
 8335TIP3    H224951   7.473   2.870   0.754
 8336TIP3   OH224952   7.548   6.463   1.501
 8336TIP3    H124953   7.462   6.472   1.459
 8336TIP3    H224954   7.610   6.489   1.433
 8337TIP3   OH224955   1.713   5.525   0.231
 8337TIP3    H124956   1.646   5.528   0.162
 8337TIP3    H224957   1.666   5.550   0.311
 8338TIP3   OH224958   6.520   2.286   2.767
 8338TIP3    H124959   6.539   2.362   2.822
 8338TIP3    H224960   6.522   2.212   2.827
 8339TIP3   OH224961   6.868   6.560   3.766
 8339TIP3    H124962   6.877   6.611   3.685
 8339TIP3    H224963   6.773   6.557   3.782
 8340TIP3   OH224964   7.421   5.637   3.714
 8340TIP3    H124965   7.502   5.685   3.730
 8340TIP3    H224966   7.437   5.550   3.751
 8341TIP3   OH224967   0.035   7.072   6.124
 8341TIP3    H124968   0.018   7.165   6.137
 8341TIP3    H224969   0.035   7.061   6.029
 8342TIP3   OH224970   7.498   1.378   3.729
 8342TIP3    H124971   7.424   1.336   3.774
 8342TIP3    H224972   7.552   1.304   3.698
 8343TIP3   OH224973   3.527   0.537   2.027
 8343TIP3    H124974   3.593   0.481   2.067
 8343TIP3    H224975   3.444   0.506   2.062
 8344TIP3   OH224976   7.317   7.138   3.952
 8344TIP3    H124977   7.362   7.149   4.036
 8344TIP3    H224978   7.301   7.227   3.921
 8345TIP3   OH224979   7.428   4.205   3.483
 8345TIP3    H124980   7.426   4.132   3.421
 8345TIP3    H224981   7.379   4.173   3.559
 8346TIP3   OH224982   0.107   7.444   6.562
 8346TIP3    H124983   0.199   7.442   6.589
 8346TIP3    H224984   0.076   7.531   6.588
 8347TIP3   OH224985   8.036   2.462   0.910
 8347TIP3    H124986   8.079   2.472   0.995
 8347TIP3    H224987   7.948   2.498   0.923
 8348TIP3   OH224988   5.134   6.025   0.194
 8348TIP3    H124989   5.156   6.079   0.269
 8348TIP3    H224990   5.063   6.071   0.150
 8349TIP3   OH224991   6.846   6.620   1.220
 8349TIP3    H124992   6.862   6.708   1.186
 8349TIP3    H224993   6.857   6.562   1.144
 8350TIP3   OH224994   1.448   1.490   0.781
 8350TIP3    H124995   1.443   1.436   0.860
 8350TIP3    H224996   1.530   1.464   0.739
 8351TIP3   OH224997   2.689   2.655   1.707
 8351TIP3    H124998   2.719   2.699   1.627
 8351TIP3    H224999   2.766   2.654   1.764
 8352TIP3   OH225000   1.934   1.240   6.262
 8352TIP3    H125001   2.000   1.187   6.217
 8352TIP3    H225002   1.894   1.180   6.325
 8353TIP3   OH225003   6.409   3.344   3.462
 8353TIP3    H125004   6.334   3.285   3.458
 8353TIP3    H225005   6.480   3.290   3.497
 8354TIP3   OH225006   0.623   3.302   6.768
 8354TIP3    H125007   0.574   3.263   6.840
 8354TIP3    H225008   0.560   3.310   6.697
 8355TIP3   OH225009   4.115   0.075   5.242
 8355TIP3    H125010   4.149  -0.009   5.212
 8355TIP3    H225011   4.099   0.063   5.335
 8356TIP3   OH225012   7.450   0.124   6.645
 8356TIP3    H125013   7.487   0.113   6.557
 8356TIP3    H225014   7.440   0.218   6.655
 8357TIP3   OH225015   7.108   0.315   1.595
 8357TIP3    H125016   7.171   0.247   1.621
 8357TIP3    H225017   7.163   0.388   1.564
 8358TIP3   OH225018   2.417   0.667   5.897
 8358TIP3    H125019   2.348   0.614   5.856
 8358TIP3    H225020   2.490   0.663   5.836
 8359TIP3   OH225021   7.555   4.787   5.837
 8359TIP3    H125022   7.608   4.789   5.917
 8359TIP3    H225023   7.586   4.710   5.790
 8360TIP3   OH225024   5.949   7.687   1.258
 8360TIP3    H125025   5.861   7.690   1.219
 8360TIP3    H225026   5.939   7.735   1.341
 8361TIP3   OH225027   4.818   0.458   3.845
 8361TIP3    H125028   4.903   0.464   3.889
 8361TIP3    H225029   4.839   0.465   3.752
 8362TIP3   OH225030   8.048   7.114   3.801
 8362TIP3    H125031   8.013   7.166   3.728
 8362TIP3    H225032   8.125   7.071   3.766
 8363TIP3   OH225033   5.307   3.812   3.529
 8363TIP3    H125034   5.345   3.725   3.544
 8363TIP3    H225035   5.383   3.871   3.526
 8364TIP3   OH225036   4.460   5.409   0.143
 8364TIP3    H125037   4.423   5.328   0.178
 8364TIP3    H225038   4.521   5.380   0.075
 8365TIP3   OH225039   5.001   0.755   3.338
 8365TIP3    H125040   4.959   0.765   3.424
 8365TIP3    H225041   5.030   0.664   3.337
 8366TIP3   OH225042   2.666   2.470   2.632
 8366TIP3    H125043   2.660   2.473   2.536
 8366TIP3    H225044   2.593   2.524   2.663
 8367TIP3   OH225045   5.636   5.056   0.174
 8367TIP3    H125046   5.583   5.042   0.095
 8367TIP3    H225047   5.673   5.143   0.163
 8368TIP3   OH225048   5.577   0.870   5.082
 8368TIP3    H125049   5.563   0.927   5.157
 8368TIP3    H225050   5.584   0.782   5.119
 8369TIP3   OH225051   5.245   2.746   5.948
 8369TIP3    H125052   5.162   2.791   5.966
 8369TIP3    H225053   5.301   2.814   5.911
 8370TIP3   OH225054   2.974   7.377   3.677
 8370TIP3    H125055   3.039   7.447   3.665
 8370TIP3    H225056   2.951   7.381   3.770
 8371TIP3   OH225057   5.384   6.102   3.093
 8371TIP3    H125058   5.396   6.184   3.045
 8371TIP3    H225059   5.358   6.130   3.181
 8372TIP3   OH225060   2.563   4.406   0.706
 8372TIP3    H125061   2.567   4.373   0.796
 8372TIP3    H225062   2.646   4.453   0.693
 8373TIP3   OH225063   5.606   4.504   5.246
 8373TIP3    H125064   5.574   4.528   5.333
 8373TIP3    H225065   5.556   4.558   5.185
 8374TIP3   OH225066   5.298   7.623   4.184
 8374TIP3    H125067   5.223   7.567   4.162
 8374TIP3    H225068   5.350   7.571   4.246
 8375TIP3   OH225069   4.122   7.765   0.325
 8375TIP3    H125070   4.045   7.763   0.268
 8375TIP3    H225071   4.159   7.677   0.318
 8376TIP3   OH225072   5.427   4.119   4.927
 8376TIP3    H125073   5.384   4.166   4.999
 8376TIP3    H225074   5.380   4.036   4.921
 8377TIP3   OH225075   0.705   1.637   5.995
 8377TIP3    H125076   0.793   1.625   6.032
 8377TIP3    H225077   0.645   1.619   6.068
 8378TIP3   OH225078   0.989   0.058   3.880
 8378TIP3    H125079   0.969   0.113   3.805
 8378TIP3    H225080   0.914   0.000   3.889
 8379TIP3   OH225081   5.571   0.517   1.714
 8379TIP3    H125082   5.580   0.561   1.799
 8379TIP3    H225083   5.478   0.497   1.707
 8380TIP3   OH225084   2.302   1.577   3.766
 8380TIP3    H125085   2.347   1.627   3.834
 8380TIP3    H225086   2.253   1.510   3.814
 8381TIP3   OH225087   3.919   2.727   6.363
 8381TIP3    H125088   3.935   2.656   6.302
 8381TIP3    H225089   3.870   2.792   6.312
 8382TIP3   OH225090   2.882   4.246   6.416
 8382TIP3    H125091   2.799   4.235   6.369
 8382TIP3    H225092   2.897   4.161   6.457
 8383TIP3   OH225093   6.201   3.855   0.237
 8383TIP3    H125094   6.285   3.809   0.246
 8383TIP3    H225095   6.222   3.947   0.256
 8384TIP3   OH225096   7.552   1.607   3.863
 8384TIP3    H125097   7.468   1.651   3.850
 8384TIP3    H225098   7.547   1.529   3.807
 8385TIP3   OH225099   8.182   5.423   0.755
 8385TIP3    H125100   8.160   5.428   0.848
 8385TIP3    H225101   8.242   5.349   0.748
 8386TIP3   OH225102   6.306   2.542   5.080
 8386TIP3    H125103   6.228   2.572   5.125
 8386TIP3    H225104   6.354   2.623   5.058
 8387TIP3   OH225105   7.406   4.625   4.423
 8387TIP3    H125106   7.345   4.699   4.425
 8387TIP3    H225107   7.491   4.664   4.403
 8388TIP3   OH225108   3.067   0.150   1.587
 8388TIP3    H125109   3.007   0.210   1.543
 8388TIP3    H225110   3.024   0.064   1.578
 8389TIP3   OH225111   0.511   6.904   3.659
 8389TIP3    H125112   0.473   6.988   3.635
 8389TIP3    H225113   0.467   6.881   3.742
 8390TIP3   OH225114   4.584   0.768   1.061
 8390TIP3    H125115   4.565   0.845   1.115
 8390TIP3    H225116   4.629   0.804   0.984
 8391TIP3   OH225117   0.918   4.584   5.354
 8391TIP3    H125118   0.900   4.494   5.324
 8391TIP3    H225119   0.834   4.629   5.344
 8392TIP3   OH225120   7.957   2.335   2.007
 8392TIP3    H125121   7.989   2.300   2.090
 8392TIP3    H225122   7.881   2.280   1.986
 8393TIP3   OH225123   0.104   0.632   3.117
 8393TIP3    H125124   0.012   0.632   3.145
 8393TIP3    H225125   0.105   0.573   3.041
 8394TIP3   OH225126   1.238   0.874   1.494
 8394TIP3    H125127   1.230   0.902   1.403
 8394TIP3    H225128   1.163   0.915   1.538
 8395TIP3   OH225129   0.425   3.487   3.258
 8395TIP3    H125130   0.484   3.521   3.325
 8395TIP3    H225131   0.475   3.491   3.176
 8396TIP3   OH225132   6.680   1.077   5.609
 8396TIP3    H125133   6.714   1.159   5.572
 8396TIP3    H225134   6.659   1.099   5.700
 8397TIP3   OH225135   2.773   1.796   4.754
 8397TIP3    H125136   2.868   1.790   4.753
 8397TIP3    H225137   2.755   1.884   4.789
 8398TIP3   OH225138   1.940   6.023   6.319
 8398TIP3    H125139   2.007   6.045   6.255
 8398TIP3    H225140   1.926   6.103   6.369
 8399TIP3   OH225141   1.188   1.846   3.905
 8399TIP3    H125142   1.248   1.921   3.898
 8399TIP3    H225143   1.106   1.884   3.938
 8400TIP3   OH225144   4.295   6.409   0.884
 8400TIP3    H125145   4.371   6.435   0.832
 8400TIP3    H225146   4.306   6.454   0.968
 8401TIP3   OH225147   7.409   3.981   3.318
 8401TIP3    H125148   7.489   3.929   3.306
 8401TIP3    H225149   7.366   3.980   3.232
 8402TIP3   OH225150   8.043   3.971   0.036
 8402TIP3    H125151   8.075   3.881   0.024
 8402TIP3    H225152   8.055   3.987   0.129
 8403TIP3   OH225153   6.980   2.574   4.197
 8403TIP3    H125154   6.898   2.597   4.241
 8403TIP3    H225155   7.039   2.550   4.269
 8404TIP3   OH225156   3.636   6.817   0.609
 8404TIP3    H125157   3.701   6.875   0.569
 8404TIP3    H225158   3.575   6.796   0.538
 8405TIP3   OH225159   2.086   7.343   3.292
 8405TIP3    H125160   2.143   7.308   3.224
 8405TIP3    H225161   2.146   7.385   3.354
 8406TIP3   OH225162   0.356   3.407   6.640
 8406TIP3    H125163   0.355   3.484   6.697
 8406TIP3    H225164   0.400   3.435   6.561
 8407TIP3   OH225165   6.181   6.468   1.494
 8407TIP3    H125166   6.207   6.388   1.450
 8407TIP3    H225167   6.242   6.534   1.461
 8408TIP3   OH225168   0.915   2.931   4.388
 8408TIP3    H125169   0.892   3.011   4.435
 8408TIP3    H225170   0.907   2.862   4.454
 8409TIP3   OH225171   3.270   3.293   6.395
 8409TIP3    H125172   3.241   3.283   6.305
 8409TIP3    H225173   3.364   3.271   6.393
 8410TIP3   OH225174   6.841   3.707   6.524
 8410TIP3    H125175   6.789   3.712   6.444
 8410TIP3    H225176   6.924   3.748   6.500
 8411TIP3   OH225177   3.394   3.449   4.213
 8411TIP3    H125178   3.314   3.500   4.196
 8411TIP3    H225179   3.370   3.359   4.192
 8412TIP3   OH225180   1.967   1.937   3.554
 8412TIP3    H125181   2.041   1.981   3.513
 8412TIP3    H225182   2.004   1.860   3.596
 8413TIP3   OH225183   1.906   3.811   2.594
 8413TIP3    H125184   1.982   3.865   2.615
 8413TIP3    H225185   1.900   3.815   2.498
 8414TIP3   OH225186   5.006   7.246   5.388
 8414TIP3    H125187   5.047   7.303   5.323
 8414TIP3    H225188   5.080   7.213   5.440
 8415TIP3   OH225189   2.807   3.021   5.717
 8415TIP3    H125190   2.748   3.096   5.727
 8415TIP3    H225191   2.848   3.011   5.803
 8416TIP3   OH225192   6.890   4.033   1.336
 8416TIP3    H125193   6.888   4.042   1.241
 8416TIP3    H225194   6.855   4.116   1.369
 8417TIP3   OH225195   0.676   3.294   5.456
 8417TIP3    H125196   0.731   3.296   5.378
 8417TIP3    H225197   0.602   3.239   5.432
 8418TIP3   OH225198   1.694   7.495   6.173
 8418TIP3    H125199   1.645   7.462   6.249
 8418TIP3    H225200   1.627   7.527   6.113
 8419TIP3   OH225201   5.189   3.191   2.684
 8419TIP3    H125202   5.219   3.123   2.624
 8419TIP3    H225203   5.095   3.179   2.689
 8420TIP3   OH225204   6.179   4.187   6.413
 8420TIP3    H125205   6.271   4.203   6.434
 8420TIP3    H225206   6.134   4.268   6.440
 8421TIP3   OH225207   1.179   6.591   5.589
 8421TIP3    H125208   1.173   6.631   5.502
 8421TIP3    H225209   1.100   6.538   5.596
 8422TIP3   OH225210   5.394   0.121   3.420
 8422TIP3    H125211   5.304   0.140   3.393
 8422TIP3    H225212   5.387   0.098   3.512
 8423TIP3   OH225213   2.477   0.691   5.078
 8423TIP3    H125214   2.419   0.625   5.116
 8423TIP3    H225215   2.437   0.712   4.994
 8424TIP3   OH225216   6.811   2.053   4.611
 8424TIP3    H125217   6.844   2.140   4.635
 8424TIP3    H225218   6.889   1.997   4.610
 8425TIP3   OH225219   6.734   4.974   1.342
 8425TIP3    H125220   6.733   4.881   1.366
 8425TIP3    H225221   6.655   4.986   1.289
 8426TIP3   OH225222   7.882   4.738   0.664
 8426TIP3    H125223   7.788   4.727   0.680
 8426TIP3    H225224   7.909   4.803   0.729
 8427TIP3   OH225225   1.021   5.048   3.801
 8427TIP3    H125226   1.081   5.088   3.864
 8427TIP3    H225227   1.071   5.046   3.719
 8428TIP3   OH225228   5.356   6.831   4.881
 8428TIP3    H125229   5.264   6.816   4.905
 8428TIP3    H225230   5.382   6.907   4.933
 8429TIP3   OH225231   7.363   1.880   4.088
 8429TIP3    H125232   7.402   1.968   4.096
 8429TIP3    H225233   7.382   1.838   4.172
 8430TIP3   OH225234   8.025   0.283   6.534
 8430TIP3    H125235   8.079   0.362   6.533
 8430TIP3    H225236   8.030   0.252   6.625
 8431TIP3   OH225237   2.445   6.686   5.240
 8431TIP3    H125238   2.518   6.687   5.302
 8431TIP3    H225239   2.375   6.641   5.287
 8432TIP3   OH225240   1.507   6.852   1.254
 8432TIP3    H125241   1.586   6.799   1.244
 8432TIP3    H225242   1.514   6.919   1.186
 8433TIP3   OH225243   1.465   6.963   0.520
 8433TIP3    H125244   1.493   6.991   0.607
 8433TIP3    H225245   1.375   6.997   0.512
 8434TIP3   OH225246   4.460   3.606   6.617
 8434TIP3    H125247   4.553   3.613   6.597
 8434TIP3    H225248   4.457   3.586   6.711
 8435TIP3   OH225249   6.295   6.344   0.559
 8435TIP3    H125250   6.314   6.266   0.611
 8435TIP3    H225251   6.248   6.403   0.619
 8436TIP3   OH225252   1.406   6.361   5.614
 8436TIP3    H125253   1.366   6.299   5.675
 8436TIP3    H225254   1.442   6.430   5.669
 8437TIP3   OH225255   6.898   1.779   4.358
 8437TIP3    H125256   6.910   1.844   4.288
 8437TIP3    H225257   6.973   1.720   4.349
 8438TIP3   OH225258   1.668   7.790   6.403
 8438TIP3    H125259   1.634   7.709   6.366
 8438TIP3    H225260   1.640   7.788   6.495
 8439TIP3   OH225261   7.866   6.135   3.555
 8439TIP3    H125262   7.907   6.123   3.641
 8439TIP3    H225263   7.939   6.160   3.498
 8440TIP3   OH225264   6.376   3.336   4.559
 8440TIP3    H125265   6.461   3.380   4.564
 8440TIP3    H225266   6.384   3.262   4.619
 8441TIP3   OH225267   5.922   5.274   6.194
 8441TIP3    H125268   5.942   5.327   6.117
 8441TIP3    H225269   5.849   5.218   6.166
 8442TIP3   OH225270   4.737   0.980   0.935
 8442TIP3    H125271   4.823   1.001   0.899
 8442TIP3    H225272   4.746   0.995   1.029
 8443TIP3   OH225273   6.668   7.689   2.996
 8443TIP3    H125274   6.746   7.643   3.027
 8443TIP3    H225275   6.660   7.663   2.904
 8444TIP3   OH225276   6.919   7.765   5.922
 8444TIP3    H125277   6.839   7.756   5.974
 8444TIP3    H225278   6.901   7.717   5.841
 8445TIP3   OH225279   0.214   5.050   5.973
 8445TIP3    H125280   0.205   4.958   5.949
 8445TIP3    H225281   0.127   5.075   6.005
 8446TIP3   OH225282   1.005   3.679   1.444
 8446TIP3    H125283   0.974   3.709   1.358
 8446TIP3    H225284   0.994   3.584   1.441
 8447TIP3   OH225285   8.211   2.159   5.942
 8447TIP3    H125286   8.264   2.130   5.868
 8447TIP3    H225287   8.164   2.080   5.970
 8448TIP3   OH225288   1.641   6.380   2.470
 8448TIP3    H125289   1.658   6.286   2.460
 8448TIP3    H225290   1.642   6.394   2.565
 8449TIP3   OH225291   7.473   1.230   0.358
 8449TIP3    H125292   7.544   1.165   0.360
 8449TIP3    H225293   7.460   1.248   0.265
 8450TIP3   OH225294   1.153   4.395   2.061
 8450TIP3    H125295   1.098   4.473   2.054
 8450TIP3    H225296   1.092   4.322   2.068
 8451TIP3   OH225297   7.111   0.701   5.722
 8451TIP3    H125298   7.063   0.643   5.780
 8451TIP3    H225299   7.043   0.738   5.664
 8452TIP3   OH225300   4.103   5.356   4.854
 8452TIP3    H125301   4.060   5.271   4.842
 8452TIP3    H225302   4.070   5.410   4.782
 8453TIP3   OH225303   8.035   4.591   6.635
 8453TIP3    H125304   7.944   4.563   6.645
 8453TIP3    H225305   8.057   4.630   6.719
 8454TIP3   OH225306   0.832   6.839   0.536
 8454TIP3    H125307   0.870   6.758   0.570
 8454TIP3    H225308   0.797   6.816   0.450
 8455TIP3   OH225309   0.471   1.440   2.415
 8455TIP3    H125310   0.388   1.481   2.439
 8455TIP3    H225311   0.502   1.400   2.496
 8456TIP3   OH225312   0.751   1.466   1.382
 8456TIP3    H125313   0.691   1.486   1.310
 8456TIP3    H225314   0.819   1.532   1.375
 8457TIP3   OH225315   7.873   6.763   4.427
 8457TIP3    H125316   7.856   6.848   4.386
 8457TIP3    H225317   7.867   6.780   4.521
 8458TIP3   OH225318   6.878   5.760   5.445
 8458TIP3    H125319   6.873   5.702   5.370
 8458TIP3    H225320   6.809   5.729   5.504
 8459TIP3   OH225321   7.304   7.213   1.828
 8459TIP3    H125322   7.280   7.127   1.860
 8459TIP3    H225323   7.365   7.196   1.756
 8460TIP3   OH225324   4.116   7.789   2.771
 8460TIP3    H125325   4.094   7.726   2.702
 8460TIP3    H225326   4.077   7.751   2.850
 8461TIP3   OH225327   4.704   4.672   1.101
 8461TIP3    H125328   4.793   4.698   1.081
 8461TIP3    H225329   4.673   4.735   1.166
 8462TIP3   OH225330   1.415   2.953   2.033
 8462TIP3    H125331   1.408   2.895   1.957
 8462TIP3    H225332   1.327   2.989   2.044
 8463TIP3   OH225333   6.816   3.788   0.080
 8463TIP3    H125334   6.807   3.793   0.175
 8463TIP3    H225335   6.738   3.831   0.046
 8464TIP3   OH225336   4.952   7.371   6.297
 8464TIP3    H125337   4.945   7.438   6.229
 8464TIP3    H225338   4.920   7.291   6.256
 8465TIP3   OH225339   6.442   4.103   0.907
 8465TIP3    H125340   6.367   4.047   0.886
 8465TIP3    H225341   6.445   4.167   0.836
 8466TIP3   OH225342   0.028   3.710   3.287
 8466TIP3    H125343   0.101   3.665   3.330
 8466TIP3    H225344  -0.017   3.758   3.357
 8467TIP3   OH225345   6.576   1.109   4.505
 8467TIP3    H125346   6.632   1.060   4.565
 8467TIP3    H225347   6.503   1.049   4.487
 8468TIP3   OH225348   4.992   5.719   3.278
 8468TIP3    H125349   5.067   5.737   3.223
 8468TIP3    H225350   5.013   5.759   3.362
 8469TIP3   OH225351   2.320   1.949   0.386
 8469TIP3    H125352   2.370   1.998   0.320
 8469TIP3    H225353   2.238   1.997   0.394
 8470TIP3   OH225354   0.296   2.323   0.402
 8470TIP3    H125355   0.353   2.246   0.391
 8470TIP3    H225356   0.268   2.344   0.312
 8471TIP3   OH225357   5.381   7.760   2.346
 8471TIP3    H125358   5.314   7.777   2.411
 8471TIP3    H225359   5.342   7.697   2.286
 8472TIP3   OH225360   7.938   0.376   5.392
 8472TIP3    H125361   7.979   0.417   5.316
 8472TIP3    H225362   7.847   0.406   5.390
 8473TIP3   OH225363   5.610   5.990   2.780
 8473TIP3    H125364   5.521   6.002   2.815
 8473TIP3    H225365   5.667   5.995   2.857
 8474TIP3   OH225366   2.514   1.680   3.205
 8474TIP3    H125367   2.539   1.593   3.238
 8474TIP3    H225368   2.562   1.741   3.259
 8475TIP3   OH225369   7.403   6.595   0.897
 8475TIP3    H125370   7.325   6.642   0.926
 8475TIP3    H225371   7.470   6.662   0.888
 8476TIP3   OH225372   6.466   5.025   6.464
 8476TIP3    H125373   6.471   4.970   6.542
 8476TIP3    H225374   6.398   5.090   6.485
 8477TIP3   OH225375   1.206   7.752   6.170
 8477TIP3    H125376   1.170   7.794   6.248
 8477TIP3    H225377   1.191   7.815   6.099
 8478TIP3   OH225378   3.778   6.562   0.692
 8478TIP3    H125379   3.708   6.516   0.739
 8478TIP3    H225380   3.760   6.655   0.708
 8479TIP3   OH225381   4.022   2.521   5.671
 8479TIP3    H125382   3.944   2.538   5.724
 8479TIP3    H225383   4.016   2.428   5.650
 8480TIP3   OH225384   5.439   7.662   5.050
 8480TIP3    H125385   5.507   7.682   4.986
 8480TIP3    H225386   5.478   7.597   5.108
 8481TIP3   OH225387   6.645   1.499   3.132
 8481TIP3    H125388   6.613   1.576   3.178
 8481TIP3    H225389   6.614   1.425   3.184
 8482TIP3   OH225390   4.048   0.153   2.550
 8482TIP3    H125391   4.073   0.060   2.548
 8482TIP3    H225392   3.954   0.152   2.569
 8483TIP3   OH225393   4.240   6.973   2.310
 8483TIP3    H125394   4.288   6.953   2.229
 8483TIP3    H225395   4.159   6.923   2.303
 8484TIP3   OH225396   3.575   5.587   0.669
 8484TIP3    H125397   3.626   5.534   0.608
 8484TIP3    H225398   3.593   5.678   0.644
 8485TIP3   OH225399   6.149   4.541   1.394
 8485TIP3    H125400   6.159   4.446   1.396
 8485TIP3    H225401   6.124   4.564   1.483
 8486TIP3   OH225402   2.185   4.929   1.205
 8486TIP3    H125403   2.248   4.970   1.146
 8486TIP3    H225404   2.101   4.968   1.182
 8487TIP3   OH225405   4.108   6.784   4.565
 8487TIP3    H125406   4.026   6.768   4.520
 8487TIP3    H225407   4.153   6.849   4.511
 8488TIP3   OH225408   3.649   1.011   5.964
 8488TIP3    H125409   3.712   0.948   5.928
 8488TIP3    H225410   3.688   1.097   5.948
 8489TIP3   OH225411   7.136   3.826   1.722
 8489TIP3    H125412   7.092   3.855   1.642
 8489TIP3    H225413   7.229   3.843   1.706
 8490TIP3   OH225414   1.841   5.270   0.218
 8490TIP3    H125415   1.803   5.356   0.237
 8490TIP3    H225416   1.793   5.209   0.273
 8491TIP3   OH225417   1.050   5.754   3.443
 8491TIP3    H125418   1.105   5.826   3.475
 8491TIP3    H225419   1.090   5.676   3.480
 8492TIP3   OH225420   3.537   4.643   3.777
 8492TIP3    H125421   3.558   4.625   3.868
 8492TIP3    H225422   3.483   4.722   3.780
 8493TIP3   OH225423   0.472   0.152   5.452
 8493TIP3    H125424   0.378   0.170   5.453
 8493TIP3    H225425   0.512   0.233   5.485
 8494TIP3   OH225426   6.782   6.484   1.552
 8494TIP3    H125427   6.865   6.532   1.561
 8494TIP3    H225428   6.807   6.401   1.511
 8495TIP3   OH225429   7.874   2.606   3.747
 8495TIP3    H125430   7.947   2.630   3.804
 8495TIP3    H225431   7.835   2.690   3.721
 8496TIP3   OH225432   5.730   7.480   5.034
 8496TIP3    H125433   5.818   7.474   5.070
 8496TIP3    H225434   5.672   7.464   5.110
 8497TIP3   OH225435   3.986   3.787   5.157
 8497TIP3    H125436   4.028   3.702   5.173
 8497TIP3    H225437   4.056   3.851   5.164
 8498TIP3   OH225438   0.224   2.537   4.282
 8498TIP3    H125439   0.163   2.513   4.353
 8498TIP3    H225440   0.243   2.454   4.239
 8499TIP3   OH225441   3.594   4.727   5.457
 8499TIP3    H125442   3.559   4.646   5.420
 8499TIP3    H225443   3.627   4.701   5.544
 8500TIP3   OH225444   2.568   4.532   2.030
 8500TIP3    H125445   2.558   4.474   1.954
 8500TIP3    H225446   2.662   4.548   2.036
 8501TIP3   OH225447   1.727   6.958   5.652
 8501TIP3    H125448   1.809   6.975   5.699
 8501TIP3    H225449   1.706   7.041   5.610
 8502TIP3   OH225450   3.443   2.779   2.073
 8502TIP3    H125451   3.423   2.735   1.990
 8502TIP3    H225452   3.420   2.871   2.057
 8503TIP3   OH225453   2.457   2.930   3.384
 8503TIP3    H125454   2.406   3.011   3.377
 8503TIP3    H225455   2.523   2.948   3.451
 8504TIP3   OH225456   8.158   1.617   3.119
 8504TIP3    H125457   8.180   1.683   3.053
 8504TIP3    H225458   8.105   1.664   3.183
 8505TIP3   OH225459   3.606   0.492   3.483
 8505TIP3    H125460   3.639   0.577   3.513
 8505TIP3    H225461   3.562   0.455   3.560
 8506TIP3   OH225462   1.590   1.801   3.886
 8506TIP3    H125463   1.613   1.849   3.807
 8506TIP3    H225464   1.673   1.764   3.917
 8507TIP3   OH225465   0.189   7.285   4.572
 8507TIP3    H125466   0.268   7.315   4.527
 8507TIP3    H225467   0.120   7.290   4.505
 8508TIP3   OH225468   3.981   1.250   6.357
 8508TIP3    H125469   3.928   1.182   6.315
 8508TIP3    H225470   4.019   1.299   6.284
 8509TIP3   OH225471   6.581   3.124   0.327
 8509TIP3    H125472   6.535   3.160   0.403
 8509TIP3    H225473   6.672   3.151   0.340
 8510TIP3   OH225474   3.799   1.354   3.545
 8510TIP3    H125475   3.818   1.383   3.456
 8510TIP3    H225476   3.710   1.384   3.562
 8511TIP3   OH225477   0.628   6.017   2.541
 8511TIP3    H125478   0.606   6.110   2.534
 8511TIP3    H225479   0.717   6.016   2.575
 8512TIP3   OH225480   5.727   3.836   5.266
 8512TIP3    H125481   5.668   3.903   5.233
 8512TIP3    H225482   5.701   3.756   5.221
 8513TIP3   OH225483   1.110   4.712   4.356
 8513TIP3    H125484   1.105   4.779   4.424
 8513TIP3    H225485   1.150   4.756   4.281
 8514TIP3   OH225486   1.098   5.579   4.339
 8514TIP3    H125487   1.176   5.619   4.377
 8514TIP3    H225488   1.034   5.579   4.411
 8515TIP3   OH225489   8.268   2.781   4.511
 8515TIP3    H125490   8.237   2.865   4.547
 8515TIP3    H225491   8.362   2.793   4.501
 8516TIP3   OH225492   2.172   6.284   3.677
 8516TIP3    H125493   2.258   6.317   3.703
 8516TIP3    H225494   2.171   6.193   3.708
 8517TIP3   OH225495   3.190   1.284   2.267
 8517TIP3    H125496   3.210   1.295   2.174
 8517TIP3    H225497   3.239   1.206   2.293
 8518TIP3   OH225498   0.034   1.837   5.223
 8518TIP3    H125499   0.092   1.767   5.253
 8518TIP3    H225500   0.007   1.811   5.135
 8519TIP3   OH225501   7.517   1.057   3.935
 8519TIP3    H125502   7.581   0.985   3.939
 8519TIP3    H225503   7.530   1.095   3.848
 8520TIP3   OH225504   5.884   4.951   1.819
 8520TIP3    H125505   5.977   4.955   1.842
 8520TIP3    H225506   5.883   4.946   1.723
 8521TIP3   OH225507   5.896   1.074   3.171
 8521TIP3    H125508   5.823   1.134   3.158
 8521TIP3    H225509   5.904   1.066   3.266
 8522TIP3   OH225510   3.962   6.707   2.827
 8522TIP3    H125511   3.869   6.720   2.806
 8522TIP3    H225512   3.978   6.615   2.808
 8523TIP3   OH225513   6.915   4.583   3.289
 8523TIP3    H125514   6.945   4.660   3.337
 8523TIP3    H225515   6.970   4.579   3.211
 8524TIP3   OH225516   5.551   4.005   5.153
 8524TIP3    H125517   5.543   4.084   5.206
 8524TIP3    H225518   5.502   4.024   5.073
 8525TIP3   OH225519   4.058   4.256   3.407
 8525TIP3    H125520   4.119   4.183   3.405
 8525TIP3    H225521   4.098   4.323   3.353
 8526TIP3   OH225522   2.390   5.042   1.391
 8526TIP3    H125523   2.333   5.102   1.439
 8526TIP3    H225524   2.337   4.963   1.380
 8527TIP3   OH225525   2.435   5.810   2.606
 8527TIP3    H125526   2.374   5.832   2.676
 8527TIP3    H225527   2.413   5.870   2.535
 8528TIP3   OH225528   2.396   3.633   0.231
 8528TIP3    H125529   2.487   3.619   0.207
 8528TIP3    H225530   2.369   3.709   0.179
 8529TIP3   OH225531   6.129   4.264   1.415
 8529TIP3    H125532   6.139   4.200   1.485
 8529TIP3    H225533   6.190   4.234   1.347
 8530TIP3   OH225534   2.983   4.565   5.892
 8530TIP3    H125535   2.893   4.567   5.925
 8530TIP3    H225536   3.036   4.597   5.964
 8531TIP3   OH225537   0.619   2.532   0.982
 8531TIP3    H125538   0.651   2.542   1.072
 8531TIP3    H225539   0.602   2.622   0.953
 8532TIP3   OH225540   8.049   6.234   3.389
 8532TIP3    H125541   8.118   6.220   3.325
 8532TIP3    H225542   7.999   6.309   3.355
 8533TIP3   OH225543   5.941   5.609   4.152
 8533TIP3    H125544   5.923   5.542   4.085
 8533TIP3    H225545   5.950   5.690   4.103
 8534TIP3   OH225546   0.446   3.299   5.900
 8534TIP3    H125547   0.519   3.337   5.853
 8534TIP3    H225548   0.411   3.232   5.841
 8535TIP3   OH225549   2.294   5.710   6.430
 8535TIP3    H125550   2.296   5.759   6.348
 8535TIP3    H225551   2.379   5.667   6.435
 8536TIP3   OH225552   7.482   0.929   0.756
 8536TIP3    H125553   7.459   0.914   0.848
 8536TIP3    H225554   7.411   0.984   0.722
 8537TIP3   OH225555   5.764   2.894   6.734
 8537TIP3    H125556   5.737   2.945   6.810
 8537TIP3    H225557   5.708   2.926   6.663
 8538TIP3   OH225558   7.819   6.615   4.165
 8538TIP3    H125559   7.899   6.646   4.122
 8538TIP3    H225560   7.798   6.684   4.228
 8539TIP3   OH225561   6.207   3.945   0.890
 8539TIP3    H125562   6.145   3.936   0.962
 8539TIP3    H225563   6.172   3.889   0.821
 8540TIP3   OH225564   2.317   1.045   3.398
 8540TIP3    H125565   2.260   0.969   3.389
 8540TIP3    H225566   2.366   1.048   3.316
 8541TIP3   OH225567   5.344   2.819   1.764
 8541TIP3    H125568   5.287   2.773   1.826
 8541TIP3    H225569   5.330   2.774   1.681
 8542TIP3   OH225570   7.888   1.199   6.096
 8542TIP3    H125571   7.913   1.288   6.119
 8542TIP3    H225572   7.808   1.183   6.146
 8543TIP3   OH225573   7.307   4.089   0.235
 8543TIP3    H125574   7.263   4.007   0.258
 8543TIP3    H225575   7.312   4.087   0.139
 8544TIP3   OH225576   0.578   4.426   0.356
 8544TIP3    H125577   0.500   4.387   0.397
 8544TIP3    H225578   0.557   4.519   0.350
 8545TIP3   OH225579   3.655   5.980   4.907
 8545TIP3    H125580   3.737   5.975   4.957
 8545TIP3    H225581   3.665   6.058   4.853
 8546TIP3   OH225582   2.361   3.935   4.993
 8546TIP3    H125583   2.440   3.974   5.032
 8546TIP3    H225584   2.316   4.009   4.952
 8547TIP3   OH225585   1.999   5.916   2.394
 8547TIP3    H125586   1.998   6.004   2.432
 8547TIP3    H225587   1.906   5.893   2.384
 8548TIP3   OH225588   7.332   3.950   4.725
 8548TIP3    H125589   7.294   4.023   4.774
 8548TIP3    H225590   7.257   3.897   4.699
 8549TIP3   OH225591   5.139   5.935   4.426
 8549TIP3    H125592   5.131   5.939   4.331
 8549TIP3    H225593   5.126   5.843   4.447
 8550TIP3   OH225594   0.317   7.006   5.924
 8550TIP3    H125595   0.375   6.963   5.987
 8550TIP3    H225596   0.324   7.099   5.944
 8551TIP3   OH225597   3.124   4.413   6.226
 8551TIP3    H125598   3.119   4.506   6.201
 8551TIP3    H225599   3.058   4.403   6.295
 8552TIP3   OH225600   6.891   6.557   4.226
 8552TIP3    H125601   6.797   6.557   4.206
 8552TIP3    H225602   6.932   6.533   4.143
 8553TIP3   OH225603   4.398   7.542   4.933
 8553TIP3    H125604   4.368   7.478   4.998
 8553TIP3    H225605   4.480   7.575   4.969
 8554TIP3   OH225606   1.192   4.226   3.368
 8554TIP3    H125607   1.157   4.137   3.364
 8554TIP3    H225608   1.183   4.251   3.460
 8555TIP3   OH225609   2.223   7.179   3.150
 8555TIP3    H125610   2.312   7.153   3.125
 8555TIP3    H225611   2.176   7.186   3.067
 8556TIP3   OH225612   2.749   7.207   1.496
 8556TIP3    H125613   2.768   7.271   1.565
 8556TIP3    H225614   2.778   7.124   1.531
 8557TIP3   OH225615   1.721   4.070   6.307
 8557TIP3    H125616   1.745   3.979   6.327
 8557TIP3    H225617   1.787   4.123   6.351
 8558TIP3   OH225618   6.992   5.300   5.257
 8558TIP3    H125619   7.082   5.316   5.230
 8558TIP3    H225620   7.000   5.262   5.345
 8559TIP3   OH225621   6.378   6.682   0.163
 8559TIP3    H125622   6.392   6.600   0.210
 8559TIP3    H225623   6.284   6.684   0.146
 8560TIP3   OH225624   0.492   6.567   3.691
 8560TIP3    H125625   0.526   6.496   3.746
 8560TIP3    H225626   0.399   6.547   3.681
 8561TIP3   OH225627   7.174   0.615   6.696
 8561TIP3    H125628   7.147   0.667   6.620
 8561TIP3    H225629   7.201   0.679   6.761
 8562TIP3   OH225630   0.371   4.505   1.832
 8562TIP3    H125631   0.358   4.432   1.772
 8562TIP3    H225632   0.415   4.572   1.780
 8563TIP3   OH225633   1.059   6.419   6.285
 8563TIP3    H125634   1.110   6.385   6.212
 8563TIP3    H225635   1.076   6.514   6.284
 8564TIP3   OH225636   5.834   0.634   6.300
 8564TIP3    H125637   5.844   0.727   6.282
 8564TIP3    H225638   5.740   0.623   6.316
 8565TIP3   OH225639   5.142   2.048   0.133
 8565TIP3    H125640   5.173   2.109   0.200
 8565TIP3    H225641   5.048   2.066   0.125
 8566TIP3   OH225642   1.681   5.101   0.842
 8566TIP3    H125643   1.761   5.154   0.834
 8566TIP3    H225644   1.613   5.153   0.799
 8567TIP3   OH225645   6.306   2.690   6.060
 8567TIP3    H125646   6.267   2.662   5.977
 8567TIP3    H225647   6.240   2.747   6.099
 8568TIP3   OH225648   6.608   6.911   1.744
 8568TIP3    H125649   6.516   6.908   1.719
 8568TIP3    H225650   6.617   6.993   1.793
 8569TIP3   OH225651   5.441   4.799   6.036
 8569TIP3    H125652   5.365   4.771   6.086
 8569TIP3    H225653   5.404   4.858   5.969
 8570TIP3   OH225654   7.943   4.251   4.842
 8570TIP3    H125655   7.963   4.287   4.756
 8570TIP3    H225656   7.858   4.209   4.831
 8571TIP3   OH225657   8.002   1.735   3.299
 8571TIP3    H125658   7.940   1.808   3.295
 8571TIP3    H225659   8.008   1.714   3.393
 8572TIP3   OH225660   0.386   6.912   5.486
 8572TIP3    H125661   0.343   6.862   5.556
 8572TIP3    H225662   0.473   6.931   5.520
 8573TIP3   OH225663   6.350   3.348   5.002
 8573TIP3    H125664   6.354   3.437   4.967
 8573TIP3    H225665   6.432   3.308   4.975
 8574TIP3   OH225666   4.729   7.708   0.224
 8574TIP3    H125667   4.808   7.668   0.262
 8574TIP3    H225668   4.663   7.699   0.293
 8575TIP3   OH225669   2.333   2.717   4.401
 8575TIP3    H125670   2.374   2.706   4.314
 8575TIP3    H225671   2.406   2.707   4.462
 8576TIP3   OH225672   7.124   6.183   4.153
 8576TIP3    H125673   7.094   6.118   4.089
 8576TIP3    H225674   7.219   6.189   4.138
 8577TIP3   OH225675   6.709   1.795   3.958
 8577TIP3    H125676   6.785   1.853   3.947
 8577TIP3    H225677   6.746   1.713   3.990
 8578TIP3   OH225678   5.293   5.460   0.509
 8578TIP3    H125679   5.266   5.550   0.526
 8578TIP3    H225680   5.382   5.467   0.475
 8579TIP3   OH225681   6.090   4.712   2.683
 8579TIP3    H125682   6.046   4.797   2.675
 8579TIP3    H225683   6.118   4.690   2.594
 8580TIP3   OH225684   2.629   4.980   0.340
 8580TIP3    H125685   2.628   4.996   0.434
 8580TIP3    H225686   2.604   5.064   0.301
 8581TIP3   OH225687   5.894   1.274   2.866
 8581TIP3    H125688   5.893   1.187   2.827
 8581TIP3    H225689   5.976   1.313   2.834
 8582TIP3   OH225690   2.011   2.336   1.378
 8582TIP3    H125691   2.015   2.376   1.464
 8582TIP3    H225692   1.973   2.250   1.393
 8583TIP3   OH225693   4.464   4.996   4.308
 8583TIP3    H125694   4.511   4.931   4.256
 8583TIP3    H225695   4.529   5.063   4.327
 8584TIP3   OH225696   6.191   6.732   1.930
 8584TIP3    H125697   6.277   6.692   1.942
 8584TIP3    H225698   6.130   6.659   1.936
 8585TIP3   OH225699   6.825   1.664   2.229
 8585TIP3    H125700   6.911   1.703   2.249
 8585TIP3    H225701   6.764   1.738   2.231
 8586TIP3   OH225702   7.994   0.566   3.237
 8586TIP3    H125703   8.010   0.480   3.199
 8586TIP3    H225704   7.911   0.557   3.283
 8587TIP3   OH225705   2.392   4.976   1.769
 8587TIP3    H125706   2.465   4.953   1.827
 8587TIP3    H225707   2.317   4.929   1.804
 8588TIP3   OH225708   1.735   5.876   1.834
 8588TIP3    H125709   1.793   5.933   1.884
 8588TIP3    H225710   1.711   5.807   1.896
 8589TIP3   OH225711   2.248   4.861   0.883
 8589TIP3    H125712   2.156   4.835   0.887
 8589TIP3    H225713   2.249   4.934   0.821
 8590TIP3   OH225714   2.467   1.565   5.830
 8590TIP3    H125715   2.498   1.474   5.836
 8590TIP3    H225716   2.444   1.588   5.920
 8591TIP3   OH225717   6.494   5.306   6.100
 8591TIP3    H125718   6.427   5.315   6.167
 8591TIP3    H225719   6.545   5.387   6.106
 8592TIP3   OH225720   3.945   7.793   3.872
 8592TIP3    H125721   3.849   7.795   3.873
 8592TIP3    H225722   3.971   7.877   3.910
 8593TIP3   OH225723   4.901   6.001   6.302
 8593TIP3    H125724   4.825   6.059   6.302
 8593TIP3    H225725   4.972   6.053   6.265
 8594TIP3   OH225726   3.294   4.046   3.074
 8594TIP3    H125727   3.315   4.123   3.021
 8594TIP3    H225728   3.363   4.043   3.140
 8595TIP3   OH225729   1.438   5.358   5.674
 8595TIP3    H125730   1.361   5.354   5.617
 8595TIP3    H225731   1.512   5.372   5.615
 8596TIP3   OH225732   4.782   1.789   0.496
 8596TIP3    H125733   4.729   1.722   0.539
 8596TIP3    H225734   4.744   1.798   0.409
 8597TIP3   OH225735   8.029   3.761   3.723
 8597TIP3    H125736   8.019   3.849   3.760
 8597TIP3    H225737   7.958   3.754   3.659
 8598TIP3   OH225738   0.491   5.920   1.609
 8598TIP3    H125739   0.483   5.926   1.705
 8598TIP3    H225740   0.468   5.829   1.589
 8599TIP3   OH225741   0.595   7.655   6.554
 8599TIP3    H125742   0.566   7.746   6.548
 8599TIP3    H225743   0.675   7.652   6.502
 8600TIP3   OH225744   6.586   3.602   1.613
 8600TIP3    H125745   6.633   3.662   1.555
 8600TIP3    H225746   6.528   3.659   1.665
 8601TIP3   OH225747   1.958   5.566   1.986
 8601TIP3    H125748   1.874   5.557   2.031
 8601TIP3    H225749   1.935   5.589   1.896
 8602TIP3   OH225750   4.464   2.875   4.168
 8602TIP3    H125751   4.468   2.970   4.155
 8602TIP3    H225752   4.441   2.840   4.082
 8603TIP3   OH225753   5.579   5.743   6.763
 8603TIP3    H125754   5.511   5.749   6.830
 8603TIP3    H225755   5.654   5.790   6.799
 8604TIP3   OH225756   4.226   1.784   1.332
 8604TIP3    H125757   4.297   1.726   1.359
 8604TIP3    H225758   4.181   1.806   1.413
 8605TIP3   OH225759   1.877   2.825   5.024
 8605TIP3    H125760   1.814   2.753   5.027
 8605TIP3    H225761   1.864   2.864   4.938
 8606TIP3   OH225762   7.296   2.624   5.133
 8606TIP3    H125763   7.286   2.550   5.072
 8606TIP3    H225764   7.364   2.679   5.093
 8607TIP3   OH225765   6.332   0.843   6.390
 8607TIP3    H125766   6.248   0.854   6.346
 8607TIP3    H225767   6.351   0.749   6.382
 8608TIP3   OH225768   5.887   6.247   5.077
 8608TIP3    H125769   5.907   6.155   5.061
 8608TIP3    H225770   5.930   6.267   5.160
 8609TIP3   OH225771   8.083   3.576   3.221
 8609TIP3    H125772   8.171   3.613   3.232
 8609TIP3    H225773   8.048   3.622   3.145
 8610TIP3   OH225774   6.309   3.013   0.055
 8610TIP3    H125775   6.391   3.000   0.102
 8610TIP3    H225776   6.299   3.108   0.049
 8611TIP3   OH225777   7.004   2.299   0.615
 8611TIP3    H125778   7.093   2.268   0.629
 8611TIP3    H225779   6.977   2.259   0.533
 8612TIP3   OH225780   5.499   4.590   5.525
 8612TIP3    H125781   5.574   4.630   5.570
 8612TIP3    H225782   5.432   4.659   5.525
 8613TIP3   OH225783   5.644   5.441   0.820
 8613TIP3    H125784   5.584   5.367   0.819
 8613TIP3    H225785   5.589   5.517   0.799
 8614TIP3   OH225786   5.842   3.654   2.606
 8614TIP3    H125787   5.784   3.729   2.619
 8614TIP3    H225788   5.920   3.675   2.657
 8615TIP3   OH225789   5.346   0.835   5.350
 8615TIP3    H125790   5.426   0.819   5.301
 8615TIP3    H225791   5.315   0.920   5.319
 8616TIP3   OH225792   1.264   0.114   0.590
 8616TIP3    H125793   1.337   0.071   0.545
 8616TIP3    H225794   1.190   0.102   0.531
 8617TIP3   OH225795   1.018   0.105   0.471
 8617TIP3    H125796   0.981   0.052   0.541
 8617TIP3    H225797   0.958   0.093   0.397
 8618TIP3   OH225798   3.547   2.295   4.184
 8618TIP3    H125799   3.570   2.202   4.178
 8618TIP3    H225800   3.595   2.336   4.112
 8619TIP3   OH225801   8.147   5.420   1.039
 8619TIP3    H125802   8.080   5.480   1.073
 8619TIP3    H225803   8.109   5.333   1.050
 8620TIP3   OH225804   3.298   4.710   0.781
 8620TIP3    H125805   3.297   4.805   0.775
 8620TIP3    H225806   3.263   4.680   0.697
 8621TIP3   OH225807   1.497   6.034   3.904
 8621TIP3    H125808   1.467   6.123   3.916
 8621TIP3    H225809   1.523   6.005   3.992
 8622TIP3   OH225810   1.066   2.938   5.156
 8622TIP3    H125811   1.032   2.851   5.180
 8622TIP3    H225812   1.108   2.970   5.236
 8623TIP3   OH225813   1.013   0.313   2.260
 8623TIP3    H125814   1.061   0.231   2.270
 8623TIP3    H225815   0.931   0.287   2.217
 8624TIP3   OH225816   6.311   6.262   1.376
 8624TIP3    H125817   6.306   6.168   1.394
 8624TIP3    H225818   6.354   6.267   1.290
 8625TIP3   OH225819   2.585   3.208   6.412
 8625TIP3    H125820   2.490   3.217   6.421
 8625TIP3    H225821   2.597   3.121   6.376
 8626TIP3   OH225822   5.782   4.350   5.123
 8626TIP3    H125823   5.843   4.320   5.190
 8626TIP3    H225824   5.719   4.403   5.171
 8627TIP3   OH225825   7.461   5.996   3.872
 8627TIP3    H125826   7.378   6.031   3.904
 8627TIP3    H225827   7.476   6.041   3.789
 8628TIP3   OH225828   7.345   5.533   5.210
 8628TIP3    H125829   7.297   5.556   5.289
 8628TIP3    H225830   7.315   5.595   5.143
 8629TIP3   OH225831   7.558   0.389   0.147
 8629TIP3    H125832   7.466   0.408   0.130
 8629TIP3    H225833   7.559   0.297   0.174
 8630TIP3   OH225834   0.769   6.254   6.226
 8630TIP3    H125835   0.753   6.219   6.313
 8630TIP3    H225836   0.730   6.341   6.227
 8631TIP3   OH225837   3.416   4.917   2.907
 8631TIP3    H125838   3.428   4.874   2.992
 8631TIP3    H225839   3.468   4.997   2.913
 8632TIP3   OH225840   4.937   2.627   0.029
 8632TIP3    H125841   4.912   2.701   0.084
 8632TIP3    H225842   4.992   2.665  -0.039
 8633TIP3   OH225843   1.593   6.995   3.949
 8633TIP3    H125844   1.550   7.080   3.951
 8633TIP3    H225845   1.549   6.944   4.017
 8634TIP3   OH225846   0.247   4.793   4.577
 8634TIP3    H125847   0.320   4.834   4.530
 8634TIP3    H225848   0.230   4.712   4.529
 8635TIP3   OH225849   5.816   5.016   5.368
 8635TIP3    H125850   5.754   5.060   5.310
 8635TIP3    H225851   5.901   5.055   5.346
 8636TIP3   OH225852   5.395   7.312   3.550
 8636TIP3    H125853   5.442   7.229   3.539
 8636TIP3    H225854   5.319   7.289   3.605
 8637TIP3   OH225855   3.866   1.745   2.528
 8637TIP3    H125856   3.805   1.818   2.542
 8637TIP3    H225857   3.864   1.729   2.434
 8638TIP3   OH225858   1.864   7.478   1.545
 8638TIP3    H125859   1.952   7.511   1.562
 8638TIP3    H225860   1.822   7.475   1.632
 8639TIP3   OH225861   2.765   1.834   6.137
 8639TIP3    H125862   2.681   1.853   6.179
 8639TIP3    H225863   2.831   1.863   6.201
 8640TIP3   OH225864   1.457   5.609   1.719
 8640TIP3    H125865   1.495   5.580   1.802
 8640TIP3    H225866   1.502   5.555   1.653
 8641TIP3   OH225867   1.737   6.672   1.270
 8641TIP3    H125868   1.708   6.583   1.289
 8641TIP3    H225869   1.825   6.661   1.235
 8642TIP3   OH225870   3.725   0.094   3.164
 8642TIP3    H125871   3.816   0.067   3.153
 8642TIP3    H225872   3.728   0.167   3.226
 8643TIP3   OH225873   0.781   5.976   1.985
 8643TIP3    H125874   0.756   5.884   1.984
 8643TIP3    H225875   0.698   6.024   1.984
 8644TIP3   OH225876   5.201   6.641   0.711
 8644TIP3    H125877   5.131   6.694   0.673
 8644TIP3    H225878   5.280   6.670   0.665
 8645TIP3   OH225879   5.947   2.339   6.007
 8645TIP3    H125880   5.920   2.261   5.958
 8645TIP3    H225881   5.935   2.411   5.945
 8646TIP3   OH225882   4.901   3.047   0.679
 8646TIP3    H125883   4.894   3.137   0.646
 8646TIP3    H225884   4.960   3.004   0.617
 8647TIP3   OH225885   2.785   3.414   1.505
 8647TIP3    H125886   2.787   3.325   1.469
 8647TIP3    H225887   2.852   3.461   1.455
 8648TIP3   OH225888   1.171   1.948   0.450
 8648TIP3    H125889   1.229   1.872   0.443
 8648TIP3    H225890   1.175   1.972   0.543
 8649TIP3   OH225891   1.548   1.174   4.749
 8649TIP3    H125892   1.581   1.099   4.798
 8649TIP3    H225893   1.464   1.195   4.791
 8650TIP3   OH225894   1.231   3.772   6.527
 8650TIP3    H125895   1.301   3.830   6.556
 8650TIP3    H225896   1.252   3.686   6.565
 8651TIP3   OH225897   2.887   2.570   3.292
 8651TIP3    H125898   2.855   2.557   3.381
 8651TIP3    H225899   2.871   2.663   3.274
 8652TIP3   OH225900   1.660   7.108   2.674
 8652TIP3    H125901   1.705   7.193   2.672
 8652TIP3    H225902   1.721   7.048   2.630
 8653TIP3   OH225903   5.811   7.702   5.415
 8653TIP3    H125904   5.755   7.770   5.454
 8653TIP3    H225905   5.862   7.748   5.348
 8654TIP3   OH225906   4.101   3.163   5.176
 8654TIP3    H125907   4.196   3.179   5.178
 8654TIP3    H225908   4.087   3.114   5.095
 8655TIP3   OH225909   2.170   3.609   3.524
 8655TIP3    H125910   2.089   3.584   3.570
 8655TIP3    H225911   2.169   3.705   3.525
 8656TIP3   OH225912   7.023   5.857   3.577
 8656TIP3    H125913   6.985   5.770   3.570
 8656TIP3    H225914   7.117   5.842   3.583
 8657TIP3   OH225915   2.962   7.562   3.047
 8657TIP3    H125916   2.896   7.512   3.095
 8657TIP3    H225917   2.914   7.636   3.010
 8658TIP3   OH225918   5.236   5.653   3.799
 8658TIP3    H125919   5.298   5.624   3.732
 8658TIP3    H225920   5.165   5.694   3.750
 8659TIP3   OH225921   7.313   1.145   3.749
 8659TIP3    H125922   7.332   1.052   3.742
 8659TIP3    H225923   7.235   1.158   3.695
 8660TIP3   OH225924   5.249   5.489   0.200
 8660TIP3    H125925   5.219   5.487   0.290
 8660TIP3    H225926   5.337   5.452   0.204
 8661TIP3   OH225927   0.808   1.433   5.341
 8661TIP3    H125928   0.861   1.408   5.416
 8661TIP3    H225929   0.862   1.495   5.292
 8662TIP3   OH225930   0.749   0.355   4.700
 8662TIP3    H125931   0.801   0.308   4.766
 8662TIP3    H225932   0.694   0.414   4.751
 8663TIP3   OH225933   6.369   2.106   3.801
 8663TIP3    H125934   6.329   2.140   3.722
 8663TIP3    H225935   6.359   2.011   3.793
 8664TIP3   OH225936   6.197   6.519   0.745
 8664TIP3    H125937   6.104   6.534   0.728
 8664TIP3    H225938   6.199   6.481   0.833
 8665TIP3   OH225939   4.655   5.971   4.884
 8665TIP3    H125940   4.596   5.949   4.812
 8665TIP3    H225941   4.596   5.985   4.959
 8666TIP3   OH225942   4.867   3.894   5.520
 8666TIP3    H125943   4.780   3.867   5.492
 8666TIP3    H225944   4.889   3.836   5.592
 8667TIP3   OH225945   7.441   6.449   0.427
 8667TIP3    H125946   7.519   6.490   0.466
 8667TIP3    H225947   7.438   6.362   0.467
 8668TIP3   OH225948   2.314   5.891   6.229
 8668TIP3    H125949   2.397   5.938   6.241
 8668TIP3    H225950   2.285   5.916   6.142
 8669TIP3   OH225951   3.040   4.788   1.670
 8669TIP3    H125952   3.024   4.770   1.577
 8669TIP3    H225953   3.090   4.870   1.670
 8670TIP3   OH225954   4.784   7.421   4.982
 8670TIP3    H125955   4.717   7.378   4.928
 8670TIP3    H225956   4.860   7.363   4.976
 8671TIP3   OH225957   4.886   3.831   2.828
 8671TIP3    H125958   4.833   3.752   2.815
 8671TIP3    H225959   4.975   3.805   2.805
 8672TIP3   OH225960   0.923   0.196   1.533
 8672TIP3    H125961   0.899   0.248   1.456
 8672TIP3    H225962   1.011   0.164   1.513
 8673TIP3   OH225963   3.052   5.846   4.214
 8673TIP3    H125964   3.133   5.825   4.167
 8673TIP3    H225965   3.078   5.849   4.306
 8674TIP3   OH225966   4.733   0.728   0.179
 8674TIP3    H125967   4.782   0.758   0.255
 8674TIP3    H225968   4.800   0.712   0.112
 8675TIP3   OH225969   6.178   5.583   3.664
 8675TIP3    H125970   6.183   5.678   3.676
 8675TIP3    H225971   6.084   5.563   3.667
 8676TIP3   OH225972   6.217   1.004   0.628
 8676TIP3    H125973   6.247   1.031   0.715
 8676TIP3    H225974   6.296   1.009   0.574
 8677TIP3   OH225975   2.505   2.325   5.483
 8677TIP3    H125976   2.432   2.297   5.538
 8677TIP3    H225977   2.578   2.338   5.544
 8678TIP3   OH225978   1.050   5.410   3.194
 8678TIP3    H125979   0.957   5.426   3.207
 8678TIP3    H225980   1.064   5.423   3.100
 8679TIP3   OH225981   3.638   5.054   0.798
 8679TIP3    H125982   3.714   5.062   0.740
 8679TIP3    H225983   3.572   5.110   0.759
 8680TIP3   OH225984   1.417   5.469   5.938
 8680TIP3    H125985   1.407   5.418   5.858
 8680TIP3    H225986   1.356   5.542   5.928
 8681TIP3   OH225987   4.604   5.660   2.870
 8681TIP3    H125988   4.574   5.746   2.840
 8681TIP3    H225989   4.665   5.680   2.941
 8682TIP3   OH225990   0.217   1.806   6.752
 8682TIP3    H125991   0.240   1.715   6.769
 8682TIP3    H225992   0.133   1.801   6.706
 8683TIP3   OH225993   2.784   3.432   5.350
 8683TIP3    H125994   2.768   3.344   5.385
 8683TIP3    H225995   2.834   3.417   5.269
 8684TIP3   OH225996   4.626   3.846   5.889
 8684TIP3    H125997   4.629   3.752   5.905
 8684TIP3    H225998   4.537   3.872   5.913
 8685TIP3   OH225999   1.766   4.945   5.139
 8685TIP3    H126000   1.797   4.857   5.159
 8685TIP3    H226001   1.753   4.986   5.225
 8686TIP3   OH226002   7.135   2.493   1.029
 8686TIP3    H126003   7.118   2.438   1.106
 8686TIP3    H226004   7.050   2.498   0.985
 8687TIP3   OH226005   2.605   3.102   0.522
 8687TIP3    H126006   2.690   3.067   0.549
 8687TIP3    H226007   2.562   3.028   0.479
 8688TIP3   OH226008   7.189   2.746   4.068
 8688TIP3    H126009   7.125   2.817   4.073
 8688TIP3    H226010   7.146   2.672   4.109
 8689TIP3   OH226011   3.408   7.628   3.286
 8689TIP3    H126012   3.347   7.670   3.226
 8689TIP3    H226013   3.453   7.563   3.233
 8690TIP3   OH226014   7.178   0.701   1.124
 8690TIP3    H126015   7.265   0.677   1.155
 8690TIP3    H226016   7.119   0.664   1.189
 8691TIP3   OH226017   5.551   4.940   2.850
 8691TIP3    H126018   5.476   4.964   2.795
 8691TIP3    H226019   5.585   5.024   2.881
 8692TIP3   OH226020   8.021   2.459   1.414
 8692TIP3    H126021   8.071   2.539   1.434
 8692TIP3    H226022   7.982   2.435   1.498
 8693TIP3   OH226023   3.677   2.932   6.537
 8693TIP3    H126024   3.592   2.908   6.501
 8693TIP3    H226025   3.662   3.015   6.581
 8694TIP3   OH226026   5.928   6.467   4.339
 8694TIP3    H126027   5.916   6.437   4.430
 8694TIP3    H226028   5.848   6.514   4.318
 8695TIP3   OH226029   6.452   3.808   3.145
 8695TIP3    H126030   6.503   3.759   3.080
 8695TIP3    H226031   6.364   3.773   3.137
 8696TIP3   OH226032   4.328   1.747   5.531
 8696TIP3    H126033   4.289   1.826   5.494
 8696TIP3    H226034   4.274   1.727   5.607
 8697TIP3   OH226035   3.193   1.775   5.970
 8697TIP3    H126036   3.138   1.700   5.948
 8697TIP3    H226037   3.144   1.851   5.940
 8698TIP3   OH226038   2.848   3.897   5.784
 8698TIP3    H126039   2.832   3.978   5.735
 8698TIP3    H226040   2.878   3.926   5.870
 8699TIP3   OH226041   3.171   3.165   0.692
 8699TIP3    H126042   3.216   3.158   0.607
 8699TIP3    H226043   3.095   3.220   0.674
 8700TIP3   OH226044   3.261   3.625   5.301
 8700TIP3    H126045   3.202   3.697   5.278
 8700TIP3    H226046   3.261   3.624   5.397
 8701TIP3   OH226047   4.941   0.263   5.697
 8701TIP3    H126048   4.913   0.173   5.715
 8701TIP3    H226049   5.012   0.279   5.760
 8702TIP3   OH226050   1.284   1.413   0.573
 8702TIP3    H126051   1.215   1.359   0.611
 8702TIP3    H226052   1.322   1.460   0.647
 8703TIP3   OH226053   3.334   7.033   1.308
 8703TIP3    H126054   3.371   7.070   1.229
 8703TIP3    H226055   3.308   7.108   1.361
 8704TIP3   OH226056   3.317   7.111   6.513
 8704TIP3    H126057   3.300   7.017   6.505
 8704TIP3    H226058   3.390   7.127   6.453
 8705TIP3   OH226059   0.760   3.474   4.838
 8705TIP3    H126060   0.722   3.402   4.887
 8705TIP3    H226061   0.769   3.545   4.902
 8706TIP3   OH226062   1.530   6.066   5.540
 8706TIP3    H126063   1.575   5.992   5.500
 8706TIP3    H226064   1.441   6.062   5.504
 8707TIP3   OH226065   7.480   1.737   5.257
 8707TIP3    H126066   7.428   1.777   5.327
 8707TIP3    H226067   7.548   1.802   5.237
 8708TIP3   OH226068   2.998   2.504   6.414
 8708TIP3    H126069   3.048   2.487   6.494
 8708TIP3    H226070   2.951   2.422   6.398
 8709TIP3   OH226071   3.051   0.243   4.979
 8709TIP3    H126072   2.994   0.197   5.040
 8709TIP3    H226073   3.096   0.309   5.032
 8710TIP3   OH226074   4.737   6.171   3.216
 8710TIP3    H126075   4.649   6.175   3.179
 8710TIP3    H226076   4.753   6.078   3.230
 8711TIP3   OH226077   5.091   3.578   1.359
 8711TIP3    H126078   5.096   3.501   1.302
 8711TIP3    H226079   5.007   3.618   1.338
 8712TIP3   OH226080   4.011   1.686   5.394
 8712TIP3    H126081   4.045   1.602   5.423
 8712TIP3    H226082   4.066   1.711   5.320
 8713TIP3   OH226083   4.729   3.347   5.316
 8713TIP3    H126084   4.806   3.361   5.371
 8713TIP3    H226085   4.762   3.357   5.226
 8714TIP3   OH226086   7.932   2.827   1.401
 8714TIP3    H126087   7.881   2.771   1.342
 8714TIP3    H226088   7.917   2.790   1.488
 8715TIP3   OH226089   0.921   7.619   0.723
 8715TIP3    H126090   0.829   7.602   0.745
 8715TIP3    H226091   0.943   7.698   0.772
 8716TIP3   OH226092   8.247   7.668   3.286
 8716TIP3    H126093   8.269   7.686   3.377
 8716TIP3    H226094   8.327   7.629   3.249
 8717TIP3   OH226095   0.772   5.206   0.031
 8717TIP3    H126096   0.797   5.293   0.062
 8717TIP3    H226097   0.719   5.223  -0.047
 8718TIP3   OH226098   1.036   5.906   5.089
 8718TIP3    H126099   1.036   5.811   5.101
 8718TIP3    H226100   1.110   5.936   5.142
 8719TIP3   OH226101   0.863   4.060   1.078
 8719TIP3    H126102   0.844   4.055   1.172
 8719TIP3    H226103   0.958   4.057   1.072
 8720TIP3   OH226104   1.395   2.108   4.441
 8720TIP3    H126105   1.374   2.201   4.434
 8720TIP3    H226106   1.491   2.105   4.440
 8721TIP3   OH226107   7.595   3.985   2.928
 8721TIP3    H126108   7.606   4.074   2.961
 8721TIP3    H226109   7.571   3.934   3.005
 8722TIP3   OH226110   2.854   3.523   4.017
 8722TIP3    H126111   2.923   3.566   3.966
 8722TIP3    H226112   2.899   3.450   4.060
 8723TIP3   OH226113   2.652   5.976   5.345
 8723TIP3    H126114   2.658   6.042   5.414
 8723TIP3    H226115   2.729   5.992   5.290
 8724TIP3   OH226116   5.382   6.201   3.398
 8724TIP3    H126117   5.392   6.296   3.391
 8724TIP3    H226118   5.461   6.171   3.443
 8725TIP3   OH226119   2.281   4.019   1.422
 8725TIP3    H126120   2.368   4.055   1.439
 8725TIP3    H226121   2.253   3.982   1.506
 8726TIP3   OH226122   6.862   3.341   5.382
 8726TIP3    H126123   6.767   3.354   5.371
 8726TIP3    H226124   6.873   3.323   5.475
 8727TIP3   OH226125   8.103   2.252   2.547
 8727TIP3    H126126   8.086   2.187   2.478
 8727TIP3    H226127   8.016   2.271   2.583
 8728TIP3   OH226128   1.463   5.252   0.783
 8728TIP3    H126129   1.450   5.335   0.736
 8728TIP3    H226130   1.401   5.257   0.856
 8729TIP3   OH226131   2.688   1.075   2.920
 8729TIP3    H126132   2.687   1.135   2.995
 8729TIP3    H226133   2.626   1.113   2.858
 8730TIP3   OH226134   2.644   5.236   3.833
 8730TIP3    H126135   2.638   5.140   3.831
 8730TIP3    H226136   2.637   5.262   3.741
 8731TIP3   OH226137   7.328   2.882   0.245
 8731TIP3    H126138   7.366   2.804   0.287
 8731TIP3    H226139   7.338   2.951   0.311
 8732TIP3   OH226140   5.220   3.923   2.511
 8732TIP3    H126141   5.243   3.913   2.418
 8732TIP3    H226142   5.271   3.856   2.556
 8733TIP3   OH226143   0.139   4.080   3.748
 8733TIP3    H126144   0.167   4.128   3.670
 8733TIP3    H226145   0.045   4.097   3.755
 8734TIP3   OH226146   4.811   7.402   2.104
 8734TIP3    H126147   4.904   7.408   2.125
 8734TIP3    H226148   4.788   7.490   2.072
 8735TIP3   OH226149   5.908   2.673   4.517
 8735TIP3    H126150   5.898   2.760   4.556
 8735TIP3    H226151   5.995   2.675   4.477
 8736TIP3   OH226152   2.764   0.192   4.112
 8736TIP3    H126153   2.723   0.265   4.066
 8736TIP3    H226154   2.709   0.177   4.189
 8737TIP3   OH226155   1.955   1.664   6.722
 8737TIP3    H126156   1.938   1.633   6.633
 8737TIP3    H226157   1.981   1.755   6.711
 8738TIP3   OH226158   7.469   6.873   0.851
 8738TIP3    H126159   7.429   6.939   0.794
 8738TIP3    H226160   7.458   6.908   0.939
 8739TIP3   OH226161   0.435   1.819   6.008
 8739TIP3    H126162   0.460   1.747   6.066
 8739TIP3    H226163   0.497   1.813   5.935
 8740TIP3   OH226164   5.632   1.924   2.588
 8740TIP3    H126165   5.614   1.895   2.677
 8740TIP3    H226166   5.559   1.892   2.537
 8741TIP3   OH226167   2.791   1.343   2.454
 8741TIP3    H126168   2.700   1.318   2.470
 8741TIP3    H226169   2.832   1.337   2.540
 8742TIP3   OH226170   2.714   0.082   0.675
 8742TIP3    H126171   2.655   0.052   0.744
 8742TIP3    H226172   2.656   0.114   0.606
 8743TIP3   OH226173   7.968   5.517   0.599
 8743TIP3    H126174   8.045   5.508   0.655
 8743TIP3    H226175   7.899   5.546   0.659
 8744TIP3   OH226176   7.137   1.586   5.427
 8744TIP3    H126177   7.048   1.583   5.462
 8744TIP3    H226178   7.176   1.665   5.466
 8745TIP3   OH226179   4.200   6.766   3.231
 8745TIP3    H126180   4.270   6.783   3.168
 8745TIP3    H226181   4.140   6.707   3.185
 8746TIP3   OH226182   6.723   5.746   0.252
 8746TIP3    H126183   6.806   5.767   0.210
 8746TIP3    H226184   6.734   5.773   0.343
 8747TIP3   OH226185   2.894   3.108   5.339
 8747TIP3    H126186   2.951   3.165   5.287
 8747TIP3    H226187   2.920   3.019   5.313
 8748TIP3   OH226188   1.638   4.395   3.044
 8748TIP3    H126189   1.543   4.388   3.032
 8748TIP3    H226190   1.674   4.326   2.988
 8749TIP3   OH226191   2.510   5.278   5.241
 8749TIP3    H126192   2.420   5.300   5.218
 8749TIP3    H226193   2.552   5.363   5.255
 8750TIP3   OH226194   3.824   4.740   1.673
 8750TIP3    H126195   3.782   4.654   1.669
 8750TIP3    H226196   3.881   4.743   1.596
 8751TIP3   OH226197   2.823   5.686   5.252
 8751TIP3    H126198   2.847   5.763   5.302
 8751TIP3    H226199   2.880   5.688   5.175
 8752TIP3   OH226200   5.663   3.590   3.841
 8752TIP3    H126201   5.755   3.583   3.868
 8752TIP3    H226202   5.641   3.682   3.855
 8753TIP3   OH226203   0.099   5.678   4.972
 8753TIP3    H126204   0.122   5.621   4.898
 8753TIP3    H226205   0.143   5.638   5.047
 8754TIP3   OH226206   7.562   2.216   2.386
 8754TIP3    H126207   7.632   2.166   2.428
 8754TIP3    H226208   7.502   2.151   2.352
 8755TIP3   OH226209   5.022   0.719   3.820
 8755TIP3    H126210   5.094   0.731   3.757
 8755TIP3    H226211   4.947   0.759   3.777
 8756TIP3   OH226212   7.105   4.624   0.426
 8756TIP3    H126213   7.185   4.670   0.451
 8756TIP3    H226214   7.040   4.694   0.414
 8757TIP3   OH226215   4.344   2.844   2.209
 8757TIP3    H126216   4.428   2.888   2.195
 8757TIP3    H226217   4.326   2.800   2.126
 8758TIP3   OH226218   8.156   6.127   2.178
 8758TIP3    H126219   8.174   6.047   2.227
 8758TIP3    H226220   8.124   6.096   2.093
 8759TIP3   OH226221   5.595   1.378   6.743
 8759TIP3    H126222   5.673   1.330   6.770
 8759TIP3    H226223   5.540   1.313   6.699
 8760TIP3   OH226224   2.887   6.603   2.456
 8760TIP3    H126225   2.873   6.558   2.372
 8760TIP3    H226226   2.878   6.696   2.435
 8761TIP3   OH226227   6.863   7.748   1.654
 8761TIP3    H126228   6.868   7.704   1.739
 8761TIP3    H226229   6.941   7.718   1.608
 8762TIP3   OH226230   4.551   0.601   1.449
 8762TIP3    H126231   4.599   0.575   1.528
 8762TIP3    H226232   4.488   0.667   1.479
 8763TIP3   OH226233   1.291   7.806   4.314
 8763TIP3    H126234   1.380   7.781   4.289
 8763TIP3    H226235   1.237   7.732   4.287
 8764TIP3   OH226236   1.377   4.483   2.245
 8764TIP3    H126237   1.308   4.475   2.179
 8764TIP3    H226238   1.457   4.492   2.194
 8765TIP3   OH226239   4.742   3.827   0.848
 8765TIP3    H126240   4.810   3.804   0.784
 8765TIP3    H226241   4.788   3.829   0.932
 8766TIP3   OH226242   4.733   0.624   6.015
 8766TIP3    H126243   4.688   0.585   6.089
 8766TIP3    H226244   4.763   0.550   5.962
 8767TIP3   OH226245   3.480   4.579   5.945
 8767TIP3    H126246   3.567   4.569   5.984
 8767TIP3    H226247   3.450   4.664   5.977
 8768TIP3   OH226248   5.976   0.740   1.661
 8768TIP3    H126249   5.963   0.648   1.684
 8768TIP3    H226250   6.030   0.737   1.582
 8769TIP3   OH226251   6.297   3.830   4.554
 8769TIP3    H126252   6.377   3.882   4.546
 8769TIP3    H226253   6.226   3.892   4.537
 8770TIP3   OH226254   6.649   2.821   0.890
 8770TIP3    H126255   6.726   2.877   0.876
 8770TIP3    H226256   6.575   2.874   0.858
 8771TIP3   OH226257   7.974   3.246   3.517
 8771TIP3    H126258   8.002   3.243   3.608
 8771TIP3    H226259   8.051   3.276   3.469
 8772TIP3   OH226260   5.145   3.324   4.348
 8772TIP3    H126261   5.219   3.290   4.298
 8772TIP3    H226262   5.087   3.363   4.283
 8773TIP3   OH226263   2.982   2.396   5.714
 8773TIP3    H126264   3.020   2.422   5.630
 8773TIP3    H226265   3.048   2.421   5.778
 8774TIP3   OH226266   6.424   6.614   6.060
 8774TIP3    H126267   6.445   6.523   6.039
 8774TIP3    H226268   6.442   6.622   6.153
 8775TIP3   OH226269   4.513   6.419   0.712
 8775TIP3    H126270   4.487   6.377   0.629
 8775TIP3    H226271   4.569   6.354   0.755
 8776TIP3   OH226272   7.130   2.136   0.403
 8776TIP3    H126273   7.165   2.224   0.387
 8776TIP3    H226274   7.123   2.096   0.317
 8777TIP3   OH226275   4.472   0.795   0.195
 8777TIP3    H126276   4.556   0.755   0.170
 8777TIP3    H226277   4.439   0.834   0.114
 8778TIP3   OH226278   6.611   0.972   1.898
 8778TIP3    H126279   6.541   1.025   1.936
 8778TIP3    H226280   6.633   0.909   1.966
 8779TIP3   OH226281   4.830   3.953   3.904
 8779TIP3    H126282   4.900   3.945   3.839
 8779TIP3    H226283   4.873   3.942   3.988
 8780TIP3   OH226284   3.874   4.345   4.371
 8780TIP3    H126285   3.830   4.351   4.456
 8780TIP3    H226286   3.964   4.371   4.389
 8781TIP3   OH226287   3.052   1.682   2.886
 8781TIP3    H126288   3.012   1.603   2.850
 8781TIP3    H226289   3.137   1.688   2.841
 8782TIP3   OH226290   0.149   0.498   3.935
 8782TIP3    H126291   0.114   0.567   3.878
 8782TIP3    H226292   0.133   0.417   3.887
 8783TIP3   OH226293   2.044   0.627   0.227
 8783TIP3    H126294   2.088   0.602   0.308
 8783TIP3    H226295   1.962   0.668   0.256
 8784TIP3   OH226296   4.986   6.181   1.221
 8784TIP3    H126297   4.953   6.129   1.149
 8784TIP3    H226298   4.936   6.263   1.216
 8785TIP3   OH226299   0.800   3.883   2.638
 8785TIP3    H126300   0.872   3.907   2.695
 8785TIP3    H226301   0.767   3.801   2.674
 8786TIP3   OH226302   2.914   6.029   3.055
 8786TIP3    H126303   2.865   6.096   3.007
 8786TIP3    H226304   2.860   5.950   3.048
 8787TIP3   OH226305   6.839   5.695   1.755
 8787TIP3    H126306   6.795   5.736   1.680
 8787TIP3    H226307   6.820   5.602   1.746
 8788TIP3   OH226308   5.495   6.314   6.261
 8788TIP3    H126309   5.540   6.246   6.212
 8788TIP3    H226310   5.552   6.332   6.335
 8789TIP3   OH226311   3.860   5.196   3.657
 8789TIP3    H126312   3.785   5.235   3.703
 8789TIP3    H226313   3.821   5.148   3.584
 8790TIP3   OH226314   6.393   7.687   5.174
 8790TIP3    H126315   6.386   7.647   5.087
 8790TIP3    H226316   6.315   7.742   5.181
 8791TIP3   OH226317   1.847   5.100   6.557
 8791TIP3    H126318   1.931   5.054   6.548
 8791TIP3    H226319   1.806   5.059   6.632
 8792TIP3   OH226320   2.079   1.802   0.287
 8792TIP3    H126321   2.157   1.787   0.341
 8792TIP3    H226322   2.106   1.869   0.224
 8793TIP3   OH226323   2.375   4.178   1.881
 8793TIP3    H126324   2.303   4.161   1.819
 8793TIP3    H226325   2.406   4.091   1.905
 8794TIP3   OH226326   3.116   2.339   2.484
 8794TIP3    H126327   3.116   2.348   2.388
 8794TIP3    H226328   3.079   2.253   2.500
 8795TIP3   OH226329   2.572   2.898   5.947
 8795TIP3    H126330   2.660   2.881   5.979
 8795TIP3    H226331   2.565   2.845   5.867
 8796TIP3   OH226332   3.924   1.869   5.589
 8796TIP3    H126333   4.002   1.855   5.642
 8796TIP3    H226334   3.927   1.800   5.523
 8797TIP3   OH226335   3.623   1.340   5.669
 8797TIP3    H126336   3.595   1.252   5.645
 8797TIP3    H226337   3.546   1.395   5.652
 8798TIP3   OH226338   0.530   3.751   2.784
 8798TIP3    H126339   0.544   3.781   2.694
 8798TIP3    H226340   0.599   3.686   2.799
 8799TIP3   OH226341   7.681   5.817   4.188
 8799TIP3    H126342   7.618   5.806   4.259
 8799TIP3    H226343   7.635   5.785   4.110
 8800TIP3   OH226344   7.258   6.408   3.829
 8800TIP3    H126345   7.253   6.435   3.737
 8800TIP3    H226346   7.347   6.376   3.840
 8801TIP3   OH226347   1.987   6.574   2.071
 8801TIP3    H126348   1.987   6.663   2.037
 8801TIP3    H226349   1.942   6.523   2.004
 8802TIP3   OH226350   3.709   4.130   5.993
 8802TIP3    H126351   3.707   4.221   5.962
 8802TIP3    H226352   3.680   4.079   5.918
 8803TIP3   OH226353   7.470   6.478   5.160
 8803TIP3    H126354   7.537   6.432   5.212
 8803TIP3    H226355   7.391   6.425   5.170
 8804TIP3   OH226356   7.091   1.366   3.373
 8804TIP3    H126357   7.089   1.401   3.284
 8804TIP3    H226358   7.149   1.425   3.421
 8805TIP3   OH226359   4.425   2.210   2.721
 8805TIP3    H126360   4.422   2.201   2.625
 8805TIP3    H226361   4.402   2.301   2.737
 8806TIP3   OH226362   1.909   3.241   4.006
 8806TIP3    H126363   1.939   3.316   3.955
 8806TIP3    H226364   1.988   3.188   4.018
 8807TIP3   OH226365   2.529   2.798   6.567
 8807TIP3    H126366   2.503   2.796   6.475
 8807TIP3    H226367   2.611   2.848   6.567
 8808TIP3   OH226368   1.762   5.369   5.718
 8808TIP3    H126369   1.702   5.379   5.644
 8808TIP3    H226370   1.848   5.361   5.678
 8809TIP3   OH226371   6.199   5.188   1.236
 8809TIP3    H126372   6.270   5.205   1.174
 8809TIP3    H226373   6.134   5.140   1.185
 8810TIP3   OH226374   1.234   3.871   2.105
 8810TIP3    H126375   1.263   3.959   2.129
 8810TIP3    H226376   1.229   3.824   2.188
 8811TIP3   OH226377   3.282   6.014   0.734
 8811TIP3    H126378   3.250   5.925   0.750
 8811TIP3    H226379   3.241   6.067   0.802
 8812TIP3   OH226380   6.038   2.457   2.903
 8812TIP3    H126381   6.107   2.435   2.841
 8812TIP3    H226382   6.053   2.550   2.923
 8813TIP3   OH226383   2.336   7.096   2.775
 8813TIP3    H126384   2.412   7.126   2.724
 8813TIP3    H226385   2.282   7.174   2.787
 8814TIP3   OH226386   4.687   1.961   5.981
 8814TIP3    H126387   4.657   2.015   6.055
 8814TIP3    H226388   4.662   2.010   5.903
 8815TIP3   OH226389   3.893   5.873   6.384
 8815TIP3    H126390   3.973   5.910   6.346
 8815TIP3    H226391   3.881   5.790   6.337
 8816TIP3   OH226392   2.642   1.333   2.090
 8816TIP3    H126393   2.585   1.313   2.163
 8816TIP3    H226394   2.730   1.319   2.124
 8817TIP3   OH226395   4.118   4.967   1.619
 8817TIP3    H126396   4.073   5.005   1.544
 8817TIP3    H226397   4.188   5.028   1.640
 8818TIP3   OH226398   1.593   6.595   3.594
 8818TIP3    H126399   1.682   6.615   3.563
 8818TIP3    H226400   1.546   6.678   3.585
 8819TIP3   OH226401   4.379   6.768   6.518
 8819TIP3    H126402   4.332   6.852   6.525
 8819TIP3    H226403   4.439   6.769   6.592
 8820TIP3   OH226404   5.036   7.808   5.231
 8820TIP3    H126405   5.033   7.724   5.184
 8820TIP3    H226406   4.955   7.811   5.281
 8821TIP3   OH226407   3.602   2.551   6.694
 8821TIP3    H126408   3.659   2.522   6.765
 8821TIP3    H226409   3.659   2.554   6.617
 8822TIP3   OH226410   0.033   0.210   1.378
 8822TIP3    H126411   0.024   0.115   1.382
 8822TIP3    H226412   0.031   0.231   1.285
 8823TIP3   OH226413   7.549   4.586   1.434
 8823TIP3    H126414   7.489   4.537   1.376
 8823TIP3    H226415   7.501   4.666   1.455
 8824TIP3   OH226416   3.881   3.221   4.366
 8824TIP3    H126417   3.947   3.251   4.303
 8824TIP3    H226418   3.914   3.138   4.398
 8825TIP3   OH226419   2.052   0.762   6.753
 8825TIP3    H126420   2.086   0.812   6.679
 8825TIP3    H226421   1.983   0.818   6.791
 8826TIP3   OH226422   2.345   6.628   0.978
 8826TIP3    H126423   2.419   6.684   1.004
 8826TIP3    H226424   2.304   6.676   0.906
 8827TIP3   OH226425   5.342   6.058   4.107
 8827TIP3    H126426   5.378   6.003   4.177
 8827TIP3    H226427   5.407   6.052   4.037
 8828TIP3   OH226428   0.144   3.162   3.004
 8828TIP3    H126429   0.171   3.127   2.919
 8828TIP3    H226430   0.092   3.239   2.983
 8829TIP3   OH226431   7.063   4.642   3.688
 8829TIP3    H126432   7.070   4.652   3.593
 8829TIP3    H226433   7.108   4.718   3.724
 8830TIP3   OH226434   6.696   4.054   5.015
 8830TIP3    H126435   6.756   4.014   4.952
 8830TIP3    H226436   6.611   4.015   4.995
 8831TIP3   OH226437   3.899   4.132   4.575
 8831TIP3    H126438   3.964   4.116   4.643
 8831TIP3    H226439   3.835   4.191   4.615
 8832TIP3   OH226440   2.043   5.721   0.435
 8832TIP3    H126441   2.137   5.742   0.433
 8832TIP3    H226442   2.030   5.666   0.358
 8833TIP3   OH226443   1.222   0.569   1.946
 8833TIP3    H126444   1.225   0.579   1.851
 8833TIP3    H226445   1.266   0.486   1.964
 8834TIP3   OH226446   3.510   2.229   5.274
 8834TIP3    H126447   3.524   2.156   5.334
 8834TIP3    H226448   3.595   2.243   5.233
 8835TIP3   OH226449   5.259   6.571   1.575
 8835TIP3    H126450   5.340   6.528   1.602
 8835TIP3    H226451   5.274   6.598   1.485
 8836TIP3   OH226452   6.265   5.284   2.340
 8836TIP3    H126453   6.336   5.314   2.397
 8836TIP3    H226454   6.304   5.215   2.286
 8837TIP3   OH226455   5.077   4.746   4.017
 8837TIP3    H126456   5.085   4.740   3.921
 8837TIP3    H226457   5.037   4.831   4.033
 8838TIP3   OH226458   6.687   0.912   2.488
 8838TIP3    H126459   6.701   0.983   2.425
 8838TIP3    H226460   6.691   0.832   2.435
 8839TIP3   OH226461   4.653   5.697   3.513
 8839TIP3    H126462   4.708   5.671   3.587
 8839TIP3    H226463   4.665   5.792   3.507
 8840TIP3   OH226464   7.544   6.422   1.990
 8840TIP3    H126465   7.498   6.342   2.017
 8840TIP3    H226466   7.483   6.492   2.013
 8841TIP3   OH226467   7.524   4.456   3.516
 8841TIP3    H126468   7.443   4.504   3.505
 8841TIP3    H226469   7.500   4.364   3.505
 8842TIP3   OH226470   2.402   4.996   0.085
 8842TIP3    H126471   2.425   5.046   0.163
 8842TIP3    H226472   2.331   5.046   0.044
 8843TIP3   OH226473   2.223   1.299   3.773
 8843TIP3    H126474   2.138   1.259   3.787
 8843TIP3    H226475   2.221   1.327   3.681
 8844TIP3   OH226476   6.396   5.720   0.855
 8844TIP3    H126477   6.346   5.681   0.783
 8844TIP3    H226478   6.481   5.743   0.816
 8845TIP3   OH226479   5.005   1.787   4.774
 8845TIP3    H126480   5.020   1.881   4.776
 8845TIP3    H226481   5.092   1.749   4.761
 8846TIP3   OH226482   0.326   6.766   0.789
 8846TIP3    H126483   0.384   6.708   0.740
 8846TIP3    H226484   0.285   6.821   0.722
 8847TIP3   OH226485   7.238   1.046   4.026
 8847TIP3    H126486   7.321   1.020   3.984
 8847TIP3    H226487   7.217   1.131   3.986
 8848TIP3   OH226488   6.388   4.825   4.917
 8848TIP3    H126489   6.316   4.838   4.978
 8848TIP3    H226490   6.345   4.817   4.831
 8849TIP3   OH226491   3.668   5.791   5.746
 8849TIP3    H126492   3.645   5.870   5.696
 8849TIP3    H226493   3.585   5.756   5.776
 8850TIP3   OH226494   3.495   3.211   1.134
 8850TIP3    H126495   3.570   3.206   1.076
 8850TIP3    H226496   3.438   3.139   1.106
 8851TIP3   OH226497   2.958   1.946   3.279
 8851TIP3    H126498   2.957   1.951   3.374
 8851TIP3    H226499   3.029   2.004   3.253
 8852TIP3   OH226500   7.671   5.071   5.053
 8852TIP3    H126501   7.592   5.048   5.102
 8852TIP3    H226502   7.691   5.160   5.082
 8853TIP3   OH226503   6.261   4.693   5.867
 8853TIP3    H126504   6.292   4.611   5.905
 8853TIP3    H226505   6.173   4.704   5.904
 8854TIP3   OH226506   7.236   6.015   2.247
 8854TIP3    H126507   7.233   6.014   2.343
 8854TIP3    H226508   7.147   5.993   2.220
 8855TIP3   OH226509   1.978   0.239   6.142
 8855TIP3    H126510   2.018   0.284   6.217
 8855TIP3    H226511   1.896   0.204   6.177
 8856TIP3   OH226512   6.192   0.953   2.566
 8856TIP3    H126513   6.240   1.008   2.628
 8856TIP3    H226514   6.228   0.865   2.580
 8857TIP3   OH226515   0.225   3.556   4.573
 8857TIP3    H126516   0.185   3.642   4.588
 8857TIP3    H226517   0.215   3.510   4.656
 8858TIP3   OH226518   4.013   5.645   0.053
 8858TIP3    H126519   4.055   5.721   0.013
 8858TIP3    H226520   4.037   5.652   0.146
 8859TIP3   OH226521   7.013   0.485   4.263
 8859TIP3    H126522   6.982   0.399   4.234
 8859TIP3    H226523   6.935   0.527   4.300
 8860TIP3   OH226524   5.450   5.889   4.332
 8860TIP3    H126525   5.386   5.819   4.323
 8860TIP3    H226526   5.465   5.896   4.427
 8861TIP3   OH226527   2.047   6.478   1.369
 8861TIP3    H126528   2.129   6.431   1.384
 8861TIP3    H226529   1.990   6.453   1.441
 8862TIP3   OH226530   4.182   4.919   2.715
 8862TIP3    H126531   4.234   4.911   2.795
 8862TIP3    H226532   4.247   4.930   2.646
 8863TIP3   OH226533   5.898   6.787   2.863
 8863TIP3    H126534   5.941   6.712   2.823
 8863TIP3    H226535   5.805   6.773   2.848
 8864TIP3   OH226536   0.035   4.971   6.176
 8864TIP3    H126537   0.119   4.934   6.205
 8864TIP3    H226538  -0.027   4.899   6.188
 8865TIP3   OH226539   2.078   2.798   5.292
 8865TIP3    H126540   2.078   2.782   5.387
 8865TIP3    H226541   2.168   2.783   5.265
 8866TIP3   OH226542   6.595   4.745   0.299
 8866TIP3    H126543   6.542   4.819   0.267
 8866TIP3    H226544   6.639   4.712   0.221
 8867TIP3   OH226545   4.015   1.155   0.545
 8867TIP3    H126546   4.055   1.233   0.584
 8867TIP3    H226547   3.943   1.134   0.603
 8868TIP3   OH226548   4.698   1.338   2.978
 8868TIP3    H126549   4.744   1.421   2.962
 8868TIP3    H226550   4.747   1.274   2.927
 8869TIP3   OH226551   5.655   7.784   0.249
 8869TIP3    H126552   5.579   7.768   0.306
 8869TIP3    H226553   5.689   7.868   0.278
 8870TIP3   OH226554   3.941   7.686   3.408
 8870TIP3    H126555   3.963   7.751   3.340
 8870TIP3    H226556   3.861   7.645   3.377
 8871TIP3   OH226557   3.343   2.785   3.890
 8871TIP3    H126558   3.339   2.728   3.966
 8871TIP3    H226559   3.260   2.833   3.891
 8872TIP3   OH226560   0.349   4.139   3.001
 8872TIP3    H126561   0.274   4.126   2.944
 8872TIP3    H226562   0.425   4.132   2.943
 8873TIP3   OH226563   2.651   4.964   0.606
 8873TIP3    H126564   2.596   4.892   0.578
 8873TIP3    H226565   2.693   4.933   0.686
 8874TIP3   OH226566   4.856   5.889   0.380
 8874TIP3    H126567   4.906   5.947   0.323
 8874TIP3    H226568   4.907   5.884   0.461
 8875TIP3   OH226569   6.417   7.002   6.425
 8875TIP3    H126570   6.420   7.012   6.521
 8875TIP3    H226571   6.438   6.910   6.410
 8876TIP3   OH226572   3.691   2.674   2.111
 8876TIP3    H126573   3.619   2.714   2.064
 8876TIP3    H226574   3.732   2.747   2.159
 8877TIP3   OH226575   2.838   6.066   2.185
 8877TIP3    H126576   2.751   6.028   2.169
 8877TIP3    H226577   2.838   6.085   2.278
 8878TIP3   OH226578   3.545   0.181   2.018
 8878TIP3    H126579   3.452   0.196   2.033
 8878TIP3    H226580   3.589   0.238   2.082
 8879TIP3   OH226581   7.755   0.742   5.329
 8879TIP3    H126582   7.715   0.822   5.294
 8879TIP3    H226583   7.841   0.737   5.286
 8880TIP3   OH226584   2.514   5.199   0.851
 8880TIP3    H126585   2.563   5.173   0.773
 8880TIP3    H226586   2.552   5.283   0.876
 8881TIP3   OH226587   3.763   2.196   2.430
 8881TIP3    H126588   3.845   2.177   2.386
 8881TIP3    H226589   3.753   2.291   2.421
 8882TIP3   OH226590   6.516   4.105   3.522
 8882TIP3    H126591   6.588   4.103   3.584
 8882TIP3    H226592   6.552   4.066   3.442
 8883TIP3   OH226593   2.370   0.186   4.689
 8883TIP3    H126594   2.457   0.152   4.672
 8883TIP3    H226595   2.385   0.274   4.724
 8884TIP3   OH226596   0.828   4.329   2.809
 8884TIP3    H126597   0.829   4.339   2.714
 8884TIP3    H226598   0.858   4.414   2.842
 8885TIP3   OH226599   0.981   6.266   5.885
 8885TIP3    H126600   0.910   6.329   5.896
 8885TIP3    H226601   0.990   6.224   5.970
 8886TIP3   OH226602   0.857   5.437   4.201
 8886TIP3    H126603   0.792   5.506   4.213
 8886TIP3    H226604   0.933   5.467   4.252
 8887TIP3   OH226605   4.983   2.323   5.187
 8887TIP3    H126606   4.955   2.255   5.125
 8887TIP3    H226607   4.984   2.403   5.135
 8888TIP3   OH226608   1.306   2.703   6.412
 8888TIP3    H126609   1.230   2.691   6.470
 8888TIP3    H226610   1.312   2.798   6.401
 8889TIP3   OH226611   4.993   7.111   0.159
 8889TIP3    H126612   5.067   7.068   0.202
 8889TIP3    H226613   5.013   7.103   0.065
 8890TIP3   OH226614   4.976   4.162   3.572
 8890TIP3    H126615   5.059   4.146   3.527
 8890TIP3    H226616   4.915   4.101   3.531
 8891TIP3   OH226617   6.057   7.389   6.621
 8891TIP3    H126618   5.999   7.381   6.546
 8891TIP3    H226619   6.135   7.339   6.597
 8892TIP3   OH226620   0.559   4.097   6.468
 8892TIP3    H126621   0.501   4.082   6.393
 8892TIP3    H226622   0.638   4.048   6.446
 8893TIP3   OH226623   2.186   5.141   2.908
 8893TIP3    H126624   2.232   5.076   2.855
 8893TIP3    H226625   2.118   5.176   2.850
 8894TIP3   OH226626   2.662   6.581   2.174
 8894TIP3    H126627   2.600   6.511   2.194
 8894TIP3    H226628   2.747   6.548   2.203
 8895TIP3   OH226629   5.608   5.526   1.104
 8895TIP3    H126630   5.615   5.512   1.010
 8895TIP3    H226631   5.520   5.495   1.126
 8896TIP3   OH226632   2.339   5.940   1.172
 8896TIP3    H126633   2.264   5.882   1.162
 8896TIP3    H226634   2.375   5.917   1.258
 8897TIP3   OH226635   2.964   3.192   3.914
 8897TIP3    H126636   3.016   3.219   3.989
 8897TIP3    H226637   3.019   3.212   3.838
 8898TIP3   OH226638   6.294   4.169   5.616
 8898TIP3    H126639   6.205   4.205   5.624
 8898TIP3    H226640   6.297   4.098   5.679
 8899TIP3   OH226641   5.945   1.198   5.272
 8899TIP3    H126642   5.918   1.253   5.198
 8899TIP3    H226643   6.030   1.164   5.246
 8900TIP3   OH226644   5.142   6.669   3.016
 8900TIP3    H126645   5.089   6.737   3.058
 8900TIP3    H226646   5.104   6.658   2.929
 8901TIP3   OH226647   6.527   4.488   5.146
 8901TIP3    H126648   6.560   4.454   5.229
 8901TIP3    H226649   6.579   4.441   5.080
 8902TIP3   OH226650   8.049   2.633   5.913
 8902TIP3    H126651   8.112   2.674   5.853
 8902TIP3    H226652   8.062   2.539   5.900
 8903TIP3   OH226653   2.186   2.230   0.718
 8903TIP3    H126654   2.147   2.302   0.669
 8903TIP3    H226655   2.123   2.159   0.710
 8904TIP3   OH226656   4.971   7.339   3.022
 8904TIP3    H126657   4.942   7.421   2.981
 8904TIP3    H226658   5.023   7.296   2.954
 8905TIP3   OH226659   2.683   6.704   0.601
 8905TIP3    H126660   2.622   6.677   0.532
 8905TIP3    H226661   2.647   6.665   0.681
 8906TIP3   OH226662   7.038   1.225   4.722
 8906TIP3    H126663   7.091   1.172   4.781
 8906TIP3    H226664   7.056   1.189   4.635
 8907TIP3   OH226665   3.148   0.509   3.099
 8907TIP3    H126666   3.059   0.477   3.116
 8907TIP3    H226667   3.143   0.603   3.115
 8908TIP3   OH226668   0.509   2.077   0.171
 8908TIP3    H126669   0.549   2.096   0.256
 8908TIP3    H226670   0.416   2.068   0.189
 8909TIP3   OH226671   7.187   5.766   3.829
 8909TIP3    H126672   7.157   5.716   3.905
 8909TIP3    H226673   7.234   5.702   3.776
 8910TIP3   OH226674   7.216   2.033   5.158
 8910TIP3    H126675   7.166   1.973   5.212
 8910TIP3    H226676   7.200   2.004   5.068
 8911TIP3   OH226677   4.875   6.436   2.397
 8911TIP3    H126678   4.851   6.406   2.485
 8911TIP3    H226679   4.796   6.425   2.345
 8912TIP3   OH226680   0.137   7.341   4.066
 8912TIP3    H126681   0.097   7.419   4.027
 8912TIP3    H226682   0.198   7.376   4.131
 8913TIP3   OH226683   3.206   2.677   5.135
 8913TIP3    H126684   3.224   2.698   5.226
 8913TIP3    H226685   3.259   2.740   5.085
 8914TIP3   OH226686   1.985   6.983   3.597
 8914TIP3    H126687   1.957   6.950   3.682
 8914TIP3    H226688   1.914   7.041   3.569
 8915TIP3   OH226689   0.907   2.695   5.172
 8915TIP3    H126690   0.987   2.647   5.190
 8915TIP3    H226691   0.913   2.718   5.079
 8916TIP3   OH226692   5.223   6.526   6.604
 8916TIP3    H126693   5.152   6.567   6.654
 8916TIP3    H226694   5.276   6.481   6.670
 8917TIP3   OH226695   6.414   4.256   4.707
 8917TIP3    H126696   6.353   4.226   4.773
 8917TIP3    H226697   6.394   4.203   4.630
 8918TIP3   OH226698   0.125   4.783   3.260
 8918TIP3    H126699   0.072   4.822   3.191
 8918TIP3    H226700   0.215   4.789   3.228
 8919TIP3   OH226701   5.193   7.753   3.273
 8919TIP3    H126702   5.138   7.676   3.260
 8919TIP3    H226703   5.223   7.776   3.185
 8920TIP3   OH226704   6.624   1.485   3.544
 8920TIP3    H126705   6.705   1.435   3.536
 8920TIP3    H226706   6.633   1.533   3.627
 8921TIP3   OH226707   5.996   3.206   2.183
 8921TIP3    H126708   6.069   3.245   2.135
 8921TIP3    H226709   5.983   3.121   2.142
 8922TIP3   OH226710   2.133   4.631   2.228
 8922TIP3    H126711   2.140   4.634   2.132
 8922TIP3    H226712   2.222   4.619   2.259
 8923TIP3   OH226713   4.923   6.840   0.886
 8923TIP3    H126714   4.993   6.817   0.947
 8923TIP3    H226715   4.859   6.885   0.940
 8924TIP3   OH226716   6.439   7.422   6.670
 8924TIP3    H126717   6.387   7.474   6.731
 8924TIP3    H226718   6.488   7.362   6.726
 8925TIP3   OH226719   8.211   2.511   4.874
 8925TIP3    H126720   8.195   2.578   4.941
 8925TIP3    H226721   8.291   2.539   4.831
 8926TIP3   OH226722   4.299   2.111   1.420
 8926TIP3    H126723   4.349   2.030   1.430
 8926TIP3    H226724   4.222   2.085   1.369
 8927TIP3   OH226725   1.864   7.337   2.135
 8927TIP3    H126726   1.885   7.275   2.065
 8927TIP3    H226727   1.796   7.293   2.186
 8928TIP3   OH226728   2.278   7.215   5.198
 8928TIP3    H126729   2.201   7.185   5.247
 8928TIP3    H226730   2.340   7.142   5.204
 8929TIP3   OH226731   6.885   0.971   5.293
 8929TIP3    H126732   6.945   1.007   5.359
 8929TIP3    H226733   6.878   1.040   5.227
 8930TIP3   OH226734   2.324   1.154   5.954
 8930TIP3    H126735   2.362   1.220   6.012
 8930TIP3    H226736   2.290   1.205   5.880
 8931TIP3   OH226737   3.846   5.073   0.174
 8931TIP3    H126738   3.913   5.038   0.233
 8931TIP3    H226739   3.791   5.129   0.229
 8932TIP3   OH226740   7.009   6.946   4.806
 8932TIP3    H126741   7.081   7.006   4.824
 8932TIP3    H226742   6.934   6.984   4.853
 8933TIP3   OH226743   1.918   1.619   5.367
 8933TIP3    H126744   1.954   1.539   5.404
 8933TIP3    H226745   1.831   1.593   5.334
 8934TIP3   OH226746   2.996   4.499   6.457
 8934TIP3    H126747   3.038   4.541   6.533
 8934TIP3    H226748   2.971   4.412   6.489
 8935TIP3   OH226749   2.889   1.697   5.544
 8935TIP3    H126750   2.929   1.783   5.536
 8935TIP3    H226751   2.796   1.712   5.527
 8936TIP3   OH226752   1.385   4.601   5.381
 8936TIP3    H126753   1.355   4.547   5.308
 8936TIP3    H226754   1.311   4.658   5.401
 8937TIP3   OH226755   3.097   3.855   0.760
 8937TIP3    H126756   3.111   3.949   0.754
 8937TIP3    H226757   3.082   3.838   0.853
 8938TIP3   OH226758   2.466   4.985   3.192
 8938TIP3    H126759   2.544   4.958   3.143
 8938TIP3    H226760   2.434   5.062   3.146
 8939TIP3   OH226761   1.697   5.391   4.767
 8939TIP3    H126762   1.699   5.486   4.754
 8939TIP3    H226763   1.725   5.355   4.683
 8940TIP3   OH226764   1.708   5.931   2.432
 8940TIP3    H126765   1.635   5.983   2.398
 8940TIP3    H226766   1.676   5.841   2.428
 8941TIP3   OH226767   6.556   2.538   2.633
 8941TIP3    H126768   6.487   2.587   2.588
 8941TIP3    H226769   6.636   2.588   2.616
 8942TIP3   OH226770   4.111   1.496   0.010
 8942TIP3    H126771   4.149   1.538   0.087
 8942TIP3    H226772   4.018   1.519   0.014
 8943TIP3   OH226773   1.045   0.826   3.544
 8943TIP3    H126774   1.011   0.763   3.607
 8943TIP3    H226775   1.094   0.772   3.481
 8944TIP3   OH226776   0.996   6.991   3.481
 8944TIP3    H126777   0.963   6.930   3.547
 8944TIP3    H226778   1.091   6.980   3.485
 8945TIP3   OH226779   1.879   7.313   5.246
 8945TIP3    H126780   1.854   7.236   5.195
 8945TIP3    H226781   1.876   7.386   5.183
 8946TIP3   OH226782   1.189   4.976   5.028
 8946TIP3    H126783   1.215   5.067   5.010
 8946TIP3    H226784   1.266   4.924   5.005
 8947TIP3   OH226785   3.880   3.048   6.389
 8947TIP3    H126786   3.909   3.082   6.474
 8947TIP3    H226787   3.803   2.995   6.410
 8948TIP3   OH226788   1.564   1.140   1.682
 8948TIP3    H126789   1.478   1.170   1.712
 8948TIP3    H226790   1.564   1.156   1.587
 8949TIP3   OH226791   2.723   6.292   0.485
 8949TIP3    H126792   2.634   6.258   0.497
 8949TIP3    H226793   2.714   6.387   0.491
 8950TIP3   OH226794   5.145   3.180   6.242
 8950TIP3    H126795   5.168   3.122   6.169
 8950TIP3    H226796   5.080   3.240   6.205
 8951TIP3   OH226797   8.254   4.839   5.297
 8951TIP3    H126798   8.173   4.845   5.348
 8951TIP3    H226799   8.323   4.863   5.359
 8952TIP3   OH226800   0.978   6.305   1.331
 8952TIP3    H126801   0.986   6.308   1.235
 8952TIP3    H226802   0.898   6.354   1.349
 8953TIP3   OH226803   1.103   0.887   2.237
 8953TIP3    H126804   1.184   0.910   2.282
 8953TIP3    H226805   1.091   0.794   2.256
 8954TIP3   OH226806   3.239   0.769   4.357
 8954TIP3    H126807   3.230   0.771   4.262
 8954TIP3    H226808   3.333   0.778   4.373
 8955TIP3   OH226809   1.260   1.568   2.400
 8955TIP3    H126810   1.244   1.613   2.483
 8955TIP3    H226811   1.270   1.639   2.336
 8956TIP3   OH226812   6.125   0.497   2.719
 8956TIP3    H126813   6.193   0.467   2.779
 8956TIP3    H226814   6.103   0.419   2.667
 8957TIP3   OH226815   0.953   5.481   6.086
 8957TIP3    H126816   1.039   5.495   6.126
 8957TIP3    H226817   0.953   5.537   6.008
 8958TIP3   OH226818   4.603   1.888   0.308
 8958TIP3    H126819   4.645   1.968   0.337
 8958TIP3    H226820   4.623   1.883   0.214
 8959TIP3   OH226821   2.257   4.502   1.542
 8959TIP3    H126822   2.234   4.517   1.451
 8959TIP3    H226823   2.318   4.573   1.563
 8960TIP3   OH226824   5.664   3.852   0.870
 8960TIP3    H126825   5.604   3.925   0.859
 8960TIP3    H226826   5.739   3.889   0.917
 8961TIP3   OH226827   0.437   5.139   1.375
 8961TIP3    H126828   0.393   5.224   1.379
 8961TIP3    H226829   0.506   5.145   1.441
 8962TIP3   OH226830   3.610   5.790   3.654
 8962TIP3    H126831   3.612   5.844   3.576
 8962TIP3    H226832   3.629   5.850   3.726
 8963TIP3   OH226833   7.791   5.461   1.643
 8963TIP3    H126834   7.842   5.512   1.579
 8963TIP3    H226835   7.857   5.423   1.701
 8964TIP3   OH226836   7.249   2.667   4.696
 8964TIP3    H126837   7.286   2.753   4.718
 8964TIP3    H226838   7.295   2.640   4.617
 8965TIP3   OH226839   6.572   3.953   1.500
 8965TIP3    H126840   6.507   3.917   1.440
 8965TIP3    H226841   6.652   3.903   1.481
 8966TIP3   OH226842   4.456   2.195   0.199
 8966TIP3    H126843   4.457   2.102   0.177
 8966TIP3    H226844   4.462   2.240   0.115
 8967TIP3   OH226845   4.280   7.494   3.837
 8967TIP3    H126846   4.357   7.492   3.781
 8967TIP3    H226847   4.223   7.425   3.803
 8968TIP3   OH226848   0.239   0.418   6.481
 8968TIP3    H126849   0.204   0.380   6.562
 8968TIP3    H226850   0.170   0.476   6.449
 8969TIP3   OH226851   4.508   4.163   3.988
 8969TIP3    H126852   4.430   4.208   4.021
 8969TIP3    H226853   4.522   4.200   3.901
 8970TIP3   OH226854   4.423   7.672   5.245
 8970TIP3    H126855   4.477   7.593   5.234
 8970TIP3    H226856   4.447   7.704   5.332
 8971TIP3   OH226857   1.714   4.847   4.310
 8971TIP3    H126858   1.644   4.853   4.375
 8971TIP3    H226859   1.779   4.790   4.350
 8972TIP3   OH226860   7.838   6.510   0.829
 8972TIP3    H126861   7.813   6.559   0.907
 8972TIP3    H226862   7.759   6.462   0.805
 8973TIP3   OH226863   6.842   6.210   4.378
 8973TIP3    H126864   6.774   6.144   4.372
 8973TIP3    H226865   6.818   6.263   4.454
 8974TIP3   OH226866   2.002   0.403   3.547
 8974TIP3    H126867   2.013   0.413   3.642
 8974TIP3    H226868   1.908   0.388   3.535
 8975TIP3   OH226869   2.232   6.388   6.410
 8975TIP3    H126870   2.225   6.295   6.389
 8975TIP3    H226871   2.283   6.425   6.338
 8976TIP3   OH226872   5.382   7.417   5.835
 8976TIP3    H126873   5.374   7.448   5.925
 8976TIP3    H226874   5.352   7.490   5.781
 8977TIP3   OH226875   0.422   3.098   1.820
 8977TIP3    H126876   0.399   3.006   1.827
 8977TIP3    H226877   0.502   3.100   1.767
 8978TIP3   OH226878   1.171   2.658   5.536
 8978TIP3    H126879   1.227   2.630   5.464
 8978TIP3    H226880   1.197   2.603   5.610
 8979TIP3   OH226881   0.295   6.847   4.175
 8979TIP3    H126882   0.285   6.871   4.267
 8979TIP3    H226883   0.220   6.886   4.131
 8980TIP3   OH226884   1.130   1.393   4.941
 8980TIP3    H126885   1.107   1.486   4.944
 8980TIP3    H226886   1.068   1.355   4.880
 8981TIP3   OH226887   5.115   6.075   2.754
 8981TIP3    H126888   5.073   5.994   2.782
 8981TIP3    H226889   5.112   6.072   2.658
 8982TIP3   OH226890   5.715   4.348   5.705
 8982TIP3    H126891   5.756   4.433   5.691
 8982TIP3    H226892   5.727   4.330   5.798
 8983TIP3   OH226893   3.992   1.283   0.987
 8983TIP3    H126894   3.910   1.236   0.973
 8983TIP3    H226895   4.003   1.285   1.082
 8984TIP3   OH226896   2.419   2.670   3.568
 8984TIP3    H126897   2.372   2.620   3.635
 8984TIP3    H226898   2.355   2.733   3.535
 8985TIP3   OH226899   8.136   1.249   6.513
 8985TIP3    H126900   8.190   1.186   6.561
 8985TIP3    H226901   8.101   1.200   6.439
 8986TIP3   OH226902   6.909   7.010   3.065
 8986TIP3    H126903   6.858   6.942   3.109
 8986TIP3    H226904   7.000   6.981   3.074
 8987TIP3   OH226905   5.242   4.914   6.268
 8987TIP3    H126906   5.217   5.004   6.249
 8987TIP3    H226907   5.167   4.861   6.239
 8988TIP3   OH226908   7.088   7.001   0.077
 8988TIP3    H126909   7.107   6.912   0.107
 8988TIP3    H226910   7.027   7.036   0.142
 8989TIP3   OH226911   3.525   7.454   3.087
 8989TIP3    H126912   3.515   7.486   2.997
 8989TIP3    H226913   3.535   7.359   3.077
 8990TIP3   OH226914   7.672   1.092   3.344
 8990TIP3    H126915   7.728   1.035   3.291
 8990TIP3    H226916   7.622   1.032   3.399
 8991TIP3   OH226917   5.202   4.773   1.957
 8991TIP3    H126918   5.191   4.803   2.047
 8991TIP3    H226919   5.113   4.770   1.921
 8992TIP3   OH226920   6.904   3.202   4.805
 8992TIP3    H126921   6.936   3.161   4.886
 8992TIP3    H226922   6.963   3.170   4.737
 8993TIP3   OH226923   8.101   7.019   4.216
 8993TIP3    H126924   8.079   7.099   4.167
 8993TIP3    H226925   8.068   6.948   4.161
 8994TIP3   OH226926   8.175   2.816   1.810
 8994TIP3    H126927   8.167   2.800   1.904
 8994TIP3    H226928   8.140   2.904   1.797
 8995TIP3   OH226929   4.749   3.813   4.312
 8995TIP3    H126930   4.741   3.743   4.376
 8995TIP3    H226931   4.661   3.826   4.279
 8996TIP3   OH226932   8.244   2.753   2.404
 8996TIP3    H126933   8.201   2.698   2.469
 8996TIP3    H226934   8.207   2.725   2.320
 8997TIP3   OH226935   6.317   3.799   3.932
 8997TIP3    H126936   6.247   3.817   3.995
 8997TIP3    H226937   6.276   3.740   3.868
 8998TIP3   OH226938   4.679   3.595   2.082
 8998TIP3    H126939   4.634   3.525   2.034
 8998TIP3    H226940   4.619   3.669   2.078
 8999TIP3   OH226941   1.958   6.211   6.645
 8999TIP3    H126942   2.029   6.260   6.688
 8999TIP3    H226943   1.964   6.236   6.553
 9000TIP3   OH226944   6.505   0.359   6.317
 9000TIP3    H126945   6.523   0.453   6.321
 9000TIP3    H226946   6.412   0.351   6.340
 9001TIP3   OH226947   0.244   3.682   2.421
 9001TIP3    H126948   0.289   3.643   2.347
 9001TIP3    H226949   0.156   3.644   2.418
 9002TIP3   OH226950   7.655   1.393   1.231
 9002TIP3    H126951   7.593   1.322   1.248
 9002TIP3    H226952   7.600   1.465   1.201
 9003TIP3   OH226953   3.079   7.100   5.624
 9003TIP3    H126954   3.080   7.105   5.528
 9003TIP3    H226955   3.025   7.175   5.651
 9004TIP3   OH226956   5.063   3.002   4.825
 9004TIP3    H126957   5.088   3.010   4.733
 9004TIP3    H226958   5.130   3.051   4.872
 9005TIP3   OH226959   0.213   1.986   2.910
 9005TIP3    H126960   0.233   1.931   2.835
 9005TIP3    H226961   0.266   2.064   2.897
 9006TIP3   OH226962   5.239   7.781   2.590
 9006TIP3    H126963   5.289   7.775   2.672
 9006TIP3    H226964   5.246   7.873   2.564
 9007TIP3   OH226965   2.809   4.013   0.765
 9007TIP3    H126966   2.817   4.023   0.860
 9007TIP3    H226967   2.867   4.080   0.729
 9008TIP3   OH226968   5.183   2.170   0.380
 9008TIP3    H126969   5.194   2.090   0.431
 9008TIP3    H226970   5.108   2.214   0.420
 9009TIP3   OH226971   3.457   7.766   4.936
 9009TIP3    H126972   3.435   7.681   4.896
 9009TIP3    H226973   3.373   7.803   4.960
 9010TIP3   OH226974   5.264   4.966   2.977
 9010TIP3    H126975   5.255   4.874   3.004
 9010TIP3    H226976   5.287   4.961   2.884
 9011TIP3   OH226977   5.795   1.088   1.341
 9011TIP3    H126978   5.822   1.174   1.373
 9011TIP3    H226979   5.736   1.055   1.409
 9012TIP3   OH226980   7.510   3.394   3.717
 9012TIP3    H126981   7.526   3.376   3.624
 9012TIP3    H226982   7.416   3.403   3.725
 9013TIP3   OH226983   4.631   4.580   0.649
 9013TIP3    H126984   4.596   4.500   0.609
 9013TIP3    H226985   4.673   4.550   0.729
 9014TIP3   OH226986   2.521   5.256   4.129
 9014TIP3    H126987   2.491   5.254   4.038
 9014TIP3    H226988   2.616   5.242   4.124
 9015TIP3   OH226989   6.851   3.322   0.720
 9015TIP3    H126990   6.848   3.320   0.816
 9015TIP3    H226991   6.778   3.377   0.694
 9016TIP3   OH226992   5.741   2.717   0.419
 9016TIP3    H126993   5.738   2.792   0.359
 9016TIP3    H226994   5.701   2.750   0.500
 9017TIP3   OH226995   7.323   4.208   5.791
 9017TIP3    H126996   7.272   4.127   5.781
 9017TIP3    H226997   7.412   4.183   5.768
 9018TIP3   OH226998   1.823   3.023   0.719
 9018TIP3    H126999   1.730   3.034   0.699
 9018TIP3    H227000   1.840   2.930   0.704
 9019TIP3   OH227001   6.446   2.064   2.036
 9019TIP3    H127002   6.501   1.992   2.004
 9019TIP3    H227003   6.488   2.091   2.118
 9020TIP3   OH227004   1.183   3.221   5.247
 9020TIP3    H127005   1.129   3.268   5.183
 9020TIP3    H227006   1.272   3.253   5.232
 9021TIP3   OH227007   0.154   5.314   5.003
 9021TIP3    H127008   0.071   5.300   4.958
 9021TIP3    H227009   0.135   5.299   5.095
 9022TIP3   OH227010   4.236   5.777   4.683
 9022TIP3    H127011   4.294   5.804   4.612
 9022TIP3    H227012   4.149   5.776   4.643
 9023TIP3   OH227013   1.744   2.590   3.809
 9023TIP3    H127014   1.659   2.548   3.794
 9023TIP3    H227015   1.754   2.649   3.735
 9024TIP3   OH227016   2.780   7.396   0.063
 9024TIP3    H127017   2.845   7.382   0.131
 9024TIP3    H227018   2.809   7.341  -0.010
 9025TIP3   OH227019   2.522   2.375   1.979
 9025TIP3    H127020   2.520   2.438   2.051
 9025TIP3    H227021   2.613   2.343   1.978
 9026TIP3   OH227022   5.548   0.637   4.571
 9026TIP3    H127023   5.590   0.691   4.504
 9026TIP3    H227024   5.558   0.688   4.652
 9027TIP3   OH227025   3.754   2.297   1.386
 9027TIP3    H127026   3.743   2.211   1.424
 9027TIP3    H227027   3.769   2.281   1.293
 9028TIP3   OH227028   4.260   3.792   5.470
 9028TIP3    H127029   4.242   3.699   5.456
 9028TIP3    H227030   4.256   3.830   5.382
 9029TIP3   OH227031   4.840   5.975   1.055
 9029TIP3    H127032   4.853   5.950   0.963
 9029TIP3    H227033   4.753   6.014   1.057
 9030TIP3   OH227034   1.897   7.432   5.998
 9030TIP3    H127035   1.938   7.360   6.045
 9030TIP3    H227036   1.842   7.475   6.064
 9031TIP3   OH227037   7.034   6.266   5.118
 9031TIP3    H127038   6.972   6.241   5.186
 9031TIP3    H227039   7.120   6.259   5.160
 9032TIP3   OH227040   6.028   4.180   3.018
 9032TIP3    H127041   6.098   4.229   3.062
 9032TIP3    H227042   5.958   4.244   3.005
 9033TIP3   OH227043   6.705   1.133   6.597
 9033TIP3    H127044   6.653   1.118   6.676
 9033TIP3    H227045   6.687   1.056   6.542
 9034TIP3   OH227046   7.787   7.577   5.392
 9034TIP3    H127047   7.790   7.603   5.300
 9034TIP3    H227048   7.858   7.513   5.401
 9035TIP3   OH227049   4.624   4.821   0.469
 9035TIP3    H127050   4.694   4.804   0.406
 9035TIP3    H227051   4.619   4.742   0.522
 9036TIP3   OH227052   6.949   6.779   1.484
 9036TIP3    H127053   6.869   6.829   1.503
 9036TIP3    H227054   7.004   6.792   1.561
 9037TIP3   OH227055   5.877   2.445   5.332
 9037TIP3    H127056   5.791   2.480   5.308
 9037TIP3    H227057   5.890   2.473   5.423
 9038TIP3   OH227058   5.820   7.616   0.131
 9038TIP3    H127059   5.895   7.669   0.159
 9038TIP3    H227060   5.752   7.636   0.194
 9039TIP3   OH227061   4.593   7.439   4.734
 9039TIP3    H127062   4.519   7.471   4.683
 9039TIP3    H227063   4.659   7.418   4.668
 9040TIP3   OH227064   5.312   5.314   5.299
 9040TIP3    H127065   5.256   5.253   5.346
 9040TIP3    H227066   5.310   5.394   5.352
 9041TIP3   OH227067   8.156   5.914   5.300
 9041TIP3    H127068   8.137   6.005   5.279
 9041TIP3    H227069   8.201   5.880   5.223
 9042TIP3   OH227070   4.242   6.963   5.905
 9042TIP3    H127071   4.233   6.967   6.000
 9042TIP3    H227072   4.314   6.902   5.890
 9043TIP3   OH227073   1.088   5.393   4.015
 9043TIP3    H127074   1.011   5.395   4.072
 9043TIP3    H227075   1.158   5.432   4.067
 9044TIP3   OH227076   8.087   4.360   2.759
 9044TIP3    H127077   8.023   4.314   2.814
 9044TIP3    H227078   8.094   4.306   2.681
 9045TIP3   OH227079   7.356   6.456   2.319
 9045TIP3    H127080   7.387   6.547   2.318
 9045TIP3    H227081   7.433   6.404   2.339
 9046TIP3   OH227082   0.940   0.771   6.728
 9046TIP3    H127083   0.920   0.839   6.664
 9046TIP3    H227084   0.874   0.704   6.714
 9047TIP3   OH227085   2.188   3.983   4.231
 9047TIP3    H127086   2.275   4.010   4.202
 9047TIP3    H227087   2.137   4.064   4.231
 9048TIP3   OH227088   6.861   0.163   3.688
 9048TIP3    H127089   6.908   0.123   3.615
 9048TIP3    H227090   6.818   0.089   3.732
 9049TIP3   OH227091   2.452   4.297   0.475
 9049TIP3    H127092   2.400   4.372   0.448
 9049TIP3    H227093   2.512   4.331   0.541
 9050TIP3   OH227094   3.616   6.731   1.051
 9050TIP3    H127095   3.685   6.792   1.077
 9050TIP3    H227096   3.563   6.780   0.987
 9051TIP3   OH227097   6.618   5.335   3.471
 9051TIP3    H127098   6.675   5.272   3.515
 9051TIP3    H227099   6.536   5.331   3.522
 9052TIP3   OH227100   6.911   5.413   1.650
 9052TIP3    H127101   6.950   5.481   1.595
 9052TIP3    H227102   6.886   5.344   1.588
 9053TIP3   OH227103   5.872   1.612   6.415
 9053TIP3    H127104   5.825   1.632   6.496
 9053TIP3    H227105   5.814   1.552   6.368
 9054TIP3   OH227106   4.981   7.521   4.408
 9054TIP3    H127107   5.065   7.531   4.451
 9054TIP3    H227108   5.002   7.499   4.317
 9055TIP3   OH227109   6.685   2.184   6.472
 9055TIP3    H127110   6.768   2.213   6.510
 9055TIP3    H227111   6.711   2.119   6.406
 9056TIP3   OH227112   4.279   7.072   2.564
 9056TIP3    H127113   4.201   7.127   2.564
 9056TIP3    H227114   4.281   7.033   2.477
 9057TIP3   OH227115   7.052   2.893   5.710
 9057TIP3    H127116   6.962   2.871   5.733
 9057TIP3    H227117   7.059   2.987   5.728
 9058TIP3   OH227118   3.142   0.147   2.368
 9058TIP3    H127119   3.087   0.194   2.431
 9058TIP3    H227120   3.089   0.143   2.288
 9059TIP3   OH227121   5.488   6.240   3.835
 9059TIP3    H127122   5.512   6.287   3.755
 9059TIP3    H227123   5.521   6.151   3.821
 9060TIP3   OH227124   0.927   0.014   3.043
 9060TIP3    H127125   0.924   0.087   2.980
 9060TIP3    H227126   1.013  -0.025   3.030
 9061TIP3   OH227127   6.456   0.293   3.518
 9061TIP3    H127128   6.466   0.318   3.609
 9061TIP3    H227129   6.528   0.337   3.473
 9062TIP3   OH227130   2.970   4.168   3.095
 9062TIP3    H127131   2.982   4.263   3.095
 9062TIP3    H227132   2.883   4.155   3.131
 9063TIP3   OH227133   0.351   5.649   0.086
 9063TIP3    H127134   0.388   5.694   0.162
 9063TIP3    H227135   0.374   5.705   0.012
 9064TIP3   OH227136   1.938   6.031   1.655
 9064TIP3    H127137   1.879   5.964   1.688
 9064TIP3    H227138   1.884   6.085   1.598
 9065TIP3   OH227139   0.059   5.914   0.367
 9065TIP3    H127140   0.087   5.822   0.370
 9065TIP3    H227141   0.140   5.964   0.378
 9066TIP3   OH227142   1.409   5.591   3.959
 9066TIP3    H127143   1.400   5.558   4.049
 9066TIP3    H227144   1.465   5.527   3.916
 9067TIP3   OH227145   0.658   1.952   3.244
 9067TIP3    H127146   0.717   1.964   3.318
 9067TIP3    H227147   0.687   1.870   3.204
 9068TIP3   OH227148   7.915   5.367   4.718
 9068TIP3    H127149   7.957   5.307   4.780
 9068TIP3    H227150   7.986   5.401   4.665
 9069TIP3   OH227151   5.668   5.807   1.081
 9069TIP3    H127152   5.584   5.850   1.068
 9069TIP3    H227153   5.647   5.714   1.087
 9070TIP3   OH227154   6.872   3.405   3.914
 9070TIP3    H127155   6.959   3.445   3.919
 9070TIP3    H227156   6.822   3.465   3.859
 9071TIP3   OH227157   0.678   7.553   5.009
 9071TIP3    H127158   0.687   7.647   5.023
 9071TIP3    H227159   0.586   7.534   5.026
 9072TIP3   OH227160   6.497   1.629   4.182
 9072TIP3    H127161   6.414   1.670   4.205
 9072TIP3    H227162   6.558   1.661   4.249
 9073TIP3   OH227163   2.963   6.338   1.980
 9073TIP3    H127164   2.959   6.252   1.940
 9073TIP3    H227165   3.039   6.380   1.941
 9074TIP3   OH227166   1.503   5.721   4.200
 9074TIP3    H127167   1.547   5.665   4.136
 9074TIP3    H227168   1.547   5.806   4.192
 9075TIP3   OH227169   2.060   0.741   6.020
 9075TIP3    H127170   1.983   0.772   6.068
 9075TIP3    H227171   2.033   0.658   5.982
 9076TIP3   OH227172   4.759   0.560   1.693
 9076TIP3    H127173   4.744   0.653   1.681
 9076TIP3    H227174   4.674   0.525   1.719
 9077TIP3   OH227175   0.055   5.278   4.388
 9077TIP3    H127176  -0.004   5.311   4.320
 9077TIP3    H227177   0.080   5.190   4.359
 9078TIP3   OH227178   2.664   5.024   1.335
 9078TIP3    H127179   2.581   5.063   1.307
 9078TIP3    H227180   2.727   5.097   1.332
 9079TIP3   OH227181   2.381   0.402   2.699
 9079TIP3    H127182   2.398   0.308   2.688
 9079TIP3    H227183   2.465   0.438   2.729
 9080TIP3   OH227184   1.501   4.962   1.827
 9080TIP3    H127185   1.464   5.050   1.839
 9080TIP3    H227186   1.424   4.905   1.824
 9081TIP3   OH227187   8.109   3.237   3.238
 9081TIP3    H127188   8.035   3.275   3.189
 9081TIP3    H227189   8.169   3.310   3.252
 9082TIP3   OH227190   0.782   6.366   4.960
 9082TIP3    H127191   0.768   6.324   4.875
 9082TIP3    H227192   0.837   6.304   5.008
 9083TIP3   OH227193   3.940   2.691   2.595
 9083TIP3    H127194   3.871   2.746   2.558
 9083TIP3    H227195   3.909   2.671   2.684
 9084TIP3   OH227196   5.695   3.388   3.500
 9084TIP3    H127197   5.781   3.429   3.510
 9084TIP3    H227198   5.680   3.387   3.405
 9085TIP3   OH227199   8.025   6.699   6.286
 9085TIP3    H127200   8.042   6.744   6.369
 9085TIP3    H227201   8.037   6.606   6.307
 9086TIP3   OH227202   7.049   4.879   2.911
 9086TIP3    H127203   7.136   4.873   2.871
 9086TIP3    H227204   7.066   4.883   3.005
 9087TIP3   OH227205   4.281   7.164   3.778
 9087TIP3    H127206   4.368   7.164   3.817
 9087TIP3    H227207   4.245   7.078   3.799
 9088TIP3   OH227208   1.038   4.361   4.760
 9088TIP3    H127209   1.109   4.307   4.796
 9088TIP3    H227210   1.032   4.435   4.820
 9089TIP3   OH227211   0.726   0.794   3.874
 9089TIP3    H127212   0.794   0.787   3.807
 9089TIP3    H227213   0.684   0.709   3.874
 9090TIP3   OH227214   6.688   3.337   4.652
 9090TIP3    H127215   6.648   3.258   4.615
 9090TIP3    H227216   6.680   3.325   4.746
 9091TIP3   OH227217   1.101   0.217   5.751
 9091TIP3    H127218   1.020   0.166   5.751
 9091TIP3    H227219   1.085   0.288   5.688
 9092TIP3   OH227220   0.398   7.495   1.859
 9092TIP3    H127221   0.465   7.539   1.805
 9092TIP3    H227222   0.315   7.519   1.818
 9093TIP3   OH227223   5.545   0.261   1.216
 9093TIP3    H127224   5.484   0.329   1.189
 9093TIP3    H227225   5.622   0.309   1.247
 9094TIP3   OH227226   1.055   0.562   4.443
 9094TIP3    H127227   1.139   0.601   4.421
 9094TIP3    H227228   1.075   0.499   4.512
 9095TIP3   OH227229   0.757   7.605   0.300
 9095TIP3    H127230   0.663   7.618   0.308
 9095TIP3    H227231   0.778   7.537   0.364
 9096TIP3   OH227232   5.072   0.363   0.103
 9096TIP3    H127233   5.023   0.431   0.057
 9096TIP3    H227234   5.161   0.397   0.110
 9097TIP3   OH227235   1.707   5.513   1.601
 9097TIP3    H127236   1.774   5.519   1.669
 9097TIP3    H227237   1.698   5.603   1.568
 9098TIP3   OH227238   4.025   0.731   5.612
 9098TIP3    H127239   4.020   0.639   5.588
 9098TIP3    H227240   3.968   0.775   5.549
 9099TIP3   OH227241   3.376   2.399   3.633
 9099TIP3    H127242   3.304   2.404   3.696
 9099TIP3    H227243   3.413   2.488   3.632
 9100TIP3   OH227244   2.487   4.696   2.245
 9100TIP3    H127245   2.511   4.653   2.162
 9100TIP3    H227246   2.518   4.636   2.312
 9101TIP3   OH227247   1.334   4.652   0.698
 9101TIP3    H127248   1.258   4.598   0.674
 9101TIP3    H227249   1.365   4.688   0.615
 9102TIP3   OH227250   3.044   2.837   1.788
 9102TIP3    H127251   3.138   2.836   1.770
 9102TIP3    H227252   3.003   2.828   1.702
 9103TIP3   OH227253   1.236   1.730   5.635
 9103TIP3    H127254   1.248   1.757   5.544
 9103TIP3    H227255   1.324   1.710   5.666
 9104TIP3   OH227256   1.640   0.682   2.281
 9104TIP3    H127257   1.668   0.710   2.368
 9104TIP3    H227258   1.572   0.616   2.298
 9105TIP3   OH227259   6.141   0.628   0.225
 9105TIP3    H127260   6.214   0.663   0.174
 9105TIP3    H227261   6.068   0.687   0.206
 9106TIP3   OH227262   2.308   1.595   6.085
 9106TIP3    H127263   2.334   1.625   6.172
 9106TIP3    H227264   2.220   1.630   6.072
 9107TIP3   OH227265   6.659   1.938   5.716
 9107TIP3    H127266   6.699   1.851   5.707
 9107TIP3    H227267   6.593   1.941   5.647
 9108TIP3   OH227268   7.967   5.428   2.173
 9108TIP3    H127269   7.974   5.506   2.118
 9108TIP3    H227270   7.939   5.461   2.258
 9109TIP3   OH227271   4.513   2.678   5.868
 9109TIP3    H127272   4.474   2.671   5.781
 9109TIP3    H227273   4.438   2.675   5.928
 9110TIP3   OH227274   0.266   7.770   3.963
 9110TIP3    H127275   0.353   7.766   3.922
 9110TIP3    H227276   0.284   7.796   4.053
 9111TIP3   OH227277   4.466   4.458   2.848
 9111TIP3    H127278   4.478   4.375   2.801
 9111TIP3    H227279   4.415   4.512   2.788
 9112TIP3   OH227280   4.581   7.079   3.758
 9112TIP3    H127281   4.668   7.108   3.731
 9112TIP3    H227282   4.595   7.035   3.841
 9113TIP3   OH227283   6.094   1.496   3.741
 9113TIP3    H127284   6.143   1.493   3.824
 9113TIP3    H227285   6.095   1.588   3.716
 9114TIP3   OH227286   6.668   5.553   2.390
 9114TIP3    H127287   6.690   5.487   2.457
 9114TIP3    H227288   6.572   5.555   2.390
 9115TIP3   OH227289   3.853   4.143   0.530
 9115TIP3    H127290   3.788   4.088   0.485
 9115TIP3    H227291   3.801   4.202   0.584
 9116TIP3   OH227292   6.975   0.103   6.593
 9116TIP3    H127293   6.955   0.053   6.514
 9116TIP3    H227294   6.906   0.080   6.654
 9117TIP3   OH227295   3.407   0.812   6.129
 9117TIP3    H127296   3.338   0.878   6.140
 9117TIP3    H227297   3.438   0.825   6.039
 9118TIP3   OH227298   6.751   5.330   3.113
 9118TIP3    H127299   6.679   5.392   3.115
 9118TIP3    H227300   6.809   5.362   3.043
 9119TIP3   OH227301   5.551   7.262   2.067
 9119TIP3    H127302   5.566   7.218   1.984
 9119TIP3    H227303   5.587   7.201   2.133
 9120TIP3   OH227304   1.175   3.474   6.147
 9120TIP3    H127305   1.255   3.519   6.120
 9120TIP3    H227306   1.167   3.400   6.087
 9121TIP3   OH227307   1.397   7.598   3.167
 9121TIP3    H127308   1.478   7.552   3.143
 9121TIP3    H227309   1.426   7.669   3.223
 9122TIP3   OH227310   1.873   4.227   1.762
 9122TIP3    H127311   1.925   4.293   1.716
 9122TIP3    H227312   1.856   4.160   1.696
 9123TIP3   OH227313   2.367   6.950   1.063
 9123TIP3    H127314   2.282   6.916   1.091
 9123TIP3    H227315   2.346   7.027   1.010
 9124TIP3   OH227316   2.172   6.330   5.319
 9124TIP3    H127317   2.253   6.351   5.274
 9124TIP3    H227318   2.153   6.408   5.372
 9125TIP3   OH227319   1.981   4.378   5.982
 9125TIP3    H127320   2.031   4.319   6.040
 9125TIP3    H227321   1.892   4.377   6.018
 9126TIP3   OH227322   2.891   0.087   5.153
 9126TIP3    H127323   2.877   0.036   5.232
 9126TIP3    H227324   2.804   0.099   5.116
 9127TIP3   OH227325   7.836   1.134   0.600
 9127TIP3    H127326   7.796   1.047   0.602
 9127TIP3    H227327   7.929   1.117   0.582
 9128TIP3   OH227328   1.218   1.000   0.623
 9128TIP3    H127329   1.149   0.954   0.671
 9128TIP3    H227330   1.172   1.043   0.551
 9129TIP3   OH227331   8.113   3.461   2.950
 9129TIP3    H127332   8.129   3.556   2.953
 9129TIP3    H227333   8.193   3.425   2.912
 9130TIP3   OH227334   5.862   7.754   4.609
 9130TIP3    H127335   5.861   7.711   4.524
 9130TIP3    H227336   5.845   7.846   4.590
 9131TIP3   OH227337   6.033   2.952   3.638
 9131TIP3    H127338   6.092   2.876   3.637
 9131TIP3    H227339   6.067   3.008   3.708
 9132TIP3   OH227340   1.645   7.722   0.708
 9132TIP3    H127341   1.631   7.631   0.735
 9132TIP3    H227342   1.576   7.740   0.645
 9133TIP3   OH227343   8.125   3.455   6.507
 9133TIP3    H127344   8.207   3.410   6.524
 9133TIP3    H227345   8.059   3.403   6.552
 9134TIP3   OH227346   4.926   1.859   1.806
 9134TIP3    H127347   4.928   1.783   1.864
 9134TIP3    H227348   4.904   1.823   1.720
 9135TIP3   OH227349   1.364   4.596   6.283
 9135TIP3    H127350   1.366   4.613   6.377
 9135TIP3    H227351   1.314   4.669   6.246
 9136TIP3   OH227352   5.881   4.024   2.444
 9136TIP3    H127353   5.787   4.042   2.440
 9136TIP3    H227354   5.898   4.006   2.536
 9137TIP3   OH227355   5.652   2.482   2.281
 9137TIP3    H127356   5.745   2.465   2.298
 9137TIP3    H227357   5.652   2.563   2.230
 9138TIP3   OH227358   7.873   5.982   3.117
 9138TIP3    H127359   7.812   6.000   3.045
 9138TIP3    H227360   7.960   5.990   3.077
 9139TIP3   OH227361   4.751   0.864   0.644
 9139TIP3    H127362   4.760   0.913   0.726
 9139TIP3    H227363   4.743   0.773   0.672
 9140TIP3   OH227364   5.615   3.493   5.197
 9140TIP3    H127365   5.647   3.515   5.110
 9140TIP3    H227366   5.622   3.398   5.202
 9141TIP3   OH227367   2.264   4.960   0.626
 9141TIP3    H127368   2.251   4.865   0.633
 9141TIP3    H227369   2.245   4.980   0.535
 9142TIP3   OH227370   6.888   7.460   4.931
 9142TIP3    H127371   6.975   7.499   4.941
 9142TIP3    H227372   6.841   7.522   4.874
 9143TIP3   OH227373   2.616   6.328   4.081
 9143TIP3    H127374   2.552   6.290   4.021
 9143TIP3    H227375   2.689   6.354   4.025
 9144TIP3   OH227376   6.793   6.235   0.454
 9144TIP3    H127377   6.719   6.276   0.410
 9144TIP3    H227378   6.870   6.268   0.408
 9145TIP3   OH227379   1.950   6.208   3.857
 9145TIP3    H127380   1.943   6.284   3.800
 9145TIP3    H227381   2.030   6.223   3.908
 9146TIP3   OH227382   6.663   2.782   1.162
 9146TIP3    H127383   6.616   2.702   1.183
 9146TIP3    H227384   6.671   2.781   1.067
 9147TIP3   OH227385   0.901   0.582   4.221
 9147TIP3    H127386   0.937   0.668   4.196
 9147TIP3    H227387   0.944   0.562   4.304
 9148TIP3   OH227388   5.432   7.715   4.693
 9148TIP3    H127389   5.472   7.644   4.744
 9148TIP3    H227390   5.353   7.676   4.655
 9149TIP3   OH227391   4.635   4.843   1.350
 9149TIP3    H127392   4.724   4.860   1.381
 9149TIP3    H227393   4.595   4.793   1.421
 9150TIP3   OH227394   3.101   6.691   0.413
 9150TIP3    H127395   3.166   6.664   0.478
 9150TIP3    H227396   3.088   6.784   0.429
 9151TIP3   OH227397   3.541   5.571   4.599
 9151TIP3    H127398   3.581   5.653   4.627
 9151TIP3    H227399   3.484   5.546   4.672
 9152TIP3   OH227400   3.903   4.851   4.494
 9152TIP3    H127401   3.918   4.942   4.471
 9152TIP3    H227402   3.869   4.853   4.584
 9153TIP3   OH227403   4.534   4.002   0.565
 9153TIP3    H127404   4.539   3.971   0.656
 9153TIP3    H227405   4.596   3.946   0.517
 9154TIP3   OH227406   0.761   5.953   4.818
 9154TIP3    H127407   0.707   5.965   4.896
 9154TIP3    H227408   0.732   5.870   4.782
 9155TIP3   OH227409   3.489   1.876   3.293
 9155TIP3    H127410   3.435   1.800   3.316
 9155TIP3    H227411   3.529   1.852   3.209
 9156TIP3   OH227412   3.487   4.102   2.682
 9156TIP3    H127413   3.450   4.153   2.754
 9156TIP3    H227414   3.476   4.011   2.709
 9157TIP3   OH227415   5.874   6.640   1.180
 9157TIP3    H127416   5.885   6.593   1.098
 9157TIP3    H227417   5.779   6.647   1.192
 9158TIP3   OH227418   1.308   2.293   0.115
 9158TIP3    H127419   1.222   2.331   0.097
 9158TIP3    H227420   1.371   2.358   0.085
 9159TIP3   OH227421   4.157   0.859   3.367
 9159TIP3    H127422   4.223   0.908   3.416
 9159TIP3    H227423   4.206   0.817   3.296
 9160TIP3   OH227424   1.666   1.195   0.206
 9160TIP3    H127425   1.578   1.223   0.180
 9160TIP3    H227426   1.676   1.229   0.295
 9161TIP3   OH227427   2.865   1.476   2.746
 9161TIP3    H127428   2.892   1.521   2.666
 9161TIP3    H227429   2.769   1.477   2.743
 9162TIP3   OH227430   7.368   5.361   0.809
 9162TIP3    H127431   7.286   5.311   0.810
 9162TIP3    H227432   7.400   5.354   0.719
 9163TIP3   OH227433   3.356   5.754   3.576
 9163TIP3    H127434   3.398   5.727   3.494
 9163TIP3    H227435   3.429   5.775   3.635
 9164TIP3   OH227436   2.629   6.867   4.074
 9164TIP3    H127437   2.602   6.914   4.153
 9164TIP3    H227438   2.550   6.863   4.020
 9165TIP3   OH227439   2.249   0.473   0.799
 9165TIP3    H127440   2.332   0.437   0.829
 9165TIP3    H227441   2.267   0.565   0.780
 9166TIP3   OH227442   3.628   2.992   5.626
 9166TIP3    H127443   3.618   3.086   5.613
 9166TIP3    H227444   3.722   2.977   5.622
 9167TIP3   OH227445   0.153   4.303   2.299
 9167TIP3    H127446   0.235   4.347   2.275
 9167TIP3    H227447   0.180   4.234   2.360
 9168TIP3   OH227448   2.312   6.030   2.093
 9168TIP3    H127449   2.239   6.090   2.102
 9168TIP3    H227450   2.272   5.943   2.087
 9169TIP3   OH227451   1.835   4.815   2.668
 9169TIP3    H127452   1.901   4.788   2.733
 9169TIP3    H227453   1.881   4.809   2.584
 9170TIP3   OH227454   1.982   1.391   5.916
 9170TIP3    H127455   2.012   1.317   5.864
 9170TIP3    H227456   2.021   1.468   5.873
 9171TIP3   OH227457   2.081   4.105   5.085
 9171TIP3    H127458   2.056   4.196   5.069
 9171TIP3    H227459   2.102   4.069   4.999
 9172TIP3   OH227460   2.149   7.589   1.923
 9172TIP3    H127461   2.162   7.618   1.833
 9172TIP3    H227462   2.218   7.524   1.937
 9173TIP3   OH227463   4.389   4.745   5.464
 9173TIP3    H127464   4.450   4.677   5.436
 9173TIP3    H227465   4.399   4.815   5.399
 9174TIP3   OH227466   4.224   4.527   4.684
 9174TIP3    H127467   4.302   4.496   4.730
 9174TIP3    H227468   4.162   4.550   4.753
 9175TIP3   OH227469   3.112   1.562   1.313
 9175TIP3    H127470   3.084   1.623   1.382
 9175TIP3    H227471   3.168   1.499   1.358
 9176TIP3   OH227472   5.849   4.891   0.206
 9176TIP3    H127473   5.828   4.814   0.258
 9176TIP3    H227474   5.765   4.937   0.196
 9177TIP3   OH227475   5.459   6.628   4.725
 9177TIP3    H127476   5.447   6.706   4.779
 9177TIP3    H227477   5.548   6.599   4.745
 9178TIP3   OH227478   2.732   4.057   4.345
 9178TIP3    H127479   2.783   4.034   4.268
 9178TIP3    H227480   2.648   4.013   4.333
 9179TIP3   OH227481   1.809   1.624   3.242
 9179TIP3    H127482   1.890   1.629   3.293
 9179TIP3    H227483   1.764   1.546   3.274
 9180TIP3   OH227484   5.787   6.858   5.623
 9180TIP3    H127485   5.816   6.819   5.705
 9180TIP3    H227486   5.786   6.952   5.640
 9181TIP3   OH227487   1.717   5.533   5.216
 9181TIP3    H127488   1.719   5.463   5.150
 9181TIP3    H227489   1.626   5.534   5.246
 9182TIP3   OH227490   0.481   6.663   4.582
 9182TIP3    H127491   0.408   6.633   4.636
 9182TIP3    H227492   0.504   6.587   4.529
 9183TIP3   OH227493   5.862   1.670   1.913
 9183TIP3    H127494   5.815   1.750   1.939
 9183TIP3    H227495   5.892   1.632   1.996
 9184TIP3   OH227496   4.798   6.840   3.514
 9184TIP3    H127497   4.722   6.842   3.573
 9184TIP3    H227498   4.871   6.818   3.571
 9185TIP3   OH227499   0.661   2.152   0.380
 9185TIP3    H127500   0.614   2.231   0.355
 9185TIP3    H227501   0.623   2.127   0.464
 9186TIP3   OH227502   0.809   1.233   6.015
 9186TIP3    H127503   0.724   1.190   6.000
 9186TIP3    H227504   0.863   1.205   5.941
 9187TIP3   OH227505   4.870   3.167   4.945
 9187TIP3    H127506   4.939   3.106   4.918
 9187TIP3    H227507   4.838   3.204   4.862
 9188TIP3   OH227508   4.932   1.176   2.872
 9188TIP3    H127509   4.918   1.247   2.809
 9188TIP3    H227510   4.930   1.096   2.819
 9189TIP3   OH227511   7.183   0.244   0.203
 9189TIP3    H127512   7.233   0.315   0.163
 9189TIP3    H227513   7.091   0.269   0.191
 9190TIP3   OH227514   7.104   3.816   5.487
 9190TIP3    H127515   7.167   3.744   5.496
 9190TIP3    H227516   7.068   3.805   5.399
 9191TIP3   OH227517   6.579   4.833   2.428
 9191TIP3    H127518   6.572   4.843   2.333
 9191TIP3    H227519   6.552   4.918   2.463
 9192TIP3   OH227520   2.451   4.599   1.182
 9192TIP3    H127521   2.444   4.694   1.172
 9192TIP3    H227522   2.363   4.570   1.207
 9193TIP3   OH227523   2.246   0.540   3.507
 9193TIP3    H127524   2.299   0.460   3.502
 9193TIP3    H227525   2.156   0.509   3.518
 9194TIP3   OH227526   3.877   6.082   5.524
 9194TIP3    H127527   3.919   6.088   5.438
 9194TIP3    H227528   3.786   6.108   5.509
 9195TIP3   OH227529   4.900   7.572   0.375
 9195TIP3    H127530   4.923   7.499   0.318
 9195TIP3    H227531   4.952   7.558   0.454
 9196TIP3   OH227532   4.923   0.155   1.852
 9196TIP3    H127533   4.967   0.090   1.907
 9196TIP3    H227534   4.833   0.155   1.883
 9197TIP3   OH227535   4.396   4.049   2.590
 9197TIP3    H127536   4.349   3.971   2.621
 9197TIP3    H227537   4.466   4.014   2.535
 9198TIP3   OH227538   3.907   2.973   5.623
 9198TIP3    H127539   3.941   3.050   5.577
 9198TIP3    H227540   3.905   2.999   5.715
 9199TIP3   OH227541   7.839   1.594   6.666
 9199TIP3    H127542   7.860   1.583   6.573
 9199TIP3    H227543   7.832   1.689   6.677
 9200TIP3   OH227544   7.136   2.214   5.936
 9200TIP3    H127545   7.219   2.175   5.965
 9200TIP3    H227546   7.151   2.237   5.844
 9201TIP3   OH227547   0.432   0.404   4.026
 9201TIP3    H127548   0.407   0.459   3.952
 9201TIP3    H227549   0.520   0.433   4.050
 9202TIP3   OH227550   1.291   5.162   3.913
 9202TIP3    H127551   1.254   5.135   3.998
 9202TIP3    H227552   1.340   5.086   3.883
 9203TIP3   OH227553   5.642   7.354   0.070
 9203TIP3    H127554   5.711   7.414   0.041
 9203TIP3    H227555   5.576   7.411   0.110
 9204TIP3   OH227556   1.680   3.071   6.282
 9204TIP3    H127557   1.647   3.088   6.194
 9204TIP3    H227558   1.770   3.104   6.280
 9205TIP3   OH227559   5.079   7.708   2.066
 9205TIP3    H127560   5.076   7.636   2.003
 9205TIP3    H227561   5.160   7.694   2.115
 9206TIP3   OH227562   2.764   5.872   4.860
 9206TIP3    H127563   2.673   5.843   4.860
 9206TIP3    H227564   2.779   5.906   4.772
 9207TIP3   OH227565   7.712   5.809   3.705
 9207TIP3    H127566   7.682   5.815   3.614
 9207TIP3    H227567   7.691   5.895   3.742
 9208TIP3   OH227568   0.368   0.570   1.636
 9208TIP3    H127569   0.460   0.598   1.642
 9208TIP3    H227570   0.364   0.522   1.554
 9209TIP3   OH227571   3.583   3.923   1.014
 9209TIP3    H127572   3.604   3.888   1.101
 9209TIP3    H227573   3.668   3.946   0.977
 9210TIP3   OH227574   7.000   1.473   3.082
 9210TIP3    H127575   7.083   1.427   3.078
 9210TIP3    H227576   7.020   1.561   3.052
 9211TIP3   OH227577   1.779   5.839   0.227
 9211TIP3    H127578   1.713   5.773   0.249
 9211TIP3    H227579   1.800   5.880   0.311
 9212TIP3   OH227580   2.327   2.164   5.633
 9212TIP3    H127581   2.409   2.166   5.683
 9212TIP3    H227582   2.326   2.078   5.591
 9213TIP3   OH227583   6.045   1.537   0.971
 9213TIP3    H127584   5.959   1.519   1.011
 9213TIP3    H227585   6.031   1.617   0.920
 9214TIP3   OH227586   7.399   7.177   0.447
 9214TIP3    H127587   7.479   7.141   0.486
 9214TIP3    H227588   7.413   7.272   0.447
 9215TIP3   OH227589   1.733   7.306   0.091
 9215TIP3    H127590   1.681   7.226   0.083
 9215TIP3    H227591   1.824   7.276   0.090
 9216TIP3   OH227592   4.589   3.130   1.330
 9216TIP3    H127593   4.513   3.183   1.353
 9216TIP3    H227594   4.646   3.137   1.407
 9217TIP3   OH227595   4.416   1.475   2.084
 9217TIP3    H127596   4.476   1.524   2.139
 9217TIP3    H227597   4.357   1.542   2.049
 9218TIP3   OH227598   3.149   2.014   5.853
 9218TIP3    H127599   3.086   2.084   5.870
 9218TIP3    H227600   3.230   2.043   5.897
 9219TIP3   OH227601   5.464   3.836   5.995
 9219TIP3    H127602   5.486   3.788   5.914
 9219TIP3    H227603   5.488   3.927   5.976
 9220TIP3   OH227604   7.767   3.346   2.020
 9220TIP3    H127605   7.790   3.351   1.927
 9220TIP3    H227606   7.693   3.287   2.023
 9221TIP3   OH227607   4.525   2.123   0.797
 9221TIP3    H127608   4.512   2.081   0.713
 9221TIP3    H227609   4.606   2.173   0.787
 9222TIP3   OH227610   2.233   4.275   3.889
 9222TIP3    H127611   2.195   4.215   3.825
 9222TIP3    H227612   2.318   4.237   3.912
 9223TIP3   OH227613   2.868   0.961   4.398
 9223TIP3    H127614   2.859   0.930   4.308
 9223TIP3    H227615   2.799   1.026   4.408
 9224TIP3   OH227616   4.498   1.793   4.590
 9224TIP3    H127617   4.466   1.883   4.576
 9224TIP3    H227618   4.561   1.802   4.662
 9225TIP3   OH227619   0.391   4.962   0.378
 9225TIP3    H127620   0.444   4.901   0.429
 9225TIP3    H227621   0.452   5.002   0.317
 9226TIP3   OH227622   5.894   3.435   2.482
 9226TIP3    H127623   5.866   3.521   2.514
 9226TIP3    H227624   5.830   3.375   2.519
 9227TIP3   OH227625   4.334   6.578   2.736
 9227TIP3    H127626   4.412   6.624   2.766
 9227TIP3    H227627   4.345   6.489   2.769
 9228TIP3   OH227628   5.858   0.301   4.994
 9228TIP3    H127629   5.860   0.391   5.027
 9228TIP3    H227630   5.770   0.271   5.013
 9229TIP3   OH227631   4.022   2.939   0.624
 9229TIP3    H127632   4.020   2.889   0.543
 9229TIP3    H227633   3.972   2.886   0.687
 9230TIP3   OH227634   6.227   5.153   2.848
 9230TIP3    H127635   6.227   5.069   2.802
 9230TIP3    H227636   6.267   5.135   2.933
 9231TIP3   OH227637   7.210   0.312   6.086
 9231TIP3    H127638   7.296   0.282   6.116
 9231TIP3    H227639   7.196   0.265   6.004
 9232TIP3   OH227640   6.940   1.627   1.163
 9232TIP3    H127641   6.861   1.572   1.162
 9232TIP3    H227642   6.999   1.581   1.222
 9233TIP3   OH227643   1.445   2.991   5.441
 9233TIP3    H127644   1.485   2.998   5.528
 9233TIP3    H227645   1.473   3.071   5.395
 9234TIP3   OH227646   3.842   7.568   1.655
 9234TIP3    H127647   3.767   7.617   1.620
 9234TIP3    H227648   3.919   7.612   1.619
 9235TIP3   OH227649   5.963   6.248   5.676
 9235TIP3    H127650   6.029   6.317   5.677
 9235TIP3    H227651   5.937   6.238   5.768
 9236TIP3   OH227652   8.265   1.681   4.757
 9236TIP3    H127653   8.330   1.643   4.698
 9236TIP3    H227654   8.226   1.753   4.708
 9237TIP3   OH227655   3.440   2.245   3.130
 9237TIP3    H127656   3.395   2.184   3.189
 9237TIP3    H227657   3.491   2.189   3.072
 9238TIP3   OH227658   3.612   7.225   4.759
 9238TIP3    H127659   3.557   7.180   4.823
 9238TIP3    H227660   3.566   7.308   4.743
 9239TIP3   OH227661   1.569   5.135   4.804
 9239TIP3    H127662   1.603   5.089   4.881
 9239TIP3    H227663   1.620   5.215   4.800
 9240TIP3   OH227664   4.177   1.808   0.854
 9240TIP3    H127665   4.108   1.860   0.813
 9240TIP3    H227666   4.223   1.767   0.781
 9241TIP3   OH227667   5.344   5.453   1.172
 9241TIP3    H127668   5.300   5.446   1.087
 9241TIP3    H227669   5.324   5.371   1.216
 9242TIP3   OH227670   5.231   0.288   5.420
 9242TIP3    H127671   5.202   0.379   5.409
 9242TIP3    H227672   5.252   0.281   5.513
 9243TIP3   OH227673   0.738   3.678   1.266
 9243TIP3    H127674   0.730   3.722   1.351
 9243TIP3    H227675   0.817   3.716   1.226
 9244TIP3   OH227676   5.771   3.932   4.823
 9244TIP3    H127677   5.822   3.850   4.830
 9244TIP3    H227678   5.820   3.994   4.877
 9245TIP3   OH227679   5.531   6.592   6.032
 9245TIP3    H127680   5.453   6.635   5.996
 9245TIP3    H227681   5.582   6.664   6.069
 9246TIP3   OH227682   5.868   0.545   5.133
 9246TIP3    H127683   5.814   0.532   5.210
 9246TIP3    H227684   5.930   0.614   5.157
 9247TIP3   OH227685   1.533   6.515   4.380
 9247TIP3    H127686   1.439   6.496   4.379
 9247TIP3    H227687   1.570   6.461   4.311
 9248TIP3   OH227688   3.710   4.361   4.586
 9248TIP3    H127689   3.627   4.395   4.553
 9248TIP3    H227690   3.741   4.428   4.646
 9249TIP3   OH227691   1.851   0.509   2.142
 9249TIP3    H127692   1.791   0.578   2.115
 9249TIP3    H227693   1.850   0.446   2.070
 9250TIP3   OH227694   4.315   0.829   5.247
 9250TIP3    H127695   4.269   0.756   5.206
 9250TIP3    H227696   4.396   0.839   5.196
 9251TIP3   OH227697   6.858   0.238   4.272
 9251TIP3    H127698   6.936   0.219   4.323
 9251TIP3    H227699   6.786   0.229   4.334
 9252TIP3   OH227700   5.057   4.924   2.717
 9252TIP3    H127701   5.050   5.008   2.670
 9252TIP3    H227702   4.967   4.893   2.723
 9253TIP3   OH227703   0.243   7.743   0.934
 9253TIP3    H127704   0.335   7.738   0.961
 9253TIP3    H227705   0.205   7.660   0.961
 9254TIP3   OH227706   7.354   6.720   4.052
 9254TIP3    H127707   7.287   6.723   3.983
 9254TIP3    H227708   7.437   6.718   4.004
 9255TIP3   OH227709   1.215   5.614   2.834
 9255TIP3    H127710   1.167   5.630   2.915
 9255TIP3    H227711   1.177   5.533   2.799
 9256TIP3   OH227712   4.860   6.689   1.610
 9256TIP3    H127713   4.853   6.673   1.516
 9256TIP3    H227714   4.824   6.777   1.622
 9257TIP3   OH227715   6.794   4.841   2.836
 9257TIP3    H127716   6.883   4.828   2.867
 9257TIP3    H227717   6.804   4.870   2.745
 9258TIP3   OH227718   2.247   3.323   2.913
 9258TIP3    H127719   2.181   3.254   2.916
 9258TIP3    H227720   2.301   3.300   2.837
 9259TIP3   OH227721   3.867   3.671   0.525
 9259TIP3    H127722   3.902   3.756   0.499
 9259TIP3    H227723   3.938   3.609   0.505
 9260TIP3   OH227724   4.661   7.651   3.473
 9260TIP3    H127725   4.753   7.622   3.470
 9260TIP3    H227726   4.621   7.610   3.396
 9261TIP3   OH227727   3.680   2.495   3.319
 9261TIP3    H127728   3.761   2.494   3.370
 9261TIP3    H227729   3.683   2.578   3.271
 9262TIP3   OH227730   8.186   6.135   0.153
 9262TIP3    H127731   8.274   6.166   0.173
 9262TIP3    H227732   8.143   6.127   0.238
 9263TIP3   OH227733   7.650   2.542   2.936
 9263TIP3    H127734   7.705   2.511   2.863
 9263TIP3    H227735   7.686   2.628   2.958
 9264TIP3   OH227736   5.313   4.051   1.077
 9264TIP3    H127737   5.264   3.969   1.070
 9264TIP3    H227738   5.251   4.113   1.114
 9265TIP3   OH227739   1.976   6.020   3.095
 9265TIP3    H127740   1.978   5.924   3.103
 9265TIP3    H227741   2.007   6.037   3.006
 9266TIP3   OH227742   2.393   7.446   6.129
 9266TIP3    H127743   2.338   7.426   6.204
 9266TIP3    H227744   2.332   7.451   6.055
 9267TIP3   OH227745   3.102   7.413   4.546
 9267TIP3    H127746   3.064   7.389   4.631
 9267TIP3    H227747   3.027   7.436   4.492
 9268TIP3   OH227748   5.699   1.982   6.754
 9268TIP3    H127749   5.786   1.942   6.740
 9268TIP3    H227750   5.718   2.069   6.789
 9269TIP3   OH227751   0.779   3.583   2.721
 9269TIP3    H127752   0.858   3.560   2.672
 9269TIP3    H227753   0.789   3.537   2.804
 9270TIP3   OH227754   6.541   1.296   3.278
 9270TIP3    H127755   6.528   1.205   3.306
 9270TIP3    H227756   6.477   1.346   3.329
 9271TIP3   OH227757   4.234   1.251   2.737
 9271TIP3    H127758   4.311   1.230   2.790
 9271TIP3    H227759   4.266   1.317   2.675
 9272TIP3   OH227760   0.962   7.583   6.208
 9272TIP3    H127761   0.994   7.499   6.241
 9272TIP3    H227762   1.041   7.634   6.190
 9273TIP3   OH227763   5.158   1.152   3.380
 9273TIP3    H127764   5.157   1.080   3.317
 9273TIP3    H227765   5.186   1.112   3.462
 9274TIP3   OH227766   1.784   3.453   1.010
 9274TIP3    H127767   1.736   3.375   1.035
 9274TIP3    H227768   1.785   3.507   1.089
 9275TIP3   OH227769   2.550   5.047   5.786
 9275TIP3    H127770   2.538   5.017   5.696
 9275TIP3    H227771   2.633   5.096   5.784
 9276TIP3   OH227772   6.231   3.864   5.421
 9276TIP3    H127773   6.311   3.916   5.433
 9276TIP3    H227774   6.262   3.774   5.410
 9277TIP3   OH227775   3.357   3.681   4.596
 9277TIP3    H127776   3.398   3.594   4.593
 9277TIP3    H227777   3.414   3.737   4.544
 9278TIP3   OH227778   1.460   4.656   0.471
 9278TIP3    H127779   1.398   4.654   0.398
 9278TIP3    H227780   1.494   4.567   0.476
 9279TIP3   OH227781   8.072   5.905   1.003
 9279TIP3    H127782   8.097   5.955   1.081
 9279TIP3    H227783   8.031   5.826   1.037
 9280TIP3   OH227784   0.440   0.850   5.336
 9280TIP3    H127785   0.494   0.771   5.331
 9280TIP3    H227786   0.503   0.922   5.344
 9281TIP3   OH227787   6.166   6.696   5.010
 9281TIP3    H127788   6.110   6.638   4.958
 9281TIP3    H227789   6.216   6.746   4.944
 9282TIP3   OH227790   6.483   1.235   1.977
 9282TIP3    H127791   6.553   1.245   2.041
 9282TIP3    H227792   6.410   1.286   2.014
 9283TIP3   OH227793   7.352   1.374   1.183
 9283TIP3    H127794   7.342   1.458   1.228
 9283TIP3    H227795   7.267   1.359   1.140
 9284TIP3   OH227796   0.307   2.242   2.847
 9284TIP3    H127797   0.222   2.237   2.803
 9284TIP3    H227798   0.315   2.334   2.872
 9285TIP3   OH227799   6.522   0.577   3.240
 9285TIP3    H127800   6.509   0.606   3.150
 9285TIP3    H227801   6.433   0.561   3.273
 9286TIP3   OH227802   7.156   5.616   2.718
 9286TIP3    H127803   7.210   5.673   2.773
 9286TIP3    H227804   7.203   5.533   2.715
 9287TIP3   OH227805   1.382   1.789   4.704
 9287TIP3    H127806   1.360   1.881   4.698
 9287TIP3    H227807   1.475   1.785   4.682
 9288TIP3   OH227808   1.886   6.414   2.300
 9288TIP3    H127809   1.888   6.467   2.380
 9288TIP3    H227810   1.939   6.464   2.238
 9289TIP3   OH227811   3.185   4.094   0.809
 9289TIP3    H127812   3.276   4.077   0.786
 9289TIP3    H227813   3.189   4.157   0.881
 9290TIP3   OH227814   5.687   2.890   0.205
 9290TIP3    H127815   5.637   2.883   0.124
 9290TIP3    H227816   5.731   2.975   0.198
 9291TIP3   OH227817   3.305   7.297   4.399
 9291TIP3    H127818   3.248   7.338   4.464
 9291TIP3    H227819   3.323   7.209   4.434
 9292TIP3   OH227820   1.131   5.395   2.141
 9292TIP3    H127821   1.220   5.425   2.157
 9292TIP3    H227822   1.132   5.302   2.166
 9293TIP3   OH227823   7.774   5.611   5.072
 9293TIP3    H127824   7.848   5.622   5.013
 9293TIP3    H227825   7.697   5.615   5.015
 9294TIP3   OH227826   1.608   3.266   5.650
 9294TIP3    H127827   1.571   3.350   5.621
 9294TIP3    H227828   1.596   3.207   5.576
 9295TIP3   OH227829   5.272   3.177   0.100
 9295TIP3    H127830   5.309   3.196   0.186
 9295TIP3    H227831   5.343   3.194   0.038
 9296TIP3   OH227832   7.032   4.437   6.183
 9296TIP3    H127833   7.092   4.413   6.253
 9296TIP3    H227834   6.947   4.402   6.211
 9297TIP3   OH227835   7.659   5.066   3.440
 9297TIP3    H127836   7.639   5.146   3.391
 9297TIP3    H227837   7.713   5.095   3.513
 9298TIP3   OH227838   6.930   3.768   5.259
 9298TIP3    H127839   6.995   3.783   5.191
 9298TIP3    H227840   6.931   3.674   5.274
 9299TIP3   OH227841   5.325   4.912   2.656
 9299TIP3    H127842   5.318   4.891   2.563
 9299TIP3    H227843   5.234   4.911   2.687
 9300TIP3   OH227844   1.736   1.277   5.985
 9300TIP3    H127845   1.784   1.360   5.975
 9300TIP3    H227846   1.725   1.245   5.895
 9301TIP3   OH227847   3.413   6.838   4.299
 9301TIP3    H127848   3.330   6.796   4.276
 9301TIP3    H227849   3.396   6.932   4.291
 9302TIP3   OH227850   2.415   2.348   4.675
 9302TIP3    H127851   2.444   2.415   4.612
 9302TIP3    H227852   2.320   2.354   4.674
 9303TIP3   OH227853   7.309   4.453   3.780
 9303TIP3    H127854   7.349   4.382   3.830
 9303TIP3    H227855   7.216   4.446   3.798
 9304TIP3   OH227856   4.036   0.953   1.556
 9304TIP3    H127857   4.041   0.933   1.650
 9304TIP3    H227858   4.027   0.867   1.515
 9305TIP3   OH227859   7.635   0.314   2.718
 9305TIP3    H127860   7.665   0.337   2.806
 9305TIP3    H227861   7.543   0.289   2.730
 9306TIP3   OH227862   7.647   6.091   4.228
 9306TIP3    H127863   7.671   6.000   4.215
 9306TIP3    H227864   7.693   6.139   4.159
 9307TIP3   OH227865   3.563   3.617   5.212
 9307TIP3    H127866   3.558   3.589   5.303
 9307TIP3    H227867   3.473   3.631   5.185
 9308TIP3   OH227868   2.342   3.055   6.389
 9308TIP3    H127869   2.278   2.985   6.384
 9308TIP3    H227870   2.386   3.055   6.304
 9309TIP3   OH227871   5.258   7.104   1.841
 9309TIP3    H127872   5.212   7.025   1.870
 9309TIP3    H227873   5.349   7.088   1.864
 9310TIP3   OH227874   2.633   1.197   0.399
 9310TIP3    H127875   2.717   1.223   0.362
 9310TIP3    H227876   2.585   1.159   0.325
 9311TIP3   OH227877   7.388   3.038   1.757
 9311TIP3    H127878   7.332   3.079   1.692
 9311TIP3    H227879   7.329   3.012   1.828
 9312TIP3   OH227880   3.189   2.137   2.956
 9312TIP3    H127881   3.093   2.140   2.959
 9312TIP3    H227882   3.216   2.141   3.048
 9313TIP3   OH227883   2.149   1.712   5.229
 9313TIP3    H127884   2.063   1.679   5.253
 9313TIP3    H227885   2.210   1.642   5.253
 9314TIP3   OH227886   2.607   5.530   6.010
 9314TIP3    H127887   2.636   5.611   6.052
 9314TIP3    H227888   2.523   5.552   5.970
 9315TIP3   OH227889   0.681   5.096   2.043
 9315TIP3    H127890   0.644   5.026   2.097
 9315TIP3    H227891   0.676   5.174   2.099
 9316TIP3   OH227892   2.541   6.623   1.593
 9316TIP3    H127893   2.579   6.702   1.555
 9316TIP3    H227894   2.617   6.572   1.621
 9317TIP3   OH227895   0.756   7.697   6.040
 9317TIP3    H127896   0.823   7.648   6.089
 9317TIP3    H227897   0.800   7.778   6.016
 9318TIP3   OH227898   3.437   2.618   1.415
 9318TIP3    H127899   3.403   2.702   1.385
 9318TIP3    H227900   3.375   2.553   1.380
 9319TIP3   OH227901   6.938   4.528   4.460
 9319TIP3    H127902   6.935   4.435   4.483
 9319TIP3    H227903   6.981   4.569   4.534
 9320TIP3   OH227904   0.138   6.284   4.968
 9320TIP3    H127905   0.195   6.293   5.044
 9320TIP3    H227906   0.066   6.344   4.984
 9321TIP3   OH227907   2.324   0.854   0.155
 9321TIP3    H127908   2.229   0.865   0.154
 9321TIP3    H227909   2.352   0.891   0.071
 9322TIP3   OH227910   3.818   0.585   3.915
 9322TIP3    H127911   3.853   0.671   3.939
 9322TIP3    H227912   3.769   0.557   3.993
 9323TIP3   OH227913   2.464   0.824   4.413
 9323TIP3    H127914   2.456   0.882   4.338
 9323TIP3    H227915   2.389   0.845   4.468
 9324TIP3   OH227916   5.889   5.055   3.280
 9324TIP3    H127917   5.846   5.006   3.351
 9324TIP3    H227918   5.831   5.130   3.265
 9325TIP3   OH227919   0.653   2.146   1.462
 9325TIP3    H127920   0.715   2.212   1.430
 9325TIP3    H227921   0.708   2.083   1.508
 9326TIP3   OH227922   1.181   6.303   4.123
 9326TIP3    H127923   1.251   6.294   4.059
 9326TIP3    H227924   1.182   6.221   4.172
 9327TIP3   OH227925   3.338   6.995   6.161
 9327TIP3    H127926   3.302   6.910   6.185
 9327TIP3    H227927   3.263   7.043   6.125
 9328TIP3   OH227928   1.406   7.567   4.158
 9328TIP3    H127929   1.382   7.492   4.212
 9328TIP3    H227930   1.430   7.529   4.073
 9329TIP3   OH227931   8.094   7.728   0.881
 9329TIP3    H127932   8.004   7.742   0.909
 9329TIP3    H227933   8.147   7.749   0.957
 9330TIP3   OH227934   3.654   0.419   1.648
 9330TIP3    H127935   3.575   0.397   1.695
 9330TIP3    H227936   3.624   0.470   1.573
 9331TIP3   OH227937   7.790   0.426   0.926
 9331TIP3    H127938   7.777   0.342   0.970
 9331TIP3    H227939   7.770   0.408   0.834
 9332TIP3   OH227940   8.040   6.107   3.803
 9332TIP3    H127941   8.056   6.028   3.752
 9332TIP3    H227942   8.101   6.101   3.876
 9333TIP3   OH227943   8.001   3.654   4.819
 9333TIP3    H127944   7.981   3.745   4.839
 9333TIP3    H227945   7.931   3.626   4.761
 9334TIP3   OH227946   0.910   1.266   2.916
 9334TIP3    H127947   0.936   1.179   2.946
 9334TIP3    H227948   0.971   1.286   2.845
 9335TIP3   OH227949   3.199   1.817   6.741
 9335TIP3    H127950   3.174   1.811   6.833
 9335TIP3    H227951   3.293   1.833   6.743
 9336TIP3   OH227952   5.709   3.646   1.891
 9336TIP3    H127953   5.702   3.741   1.907
 9336TIP3    H227954   5.628   3.622   1.847
 9337TIP3   OH227955   4.231   3.068   0.501
 9337TIP3    H127956   4.166   3.017   0.550
 9337TIP3    H227957   4.179   3.124   0.443
 9338TIP3   OH227958   6.813   0.562   2.714
 9338TIP3    H127959   6.881   0.629   2.702
 9338TIP3    H227960   6.731   0.610   2.709
 9339TIP3   OH227961   1.718   2.053   0.497
 9339TIP3    H127962   1.701   1.964   0.466
 9339TIP3    H227963   1.633   2.085   0.529
 9340TIP3   OH227964   3.932   7.510   6.163
 9340TIP3    H127965   3.940   7.443   6.095
 9340TIP3    H227966   4.011   7.500   6.216
 9341TIP3   OH227967   1.055   3.589   3.505
 9341TIP3    H127968   0.982   3.545   3.548
 9341TIP3    H227969   1.015   3.655   3.450
 9342TIP3   OH227970   1.009   2.527   1.159
 9342TIP3    H127971   1.068   2.599   1.178
 9342TIP3    H227972   0.922   2.566   1.156
 9343TIP3   OH227973   1.569   0.188   5.689
 9343TIP3    H127974   1.522   0.259   5.734
 9343TIP3    H227975   1.634   0.233   5.635
 9344TIP3   OH227976   6.865   2.665   5.995
 9344TIP3    H127977   6.842   2.643   6.086
 9344TIP3    H227978   6.944   2.718   6.003
 9345TIP3   OH227979   2.771   7.610   1.566
 9345TIP3    H127980   2.858   7.611   1.607
 9345TIP3    H227981   2.788   7.628   1.474
 9346TIP3   OH227982   3.040   5.097   0.007
 9346TIP3    H127983   2.987   5.073  -0.069
 9346TIP3    H227984   2.985   5.158   0.056
 9347TIP3   OH227985   4.595   5.860   1.298
 9347TIP3    H127986   4.514   5.868   1.349
 9347TIP3    H227987   4.566   5.847   1.208
 9348TIP3   OH227988   5.357   5.995   2.840
 9348TIP3    H127989   5.335   6.019   2.930
 9348TIP3    H227990   5.287   6.035   2.787
 9349TIP3   OH227991   5.794   4.370   1.655
 9349TIP3    H127992   5.733   4.387   1.583
 9349TIP3    H227993   5.815   4.457   1.690
 9350TIP3   OH227994   0.452   3.626   5.762
 9350TIP3    H127995   0.536   3.626   5.809
 9350TIP3    H227996   0.386   3.617   5.831
 9351TIP3   OH227997   3.652   1.469   6.034
 9351TIP3    H127998   3.560   1.446   6.043
 9351TIP3    H227999   3.675   1.513   6.116
 9352TIP3   OH228000   6.599   0.216   3.036
 9352TIP3    H128001   6.527   0.230   2.975
 9352TIP3    H228002   6.592   0.124   3.061
 9353TIP3   OH228003   4.204   0.385   3.895
 9353TIP3    H128004   4.214   0.322   3.823
 9353TIP3    H228005   4.290   0.389   3.935
 9354TIP3   OH228006   7.940   0.621   5.695
 9354TIP3    H128007   7.995   0.684   5.649
 9354TIP3    H228008   8.002   0.560   5.735
 9355TIP3   OH228009   4.793   7.127   4.833
 9355TIP3    H128010   4.700   7.122   4.813
 9355TIP3    H228011   4.834   7.064   4.775
 9356TIP3   OH228012   1.332   1.733   2.637
 9356TIP3    H128013   1.298   1.812   2.681
 9356TIP3    H228014   1.408   1.708   2.688
 9357TIP3   OH228015   3.192   5.798   6.385
 9357TIP3    H128016   3.269   5.792   6.441
 9357TIP3    H228017   3.200   5.884   6.343
 9358TIP3   OH228018   6.633   7.156   0.818
 9358TIP3    H128019   6.693   7.137   0.746
 9358TIP3    H228020   6.684   7.210   0.878
 9359TIP3   OH228021   3.762   4.922   3.155
 9359TIP3    H128022   3.796   5.009   3.136
 9359TIP3    H228023   3.695   4.936   3.221
 9360TIP3   OH228024   5.599   0.993   2.521
 9360TIP3    H128025   5.595   0.904   2.487
 9360TIP3    H228026   5.509   1.027   2.510
 9361TIP3   OH228027   3.948   4.284   6.385
 9361TIP3    H128028   3.955   4.326   6.299
 9361TIP3    H228029   3.911   4.352   6.441
 9362TIP3   OH228030   0.196   1.713   4.454
 9362TIP3    H128031   0.170   1.748   4.369
 9362TIP3    H228032   0.264   1.772   4.485
 9363TIP3   OH228033   4.569   1.164   4.055
 9363TIP3    H128034   4.623   1.237   4.024
 9363TIP3    H228035   4.571   1.101   3.983
 9364TIP3   OH228036   1.055   1.093   2.067
 9364TIP3    H128037   1.057   1.042   1.987
 9364TIP3    H228038   1.084   1.032   2.135
 9365TIP3   OH228039   6.982   3.016   1.327
 9365TIP3    H128040   6.911   2.978   1.378
 9365TIP3    H228041   7.061   2.973   1.358
 9366TIP3   OH228042   0.097   6.040   3.673
 9366TIP3    H128043   0.104   6.056   3.579
 9366TIP3    H228044   0.130   5.951   3.685
 9367TIP3   OH228045   4.771   7.296   6.083
 9367TIP3    H128046   4.844   7.286   6.022
 9367TIP3    H228047   4.704   7.238   6.049
 9368TIP3   OH228048   3.206   4.301   3.742
 9368TIP3    H128049   3.254   4.323   3.662
 9368TIP3    H228050   3.163   4.383   3.767
 9369TIP3   OH228051   7.253   7.633   2.162
 9369TIP3    H128052   7.339   7.659   2.131
 9369TIP3    H228053   7.234   7.694   2.234
 9370TIP3   OH228054   2.322   0.389   0.325
 9370TIP3    H128055   2.385   0.322   0.353
 9370TIP3    H228056   2.291   0.359   0.239
 9371TIP3   OH228057   4.913   0.028   1.377
 9371TIP3    H128058   4.906   0.076   1.294
 9371TIP3    H228059   4.831  -0.019   1.384
 9372TIP3   OH228060   8.182   6.833   6.082
 9372TIP3    H128061   8.257   6.860   6.135
 9372TIP3    H228062   8.129   6.780   6.141
 9373TIP3   OH228063   4.014   6.798   2.332
 9373TIP3    H128064   4.082   6.731   2.334
 9373TIP3    H228065   3.949   6.764   2.270
 9374TIP3   OH228066   1.544   2.901   1.010
 9374TIP3    H128067   1.581   2.986   0.989
 9374TIP3    H228068   1.583   2.877   1.094
 9375TIP3   OH228069   1.442   6.794   5.773
 9375TIP3    H128070   1.382   6.867   5.790
 9375TIP3    H228071   1.423   6.731   5.842
 9376TIP3   OH228072   2.205   6.214   6.109
 9376TIP3    H128073   2.180   6.132   6.066
 9376TIP3    H228074   2.130   6.271   6.100
 9377TIP3   OH228075   4.195   5.597   6.261
 9377TIP3    H128076   4.203   5.545   6.181
 9377TIP3    H228077   4.268   5.568   6.316
 9378TIP3   OH228078   2.533   4.457   1.439
 9378TIP3    H128079   2.524   4.550   1.457
 9378TIP3    H228080   2.452   4.418   1.472
 9379TIP3   OH228081   7.617   4.751   2.362
 9379TIP3    H128082   7.535   4.772   2.318
 9379TIP3    H228083   7.616   4.656   2.370
 9380TIP3   OH228084   1.632   2.314   5.997
 9380TIP3    H128085   1.553   2.262   6.012
 9380TIP3    H228086   1.661   2.289   5.910
 9381TIP3   OH228087   5.408   3.738   5.509
 9381TIP3    H128088   5.322   3.737   5.551
 9381TIP3    H228089   5.394   3.789   5.429
 9382TIP3   OH228090   0.556   6.723   5.907
 9382TIP3    H128091   0.515   6.730   5.993
 9382TIP3    H228092   0.633   6.780   5.913
 9383TIP3   OH228093   1.178   5.664   5.975
 9383TIP3    H128094   1.142   5.745   6.012
 9383TIP3    H228095   1.187   5.605   6.050
 9384TIP3   OH228096   6.669   7.202   0.494
 9384TIP3    H128097   6.616   7.279   0.517
 9384TIP3    H228098   6.617   7.157   0.427
 9385TIP3   OH228099   7.498   0.083   0.858
 9385TIP3    H128100   7.410   0.118   0.872
 9385TIP3    H228101   7.555   0.161   0.857
 9386TIP3   OH228102   1.003   1.572   1.600
 9386TIP3    H128103   1.088   1.528   1.594
 9386TIP3    H228104   1.024   1.661   1.629
 9387TIP3   OH228105   5.291   6.501   4.988
 9387TIP3    H128106   5.242   6.558   4.928
 9387TIP3    H228107   5.344   6.561   5.040
 9388TIP3   OH228108   0.665   5.980   6.612
 9388TIP3    H128109   0.708   6.061   6.586
 9388TIP3    H228110   0.629   5.945   6.530
 9389TIP3   OH228111   7.658   7.116   5.387
 9389TIP3    H128112   7.588   7.159   5.437
 9389TIP3    H228113   7.739   7.143   5.432
 9390TIP3   OH228114   2.115   3.947   2.674
 9390TIP3    H128115   2.055   3.960   2.748
 9390TIP3    H228116   2.200   3.933   2.715
 9391TIP3   OH228117   0.031   0.771   5.054
 9391TIP3    H128118   0.110   0.729   5.088
 9391TIP3    H228119  -0.013   0.704   5.003
 9392TIP3   OH228120   7.447   2.407   6.014
 9392TIP3    H128121   7.381   2.456   5.965
 9392TIP3    H228122   7.503   2.474   6.053
 9393TIP3   OH228123   7.165   3.113   3.334
 9393TIP3    H128124   7.238   3.134   3.392
 9393TIP3    H228125   7.090   3.162   3.370
 9394TIP3   OH228126   1.700   2.490   2.298
 9394TIP3    H128127   1.658   2.442   2.228
 9394TIP3    H228128   1.746   2.562   2.254
 9395TIP3   OH228129   1.178   5.570   0.539
 9395TIP3    H128130   1.152   5.479   0.527
 9395TIP3    H228131   1.179   5.582   0.634
 9396TIP3   OH228132   1.414   2.028   0.979
 9396TIP3    H128133   1.468   1.978   0.918
 9396TIP3    H228134   1.417   1.978   1.060
 9397TIP3   OH228135   7.372   1.201   0.626
 9397TIP3    H128136   7.350   1.172   0.538
 9397TIP3    H228137   7.468   1.207   0.626
 9398TIP3   OH228138   0.748   2.939   4.728
 9398TIP3    H128139   0.758   2.882   4.652
 9398TIP3    H228140   0.780   3.025   4.698
 9399TIP3   OH228141   1.399   1.876   6.647
 9399TIP3    H128142   1.432   1.793   6.611
 9399TIP3    H228143   1.451   1.943   6.604
 9400TIP3   OH228144   2.935   2.909   5.007
 9400TIP3    H128145   3.010   2.883   4.953
 9400TIP3    H228146   2.952   2.871   5.092
 9401TIP3   OH228147   6.796   1.384   4.694
 9401TIP3    H128148   6.864   1.319   4.709
 9401TIP3    H228149   6.821   1.459   4.748
 9402TIP3   OH228150   1.039   5.719   1.403
 9402TIP3    H128151   1.060   5.786   1.338
 9402TIP3    H228152   1.108   5.727   1.469
 9403TIP3   OH228153   5.255   4.755   5.570
 9403TIP3    H128154   5.334   4.808   5.583
 9403TIP3    H228155   5.204   4.805   5.507
 9404TIP3   OH228156   0.326   0.142   3.623
 9404TIP3    H128157   0.274   0.161   3.545
 9404TIP3    H228158   0.261   0.136   3.693
 9405TIP3   OH228159   1.497   4.592   2.479
 9405TIP3    H128160   1.583   4.597   2.437
 9405TIP3    H228161   1.438   4.565   2.409
 9406TIP3   OH228162   8.096   2.367   3.257
 9406TIP3    H128163   8.007   2.401   3.262
 9406TIP3    H228164   8.147   2.438   3.217
 9407TIP3   OH228165   7.112   2.770   2.883
 9407TIP3    H128166   7.075   2.715   2.813
 9407TIP3    H228167   7.180   2.821   2.839
 9408TIP3   OH228168   6.224   2.665   1.566
 9408TIP3    H128169   6.161   2.737   1.570
 9408TIP3    H228170   6.270   2.678   1.483
 9409TIP3   OH228171   2.843   5.503   4.206
 9409TIP3    H128172   2.901   5.536   4.137
 9409TIP3    H228173   2.833   5.410   4.186
 9410TIP3   OH228174   3.089   4.791   6.405
 9410TIP3    H128175   3.086   4.725   6.474
 9410TIP3    H228176   3.149   4.858   6.438
 9411TIP3   OH228177   8.213   5.552   1.562
 9411TIP3    H128178   8.212   5.512   1.648
 9411TIP3    H228179   8.295   5.524   1.523
 9412TIP3   OH228180   1.141   5.855   0.020
 9412TIP3    H128181   1.232   5.852   0.051
 9412TIP3    H228182   1.146   5.823  -0.070
 9413TIP3   OH228183   3.071   1.541   0.645
 9413TIP3    H128184   2.975   1.536   0.646
 9413TIP3    H228185   3.090   1.634   0.628
 9414TIP3   OH228186   5.506   0.319   5.297
 9414TIP3    H128187   5.570   0.354   5.358
 9414TIP3    H228188   5.421   0.334   5.339
 9415TIP3   OH228189   7.281   4.729   1.191
 9415TIP3    H128190   7.323   4.794   1.135
 9415TIP3    H228191   7.196   4.713   1.150
 9416TIP3   OH228192   1.499   7.478   5.738
 9416TIP3    H128193   1.502   7.464   5.643
 9416TIP3    H228194   1.407   7.493   5.757
 9417TIP3   OH228195   3.791   7.507   4.530
 9417TIP3    H128196   3.838   7.521   4.612
 9417TIP3    H228197   3.738   7.587   4.518
 9418TIP3   OH228198   4.863   3.945   5.999
 9418TIP3    H128199   4.782   3.950   5.949
 9418TIP3    H228200   4.851   4.007   6.072
 9419TIP3   OH228201   2.020   7.655   3.816
 9419TIP3    H128202   2.025   7.630   3.723
 9419TIP3    H228203   1.953   7.597   3.852
 9420TIP3   OH228204   2.151   4.871   4.166
 9420TIP3    H128205   2.179   4.833   4.249
 9420TIP3    H228206   2.154   4.798   4.104
 9421TIP3   OH228207   2.332   7.712   2.754
 9421TIP3    H128208   2.399   7.659   2.798
 9421TIP3    H228209   2.249   7.667   2.774
 9422TIP3   OH228210   7.026   5.375   3.929
 9422TIP3    H128211   7.050   5.314   3.999
 9422TIP3    H228212   7.087   5.357   3.858
 9423TIP3   OH228213   4.054   4.277   0.381
 9423TIP3    H128214   4.118   4.222   0.427
 9423TIP3    H228215   3.969   4.238   0.402
 9424TIP3   OH228216   3.690   5.344   4.558
 9424TIP3    H128217   3.658   5.278   4.619
 9424TIP3    H228218   3.622   5.411   4.556
 9425TIP3   OH228219   2.800   2.809   3.174
 9425TIP3    H128220   2.795   2.883   3.113
 9425TIP3    H228221   2.709   2.795   3.201
 9426TIP3   OH228222   7.295   3.038   0.971
 9426TIP3    H128223   7.261   3.089   0.898
 9426TIP3    H228224   7.265   2.948   0.954
 9427TIP3   OH228225   1.890   6.788   0.274
 9427TIP3    H128226   1.968   6.811   0.324
 9427TIP3    H228227   1.821   6.843   0.311
 9428TIP3   OH228228   0.491   5.035   3.537
 9428TIP3    H128229   0.507   4.950   3.495
 9428TIP3    H228230   0.576   5.078   3.539
 9429TIP3   OH228231   6.023   1.348   4.130
 9429TIP3    H128232   5.972   1.287   4.184
 9429TIP3    H228233   5.956   1.400   4.085
 9430TIP3   OH228234   2.624   0.838   5.531
 9430TIP3    H128235   2.667   0.847   5.446
 9430TIP3    H228236   2.672   0.767   5.575
 9431TIP3   OH228237   6.505   2.864   6.099
 9431TIP3    H128238   6.562   2.811   6.155
 9431TIP3    H228239   6.426   2.810   6.089
 9432TIP3   OH228240   0.070   3.272   6.366
 9432TIP3    H128241   0.053   3.178   6.372
 9432TIP3    H228242   0.121   3.282   6.286
 9433TIP3   OH228243   6.081   1.267   3.346
 9433TIP3    H128244   6.137   1.322   3.401
 9433TIP3    H228245   6.124   1.182   3.347
 9434TIP3   OH228246   0.439   2.393   6.029
 9434TIP3    H128247   0.486   2.344   5.961
 9434TIP3    H228248   0.457   2.343   6.109
 9435TIP3   OH228249   5.970   2.055   1.806
 9435TIP3    H128250   5.910   1.996   1.851
 9435TIP3    H228251   6.057   2.026   1.834
 9436TIP3   OH228252   1.672   1.213   2.762
 9436TIP3    H128253   1.692   1.284   2.701
 9436TIP3    H228254   1.755   1.166   2.772
 9437TIP3   OH228255   0.870   0.138   3.654
 9437TIP3    H128256   0.884   0.051   3.618
 9437TIP3    H228257   0.802   0.177   3.599
 9438TIP3   OH228258   2.856   0.936   1.130
 9438TIP3    H128259   2.822   0.935   1.040
 9438TIP3    H228260   2.810   1.008   1.172
 9439TIP3   OH228261   6.476   5.195   5.056
 9439TIP3    H128262   6.439   5.283   5.063
 9439TIP3    H228263   6.467   5.173   4.963
 9440TIP3   OH228264   3.922   6.996   5.836
 9440TIP3    H128265   3.949   6.920   5.886
 9440TIP3    H228266   3.832   7.014   5.865
 9441TIP3   OH228267   2.447   6.023   5.892
 9441TIP3    H128268   2.500   5.998   5.816
 9441TIP3    H228269   2.511   6.048   5.958
 9442TIP3   OH228270   0.637   0.262   3.561
 9442TIP3    H128271   0.597   0.260   3.474
 9442TIP3    H228272   0.566   0.236   3.621
 9443TIP3   OH228273   4.558   7.789   4.695
 9443TIP3    H128274   4.639   7.743   4.716
 9443TIP3    H228275   4.494   7.720   4.680
 9444TIP3   OH228276   5.269   5.239   1.328
 9444TIP3    H128277   5.207   5.191   1.274
 9444TIP3    H228278   5.283   5.184   1.404
 9445TIP3   OH228279   0.647   1.156   3.740
 9445TIP3    H128280   0.625   1.064   3.756
 9445TIP3    H228281   0.721   1.174   3.798
 9446TIP3   OH228282   6.758   3.964   5.343
 9446TIP3    H128283   6.781   4.034   5.283
 9446TIP3    H228284   6.811   3.889   5.314
 9447TIP3   OH228285   5.656   5.817   1.727
 9447TIP3    H128286   5.628   5.739   1.680
 9447TIP3    H228287   5.578   5.848   1.772
 9448TIP3   OH228288   4.734   1.757   3.793
 9448TIP3    H128289   4.785   1.722   3.719
 9448TIP3    H228290   4.643   1.747   3.766
 9449TIP3   OH228291   0.173   7.036   4.674
 9449TIP3    H128292   0.198   7.126   4.657
 9449TIP3    H228293   0.197   6.988   4.594
 9450TIP3   OH228294   4.240   0.442   0.290
 9450TIP3    H128295   4.196   0.413   0.210
 9450TIP3    H228296   4.233   0.538   0.288
 9451TIP3   OH228297   5.842   2.644   3.297
 9451TIP3    H128298   5.909   2.712   3.305
 9451TIP3    H228299   5.885   2.574   3.248
 9452TIP3   OH228300   4.956   7.605   6.113
 9452TIP3    H128301   4.882   7.665   6.099
 9452TIP3    H228302   4.978   7.574   6.026
 9453TIP3   OH228303   2.190   5.626   6.056
 9453TIP3    H128304   2.267   5.681   6.072
 9453TIP3    H228305   2.226   5.543   6.023
 9454TIP3   OH228306   2.748   1.590   2.344
 9454TIP3    H128307   2.785   1.615   2.428
 9454TIP3    H228308   2.705   1.506   2.360
 9455TIP3   OH228309   7.665   6.999   4.080
 9455TIP3    H128310   7.727   6.994   4.007
 9455TIP3    H228311   7.611   7.075   4.059
 9456TIP3   OH228312   0.992   4.735   6.744
 9456TIP3    H128313   0.957   4.673   6.680
 9456TIP3    H228314   1.047   4.793   6.693
 9457TIP3   OH228315   0.623   5.797   5.721
 9457TIP3    H128316   0.655   5.848   5.795
 9457TIP3    H228317   0.694   5.800   5.657
 9458TIP3   OH228318   5.789   2.088   4.998
 9458TIP3    H128319   5.697   2.069   5.018
 9458TIP3    H228320   5.787   2.165   4.942
 9459TIP3   OH228321   0.319   7.186   0.716
 9459TIP3    H128322   0.280   7.153   0.635
 9459TIP3    H228323   0.271   7.142   0.786
 9460TIP3   OH228324   0.453   3.048   3.972
 9460TIP3    H128325   0.378   3.076   3.919
 9460TIP3    H228326   0.434   3.082   4.059
 9461TIP3   OH228327   4.655   0.673   3.227
 9461TIP3    H128328   4.700   0.644   3.148
 9461TIP3    H228329   4.661   0.769   3.224
 9462TIP3   OH228330   4.702   2.830   6.536
 9462TIP3    H128331   4.715   2.906   6.479
 9462TIP3    H228332   4.741   2.757   6.486
 9463TIP3   OH228333   0.098   2.831   3.380
 9463TIP3    H128334   0.187   2.860   3.358
 9463TIP3    H228335   0.044   2.909   3.371
 9464TIP3   OH228336   4.339   2.667   2.411
 9464TIP3    H128337   4.297   2.599   2.360
 9464TIP3    H228338   4.326   2.747   2.361
 9465TIP3   OH228339   3.068   3.359   4.088
 9465TIP3    H128340   3.025   3.372   4.173
 9465TIP3    H228341   3.148   3.311   4.109
 9466TIP3   OH228342   5.208   4.062   1.966
 9466TIP3    H128343   5.186   4.069   2.059
 9466TIP3    H228344   5.133   4.103   1.922
 9467TIP3   OH228345   1.171   6.083   6.371
 9467TIP3    H128346   1.201   6.120   6.454
 9467TIP3    H228347   1.240   6.103   6.309
 9468TIP3   OH228348   3.310   4.951   6.563
 9468TIP3    H128349   3.326   4.868   6.609
 9468TIP3    H228350   3.230   4.985   6.603
 9469TIP3   OH228351   3.534   6.017   5.683
 9469TIP3    H128352   3.585   6.065   5.617
 9469TIP3    H228353   3.502   6.085   5.742
 9470TIP3   OH228354   3.659   2.595   4.492
 9470TIP3    H128355   3.587   2.646   4.529
 9470TIP3    H228356   3.710   2.568   4.568
 9471TIP3   OH228357   7.081   2.391   2.319
 9471TIP3    H128358   7.126   2.474   2.336
 9471TIP3    H228359   6.989   2.409   2.340
 9472TIP3   OH228360   6.037   0.549   4.726
 9472TIP3    H128361   5.993   0.619   4.773
 9472TIP3    H228362   6.129   0.556   4.751
 9473TIP3   OH228363   4.093   2.941   2.250
 9473TIP3    H128364   4.169   2.926   2.192
 9473TIP3    H228365   4.091   3.035   2.263
 9474TIP3   OH228366   6.922   4.236   6.522
 9474TIP3    H128367   6.869   4.296   6.469
 9474TIP3    H228368   6.926   4.156   6.470
 9475TIP3   OH228369   2.039   1.338   6.650
 9475TIP3    H128370   2.129   1.368   6.636
 9475TIP3    H228371   1.989   1.379   6.579
 9476TIP3   OH228372   5.237   3.440   5.616
 9476TIP3    H128373   5.316   3.457   5.565
 9476TIP3    H228374   5.197   3.526   5.627
 9477TIP3   OH228375   7.619   4.277   3.758
 9477TIP3    H128376   7.580   4.340   3.697
 9477TIP3    H228377   7.584   4.302   3.843
 9478TIP3   OH228378   1.188   0.178   4.127
 9478TIP3    H128379   1.111   0.195   4.073
 9478TIP3    H228380   1.227   0.099   4.089
 9479TIP3   OH228381   5.805   6.204   3.828
 9479TIP3    H128382   5.801   6.289   3.784
 9479TIP3    H228383   5.823   6.225   3.919
 9480TIP3   OH228384   7.290   7.687   6.671
 9480TIP3    H128385   7.210   7.741   6.665
 9480TIP3    H228386   7.273   7.627   6.744
 9481TIP3   OH228387   1.215   6.125   5.462
 9481TIP3    H128388   1.126   6.095   5.443
 9481TIP3    H228389   1.218   6.129   5.558
 9482TIP3   OH228390   6.813   1.492   2.003
 9482TIP3    H128391   6.773   1.421   2.055
 9482TIP3    H228392   6.812   1.568   2.061
 9483TIP3   OH228393   7.738   5.162   5.476
 9483TIP3    H128394   7.725   5.256   5.479
 9483TIP3    H228395   7.819   5.147   5.526
 9484TIP3   OH228396   7.364   0.196   1.358
 9484TIP3    H128397   7.309   0.134   1.311
 9484TIP3    H228398   7.408   0.143   1.425
 9485TIP3   OH228399   7.204   6.631   0.674
 9485TIP3    H128400   7.219   6.559   0.613
 9485TIP3    H228401   7.273   6.623   0.739
 9486TIP3   OH228402   0.512   1.140   4.965
 9486TIP3    H128403   0.497   1.162   4.873
 9486TIP3    H228404   0.583   1.198   4.992
 9487TIP3   OH228405   1.853   3.163   5.556
 9487TIP3    H128406   1.905   3.232   5.517
 9487TIP3    H228407   1.788   3.209   5.609
 9488TIP3   OH228408   3.303   6.993   2.398
 9488TIP3    H128409   3.390   6.961   2.374
 9488TIP3    H228410   3.294   7.076   2.352
 9489TIP3   OH228411   1.668   4.274   5.722
 9489TIP3    H128412   1.670   4.338   5.794
 9489TIP3    H228413   1.688   4.325   5.644
 9490TIP3   OH228414   7.220   4.568   2.257
 9490TIP3    H128415   7.282   4.640   2.245
 9490TIP3    H228416   7.192   4.545   2.169
 9491TIP3   OH228417   4.025   5.834   2.124
 9491TIP3    H128418   3.983   5.789   2.198
 9491TIP3    H228419   4.113   5.796   2.120
 9492TIP3   OH228420   8.170   6.570   0.431
 9492TIP3    H128421   8.142   6.510   0.362
 9492TIP3    H228422   8.177   6.655   0.388
 9493TIP3   OH228423   7.286   5.221   0.599
 9493TIP3    H128424   7.265   5.170   0.521
 9493TIP3    H228425   7.203   5.226   0.647
 9494TIP3   OH228426   4.963   6.834   4.615
 9494TIP3    H128427   4.886   6.779   4.603
 9494TIP3    H228428   4.966   6.851   4.710
 9495TIP3   OH228429   0.658   0.151   3.838
 9495TIP3    H128430   0.725   0.211   3.807
 9495TIP3    H228431   0.701   0.065   3.841
 9496TIP3   OH228432   1.800   0.387   1.574
 9496TIP3    H128433   1.721   0.333   1.572
 9496TIP3    H228434   1.768   0.476   1.585
 9497TIP3   OH228435   3.197   3.304   2.189
 9497TIP3    H128436   3.109   3.328   2.159
 9497TIP3    H228437   3.193   3.210   2.202
 9498TIP3   OH228438   3.691   0.739   3.577
 9498TIP3    H128439   3.771   0.788   3.597
 9498TIP3    H228440   3.637   0.748   3.656
 9499TIP3   OH228441   2.880   2.789   1.150
 9499TIP3    H128442   2.852   2.706   1.189
 9499TIP3    H228443   2.974   2.794   1.169
 9500TIP3   OH228444   1.282   1.312   6.202
 9500TIP3    H128445   1.352   1.354   6.152
 9500TIP3    H228446   1.232   1.385   6.240
 9501TIP3   OH228447   6.864   6.426   2.436
 9501TIP3    H128448   6.810   6.347   2.436
 9501TIP3    H228449   6.831   6.478   2.509
 9502TIP3   OH228450   6.380   5.925   0.477
 9502TIP3    H128451   6.367   5.830   0.469
 9502TIP3    H228452   6.300   5.963   0.440
 9503TIP3   OH228453   8.129   6.516   6.541
 9503TIP3    H128454   8.093   6.490   6.626
 9503TIP3    H228455   8.217   6.478   6.541
 9504TIP3   OH228456   0.135   6.504   3.668
 9504TIP3    H128457   0.113   6.547   3.585
 9504TIP3    H228458   0.071   6.434   3.676
 9505TIP3   OH228459   0.948   4.362   1.349
 9505TIP3    H128460   0.913   4.349   1.261
 9505TIP3    H228461   1.040   4.383   1.335
 9506TIP3   OH228462   1.985   0.670   4.471
 9506TIP3    H128463   1.907   0.639   4.516
 9506TIP3    H228464   1.992   0.615   4.393
 9507TIP3   OH228465   1.152   4.704   5.458
 9507TIP3    H128466   1.065   4.671   5.436
 9507TIP3    H228467   1.143   4.800   5.454
 9508TIP3   OH228468   4.083   0.602   3.500
 9508TIP3    H128469   4.063   0.544   3.574
 9508TIP3    H228470   4.102   0.686   3.540
 9509TIP3   OH228471   1.226   4.145   1.327
 9509TIP3    H128472   1.251   4.110   1.413
 9509TIP3    H228473   1.208   4.237   1.343
 9510TIP3   OH228474   1.736   4.515   2.636
 9510TIP3    H128475   1.712   4.588   2.579
 9510TIP3    H228476   1.738   4.552   2.724
 9511TIP3   OH228477   6.067   6.260   3.972
 9511TIP3    H128478   6.029   6.205   4.040
 9511TIP3    H228479   6.158   6.271   3.998
 9512TIP3   OH228480   6.837   7.753   2.701
 9512TIP3    H128481   6.899   7.691   2.740
 9512TIP3    H228482   6.891   7.808   2.644
 9513TIP3   OH228483   8.261   7.618   5.974
 9513TIP3    H128484   8.322   7.691   5.980
 9513TIP3    H228485   8.174   7.658   5.983
 9514TIP3   OH228486   7.872   2.461   3.491
 9514TIP3    H128487   7.892   2.368   3.505
 9514TIP3    H228488   7.890   2.502   3.575
 9515TIP3   OH228489   3.812   2.574   1.872
 9515TIP3    H128490   3.786   2.620   1.953
 9515TIP3    H228491   3.825   2.644   1.808
 9516TIP3   OH228492   6.623   7.435   5.449
 9516TIP3    H128493   6.650   7.526   5.460
 9516TIP3    H228494   6.534   7.441   5.413
 9517TIP3   OH228495   1.986   4.312   4.857
 9517TIP3    H128496   1.911   4.252   4.849
 9517TIP3    H228497   2.033   4.302   4.775
 9518TIP3   OH228498   0.492   4.652   4.988
 9518TIP3    H128499   0.435   4.728   5.001
 9518TIP3    H228500   0.575   4.677   5.030
 9519TIP3   OH228501   2.648   4.063   0.459
 9519TIP3    H128502   2.635   4.014   0.541
 9519TIP3    H228503   2.579   4.129   0.459
 9520TIP3   OH228504   3.213   6.050   4.390
 9520TIP3    H128505   3.273   6.041   4.315
 9520TIP3    H228506   3.223   5.968   4.438
 9521TIP3   OH228507   4.928   6.253   5.576
 9521TIP3    H128508   4.909   6.185   5.512
 9521TIP3    H228509   4.937   6.206   5.659
 9522TIP3   OH228510   6.935   2.669   0.767
 9522TIP3    H128511   6.907   2.587   0.807
 9522TIP3    H228512   6.965   2.644   0.679
 9523TIP3   OH228513   6.190   5.051   5.487
 9523TIP3    H128514   6.279   5.077   5.511
 9523TIP3    H228515   6.168   5.108   5.413
 9524TIP3   OH228516   5.724   6.663   0.696
 9524TIP3    H128517   5.767   6.708   0.624
 9524TIP3    H228518   5.707   6.731   0.761
 9525TIP3   OH228519   7.148   3.363   2.053
 9525TIP3    H128520   7.096   3.379   1.975
 9525TIP3    H228521   7.239   3.367   2.023
 9526TIP3   OH228522   6.768   6.787   3.192
 9526TIP3    H128523   6.772   6.691   3.196
 9526TIP3    H228524   6.675   6.806   3.176
 9527TIP3   OH228525   1.915   6.035   1.953
 9527TIP3    H128526   1.865   6.085   2.018
 9527TIP3    H228527   1.993   6.089   1.937
 9528TIP3   OH228528   1.714   3.077   5.974
 9528TIP3    H128529   1.789   3.025   5.944
 9528TIP3    H228530   1.751   3.160   6.002
 9529TIP3   OH228531   7.903   1.627   1.385
 9529TIP3    H128532   7.877   1.643   1.294
 9529TIP3    H228533   7.948   1.543   1.383
 9530TIP3   OH228534   3.489   6.478   6.015
 9530TIP3    H128535   3.550   6.414   6.051
 9530TIP3    H228536   3.469   6.446   5.928
 9531TIP3   OH228537   0.718   7.040   0.193
 9531TIP3    H128538   0.680   7.128   0.194
 9531TIP3    H228539   0.805   7.053   0.156
 9532TIP3   OH228540   6.128   7.588   4.717
 9532TIP3    H128541   6.118   7.532   4.640
 9532TIP3    H228542   6.135   7.677   4.682
 9533TIP3   OH228543   1.959   4.000   2.901
 9533TIP3    H128544   1.924   4.027   2.986
 9533TIP3    H228545   1.884   4.007   2.842
 9534TIP3   OH228546   6.786   1.607   1.672
 9534TIP3    H128547   6.853   1.672   1.692
 9534TIP3    H228548   6.806   1.533   1.729
 9535TIP3   OH228549   1.420   4.730   2.716
 9535TIP3    H128550   1.336   4.691   2.739
 9535TIP3    H228551   1.452   4.678   2.643
 9536TIP3   OH228552   4.412   0.194   1.007
 9536TIP3    H128553   4.350   0.121   1.002
 9536TIP3    H228554   4.437   0.199   1.099
 9537TIP3   OH228555   0.482   5.025   4.895
 9537TIP3    H128556   0.398   4.981   4.883
 9537TIP3    H228557   0.520   4.984   4.972
 9538TIP3   OH228558   5.857   3.142   0.716
 9538TIP3    H128559   5.784   3.112   0.770
 9538TIP3    H228560   5.816   3.180   0.639
 9539TIP3   OH228561   6.556   4.901   3.252
 9539TIP3    H128562   6.537   4.933   3.340
 9539TIP3    H228563   6.632   4.952   3.224
 9540TIP3   OH228564   1.059   7.512   1.760
 9540TIP3    H128565   1.150   7.513   1.790
 9540TIP3    H228566   1.008   7.537   1.836
 9541TIP3   OH228567   0.506   5.261   2.252
 9541TIP3    H128568   0.578   5.216   2.295
 9541TIP3    H228569   0.499   5.345   2.298
 9542TIP3   OH228570   4.402   4.619   6.299
 9542TIP3    H128571   4.314   4.637   6.265
 9542TIP3    H228572   4.455   4.607   6.220
 9543TIP3   OH228573   1.535   3.497   1.818
 9543TIP3    H128574   1.505   3.588   1.820
 9543TIP3    H228575   1.614   3.500   1.764
 9544TIP3   OH228576   3.620   2.239   6.372
 9544TIP3    H128577   3.671   2.159   6.368
 9544TIP3    H228578   3.601   2.251   6.466
 9545TIP3   OH228579   2.924   1.957   0.240
 9545TIP3    H128580   2.842   2.001   0.265
 9545TIP3    H228581   2.912   1.867   0.268
 9546TIP3   OH228582   1.848   5.871   1.236
 9546TIP3    H128583   1.850   5.907   1.148
 9546TIP3    H228584   1.755   5.873   1.260
 9547TIP3   OH228585   5.451   1.271   3.899
 9547TIP3    H128586   5.469   1.313   3.815
 9547TIP3    H228587   5.356   1.254   3.898
 9548TIP3   OH228588   8.104   1.676   3.556
 9548TIP3    H128589   8.091   1.722   3.639
 9548TIP3    H228590   8.182   1.716   3.518
 9549TIP3   OH228591   7.247   4.622   6.649
 9549TIP3    H128592   7.224   4.681   6.578
 9549TIP3    H228593   7.163   4.602   6.692
 9550TIP3   OH228594   2.848   0.562   4.206
 9550TIP3    H128595   2.904   0.541   4.281
 9550TIP3    H228596   2.830   0.655   4.215
 9551TIP3   OH228597   5.865   1.360   1.412
 9551TIP3    H128598   5.869   1.350   1.507
 9551TIP3    H228599   5.878   1.453   1.397
 9552TIP3   OH228600   2.075   2.545   6.083
 9552TIP3    H128601   1.995   2.523   6.131
 9552TIP3    H228602   2.101   2.463   6.041
 9553TIP3   OH228603   3.518   5.842   1.406
 9553TIP3    H128604   3.541   5.931   1.435
 9553TIP3    H228605   3.599   5.792   1.414
 9554TIP3   OH228606   2.026   0.245   0.899
 9554TIP3    H128607   1.976   0.265   0.820
 9554TIP3    H228608   2.089   0.317   0.905
 9555TIP3   OH228609   0.503   7.731   2.103
 9555TIP3    H128610   0.519   7.823   2.080
 9555TIP3    H228611   0.493   7.733   2.199
 9556TIP3   OH228612   2.003   4.269   1.434
 9556TIP3    H128613   1.991   4.193   1.376
 9556TIP3    H228614   2.087   4.253   1.477
 9557TIP3   OH228615   5.152   5.023   1.225
 9557TIP3    H128616   5.172   4.949   1.168
 9557TIP3    H228617   5.065   5.052   1.197
 9558TIP3   OH228618   4.800   6.093   4.358
 9558TIP3    H128619   4.735   6.060   4.296
 9558TIP3    H228620   4.841   6.014   4.393
 9559TIP3   OH228621   3.045   0.333   4.343
 9559TIP3    H128622   2.964   0.343   4.394
 9559TIP3    H228623   3.113   0.369   4.400
 9560TIP3   OH228624   3.487   0.777   5.542
 9560TIP3    H128625   3.413   0.836   5.523
 9560TIP3    H228626   3.506   0.734   5.459
 9561TIP3   OH228627   1.201   5.102   4.140
 9561TIP3    H128628   1.140   5.028   4.148
 9561TIP3    H228629   1.171   5.164   4.207
 9562TIP3   OH228630   5.978   7.493   5.453
 9562TIP3    H128631   5.948   7.581   5.429
 9562TIP3    H228632   5.954   7.439   5.377
 9563TIP3   OH228633   5.951   3.672   5.722
 9563TIP3    H128634   5.913   3.733   5.658
 9563TIP3    H228635   6.044   3.691   5.720
 9564TIP3   OH228636   0.599   0.849   1.575
 9564TIP3    H128637   0.630   0.934   1.606
 9564TIP3    H228638   0.602   0.855   1.480
 9565TIP3   OH228639   5.119   4.848   1.516
 9565TIP3    H128640   5.153   4.927   1.475
 9565TIP3    H228641   5.183   4.828   1.585
 9566TIP3   OH228642   1.118   3.936   3.370
 9566TIP3    H128643   1.039   3.885   3.350
 9566TIP3    H228644   1.171   3.931   3.291
 9567TIP3   OH228645   1.040   7.166   4.100
 9567TIP3    H128646   1.024   7.120   4.183
 9567TIP3    H228647   0.979   7.240   4.102
 9568TIP3   OH228648   4.238   2.343   1.820
 9568TIP3    H128649   4.184   2.344   1.741
 9568TIP3    H228650   4.271   2.254   1.826
 9569TIP3   OH228651   3.863   4.970   0.641
 9569TIP3    H128652   3.917   4.956   0.563
 9569TIP3    H228653   3.927   4.973   0.713
 9570TIP3   OH228654   3.469   6.197   0.966
 9570TIP3    H128655   3.491   6.290   0.966
 9570TIP3    H228656   3.479   6.170   0.874
 9571TIP3   OH228657   3.778   6.118   0.702
 9571TIP3    H128658   3.686   6.118   0.677
 9571TIP3    H228659   3.786   6.190   0.764
 9572TIP3   OH228660   3.098   5.832   3.570
 9572TIP3    H128661   3.181   5.785   3.580
 9572TIP3    H228662   3.121   5.925   3.581
 9573TIP3   OH228663   7.492   5.785   6.549
 9573TIP3    H128664   7.583   5.757   6.562
 9573TIP3    H228665   7.457   5.722   6.486
 9574TIP3   OH228666   6.862   7.164   0.212
 9574TIP3    H128667   6.849   7.247   0.166
 9574TIP3    H228668   6.786   7.111   0.186
 9575TIP3   OH228669   8.244   7.669   3.582
 9575TIP3    H128670   8.326   7.718   3.572
 9575TIP3    H228671   8.210   7.697   3.666
 9576TIP3   OH228672   1.748   0.583   4.587
 9576TIP3    H128673   1.668   0.536   4.567
 9576TIP3    H228674   1.733   0.620   4.674
 9577TIP3   OH228675   2.907   6.049   1.477
 9577TIP3    H128676   2.933   6.141   1.483
 9577TIP3    H228677   2.956   6.005   1.547
 9578TIP3   OH228678   4.065   1.093   3.944
 9578TIP3    H128679   4.012   1.133   3.875
 9578TIP3    H228680   4.047   0.999   3.937
 9579TIP3   OH228681   7.518   5.759   4.426
 9579TIP3    H128682   7.486   5.693   4.487
 9579TIP3    H228683   7.490   5.842   4.463
 9580TIP3   OH228684   0.200   7.466   3.732
 9580TIP3    H128685   0.198   7.556   3.698
 9580TIP3    H228686   0.293   7.447   3.744
 9581TIP3   OH228687   1.368   0.059   2.032
 9581TIP3    H128688   1.460   0.040   2.014
 9581TIP3    H228689   1.359   0.153   2.015
 9582TIP3   OH228690   1.217   4.415   1.311
 9582TIP3    H128691   1.189   4.473   1.240
 9582TIP3    H228692   1.269   4.472   1.368
 9583TIP3   OH228693   5.614   6.332   5.992
 9583TIP3    H128694   5.595   6.422   6.019
 9583TIP3    H228695   5.572   6.323   5.907
 9584TIP3   OH228696   3.260   0.470   2.127
 9584TIP3    H128697   3.288   0.532   2.195
 9584TIP3    H228698   3.167   0.488   2.116
 9585TIP3   OH228699   2.129   1.818   1.439
 9585TIP3    H128700   2.035   1.808   1.420
 9585TIP3    H228701   2.172   1.806   1.354
 9586TIP3   OH228702   4.111   2.203   3.740
 9586TIP3    H128703   4.157   2.239   3.664
 9586TIP3    H228704   4.180   2.196   3.807
 9587TIP3   OH228705   0.761   2.998   0.961
 9587TIP3    H128706   0.684   2.986   1.018
 9587TIP3    H228707   0.826   2.937   0.995
 9588TIP3   OH228708   1.324   7.404   4.357
 9588TIP3    H128709   1.383   7.443   4.421
 9588TIP3    H228710   1.337   7.309   4.367
 9589TIP3   OH228711   6.078   4.992   6.752
 9589TIP3    H128712   6.068   5.051   6.677
 9589TIP3    H228713   6.133   5.041   6.813
 9590TIP3   OH228714   6.483   5.054   5.562
 9590TIP3    H128715   6.550   5.116   5.531
 9590TIP3    H228716   6.526   4.969   5.557
 9591TIP3   OH228717   5.951   7.455   5.728
 9591TIP3    H128718   5.989   7.470   5.642
 9591TIP3    H228719   5.941   7.543   5.765
 9592TIP3   OH228720   0.513   1.622   6.661
 9592TIP3    H128721   0.539   1.686   6.727
 9592TIP3    H228722   0.567   1.545   6.680
 9593TIP3   OH228723   6.351   5.607   5.650
 9593TIP3    H128724   6.333   5.604   5.744
 9593TIP3    H228725   6.443   5.632   5.643
 9594TIP3   OH228726   4.184   4.378   1.305
 9594TIP3    H128727   4.206   4.356   1.395
 9594TIP3    H228728   4.220   4.305   1.254
 9595TIP3   OH228729   1.770   5.731   0.834
 9595TIP3    H128730   1.814   5.652   0.801
 9595TIP3    H228731   1.837   5.775   0.887
 9596TIP3   OH228732   4.385   2.257   2.450
 9596TIP3    H128733   4.428   2.333   2.410
 9596TIP3    H228734   4.392   2.188   2.384
 9597TIP3   OH228735   7.544   2.965   5.468
 9597TIP3    H128736   7.469   3.005   5.512
 9597TIP3    H228737   7.618   3.022   5.490
 9598TIP3   OH228738   2.027   0.868   0.856
 9598TIP3    H128739   2.069   0.878   0.941
 9598TIP3    H228740   1.990   0.779   0.858
 9599TIP3   OH228741   6.679   2.319   3.869
 9599TIP3    H128742   6.717   2.272   3.795
 9599TIP3    H228743   6.745   2.311   3.939
 9600TIP3   OH228744   1.663   1.796   3.109
 9600TIP3    H128745   1.597   1.737   3.073
 9600TIP3    H228746   1.729   1.738   3.148
 9601TIP3   OH228747   4.204   4.221   3.113
 9601TIP3    H128748   4.299   4.214   3.122
 9601TIP3    H228749   4.181   4.301   3.159
 9602TIP3   OH228750   3.316   7.417   0.741
 9602TIP3    H128751   3.381   7.458   0.684
 9602TIP3    H228752   3.302   7.481   0.812
 9603TIP3   OH228753   3.794   4.861   4.756
 9603TIP3    H128754   3.873   4.875   4.809
 9603TIP3    H228755   3.742   4.939   4.771
 9604TIP3   OH228756   0.036   7.372   1.306
 9604TIP3    H128757  -0.029   7.443   1.302
 9604TIP3    H228758  -0.001   7.310   1.369
 9605TIP3   OH228759   6.041   0.262   5.460
 9605TIP3    H128760   6.028   0.245   5.554
 9605TIP3    H228761   6.135   0.282   5.453
 9606TIP3   OH228762   6.734   3.474   6.582
 9606TIP3    H128763   6.758   3.567   6.575
 9606TIP3    H228764   6.803   3.428   6.535
 9607TIP3   OH228765   8.264   5.414   5.818
 9607TIP3    H128766   8.340   5.464   5.846
 9607TIP3    H228767   8.202   5.480   5.787
 9608TIP3   OH228768   6.480   6.134   6.326
 9608TIP3    H128769   6.561   6.182   6.311
 9608TIP3    H228770   6.464   6.143   6.420
 9609TIP3   OH228771   8.248   1.280   5.091
 9609TIP3    H128772   8.317   1.236   5.042
 9609TIP3    H228773   8.293   1.319   5.166
 9610TIP3   OH228774   5.760   4.588   4.926
 9610TIP3    H128775   5.786   4.575   5.017
 9610TIP3    H228776   5.716   4.507   4.902
 9611TIP3   OH228777   6.743   5.236   0.696
 9611TIP3    H128778   6.736   5.321   0.652
 9611TIP3    H228779   6.786   5.256   0.779
 9612TIP3   OH228780   3.283   5.083   1.362
 9612TIP3    H128781   3.299   5.064   1.455
 9612TIP3    H228782   3.320   5.170   1.349
 9613TIP3   OH228783   1.056   4.844   4.090
 9613TIP3    H128784   0.972   4.862   4.131
 9613TIP3    H228785   1.035   4.828   3.998
 9614TIP3   OH228786   7.117   4.070   0.810
 9614TIP3    H128787   7.191   4.058   0.870
 9614TIP3    H228788   7.094   4.163   0.819
 9615TIP3   OH228789   7.310   1.507   3.516
 9615TIP3    H128790   7.384   1.463   3.474
 9615TIP3    H228791   7.335   1.511   3.609
 9616TIP3   OH228792   1.375   4.816   0.910
 9616TIP3    H128793   1.283   4.826   0.934
 9616TIP3    H228794   1.377   4.734   0.860
 9617TIP3   OH228795   4.861   3.217   3.554
 9617TIP3    H128796   4.913   3.257   3.624
 9617TIP3    H228797   4.782   3.270   3.549
 9618TIP3   OH228798   0.367   3.111   4.220
 9618TIP3    H128799   0.283   3.084   4.258
 9618TIP3    H228800   0.432   3.093   4.288
 9619TIP3   OH228801   1.805   3.440   1.674
 9619TIP3    H128802   1.756   3.369   1.632
 9619TIP3    H228803   1.886   3.446   1.623
 9620TIP3   OH228804   3.323   2.916   0.530
 9620TIP3    H128805   3.255   2.912   0.463
 9620TIP3    H228806   3.376   2.993   0.506
 9621TIP3   OH228807   7.267   2.177   4.255
 9621TIP3    H128808   7.290   2.256   4.303
 9621TIP3    H228809   7.253   2.111   4.322
 9622TIP3   OH228810   6.977   0.220   5.664
 9622TIP3    H128811   6.898   0.244   5.714
 9622TIP3    H228812   6.948   0.152   5.605
 9623TIP3   OH228813   0.551   1.297   1.046
 9623TIP3    H128814   0.516   1.384   1.027
 9623TIP3    H228815   0.598   1.272   0.967
 9624TIP3   OH228816   6.546   4.436   5.574
 9624TIP3    H128817   6.556   4.359   5.517
 9624TIP3    H228818   6.468   4.479   5.541
 9625TIP3   OH228819   3.469   4.631   0.963
 9625TIP3    H128820   3.437   4.624   0.873
 9625TIP3    H228821   3.464   4.542   0.997
 9626TIP3   OH228822   5.850   3.243   3.023
 9626TIP3    H128823   5.843   3.177   3.092
 9626TIP3    H228824   5.790   3.212   2.955
 9627TIP3   OH228825   8.246   0.822   1.792
 9627TIP3    H128826   8.339   0.806   1.808
 9627TIP3    H228827   8.217   0.746   1.742
 9628TIP3   OH228828   1.305   0.256   5.359
 9628TIP3    H128829   1.216   0.287   5.377
 9628TIP3    H228830   1.327   0.202   5.435
 9629TIP3   OH228831   4.063   5.946   2.974
 9629TIP3    H128832   4.095   6.025   3.019
 9629TIP3    H228833   4.123   5.935   2.901
 9630TIP3   OH228834   2.229   5.485   0.994
 9630TIP3    H128835   2.183   5.407   1.026
 9630TIP3    H228836   2.225   5.547   1.066
 9631TIP3   OH228837   7.370   5.942   5.888
 9631TIP3    H128838   7.357   5.934   5.982
 9631TIP3    H228839   7.454   5.988   5.879
 9632TIP3   OH228840   2.789   2.292   1.939
 9632TIP3    H128841   2.850   2.230   1.978
 9632TIP3    H228842   2.844   2.367   1.914
 9633TIP3   OH228843   6.986   3.034   2.959
 9633TIP3    H128844   7.046   2.960   2.971
 9633TIP3    H228845   6.924   3.027   3.031
 9634TIP3   OH228846   3.003   0.055   4.229
 9634TIP3    H128847   2.913   0.074   4.200
 9634TIP3    H228848   3.031   0.135   4.274
 9635TIP3   OH228849   6.569   7.499   0.515
 9635TIP3    H128850   6.552   7.582   0.560
 9635TIP3    H228851   6.481   7.462   0.502
 9636TIP3   OH228852   7.983   6.327   0.977
 9636TIP3    H128853   7.946   6.384   0.910
 9636TIP3    H228854   7.908   6.301   1.031
 9637TIP3   OH228855   4.799   6.025   5.500
 9637TIP3    H128856   4.742   6.001   5.426
 9637TIP3    H228857   4.881   5.979   5.482
 9638TIP3   OH228858   4.392   7.782   1.130
 9638TIP3    H128859   4.483   7.767   1.158
 9638TIP3    H228860   4.356   7.841   1.196
 9639TIP3   OH228861   7.244   0.807   0.160
 9639TIP3    H128862   7.308   0.826   0.229
 9639TIP3    H228863   7.290   0.746   0.102
 9640TIP3   OH228864   1.975   4.047   5.734
 9640TIP3    H128865   2.069   4.027   5.735
 9640TIP3    H228866   1.964   4.108   5.662
 9641TIP3   OH228867   2.495   7.030   4.943
 9641TIP3    H128868   2.502   7.035   5.038
 9641TIP3    H228869   2.512   7.120   4.913
 9642TIP3   OH228870   7.978   0.242   2.411
 9642TIP3    H128871   7.894   0.268   2.448
 9642TIP3    H228872   7.961   0.230   2.318
 9643TIP3   OH228873   5.324   1.572   1.497
 9643TIP3    H128874   5.400   1.588   1.441
 9643TIP3    H228875   5.277   1.656   1.500
 9644TIP3   OH228876   6.737   1.880   4.810
 9644TIP3    H128877   6.773   1.901   4.724
 9644TIP3    H228878   6.690   1.797   4.796
 9645TIP3   OH228879   2.271   0.350   1.092
 9645TIP3    H128880   2.347   0.306   1.130
 9645TIP3    H228881   2.247   0.296   1.016
 9646TIP3   OH228882   3.665   7.806   3.921
 9646TIP3    H128883   3.577   7.781   3.894
 9646TIP3    H228884   3.691   7.739   3.985
 9647TIP3   OH228885   6.298   5.972   1.405
 9647TIP3    H128886   6.326   5.893   1.452
 9647TIP3    H228887   6.205   5.958   1.389
 9648TIP3   OH228888   4.796   2.233   6.344
 9648TIP3    H128889   4.783   2.162   6.407
 9648TIP3    H228890   4.844   2.300   6.393
 9649TIP3   OH228891   0.807   5.721   3.605
 9649TIP3    H128892   0.890   5.685   3.572
 9649TIP3    H228893   0.746   5.711   3.532
 9650TIP3   OH228894   2.824   2.823   0.844
 9650TIP3    H128895   2.903   2.853   0.888
 9650TIP3    H228896   2.818   2.730   0.866
 9651TIP3   OH228897   6.566   2.202   2.242
 9651TIP3    H128898   6.660   2.201   2.223
 9651TIP3    H228899   6.559   2.228   2.334
 9652TIP3   OH228900   5.497   4.100   4.438
 9652TIP3    H128901   5.528   4.082   4.527
 9652TIP3    H228902   5.428   4.165   4.449
 9653TIP3   OH228903   5.063   0.820   1.965
 9653TIP3    H128904   5.121   0.870   1.908
 9653TIP3    H228905   5.111   0.812   2.048
 9654TIP3   OH228906   0.023   0.705   3.781
 9654TIP3    H128907  -0.052   0.714   3.723
 9654TIP3    H228908   0.098   0.731   3.728
 9655TIP3   OH228909   4.765   1.390   5.357
 9655TIP3    H128910   4.782   1.398   5.263
 9655TIP3    H228911   4.674   1.360   5.363
 9656TIP3   OH228912   4.857   0.258   1.134
 9656TIP3    H128913   4.783   0.318   1.126
 9656TIP3    H228914   4.875   0.230   1.044
 9657TIP3   OH228915   0.534   1.514   4.746
 9657TIP3    H128916   0.609   1.574   4.738
 9657TIP3    H228917   0.573   1.427   4.738
 9658TIP3   OH228918   6.857   0.589   6.109
 9658TIP3    H128919   6.854   0.639   6.190
 9658TIP3    H228920   6.909   0.511   6.130
 9659TIP3   OH228921   5.454   3.302   6.588
 9659TIP3    H128922   5.380   3.326   6.533
 9659TIP3    H228923   5.491   3.224   6.546
 9660TIP3   OH228924   6.914   2.363   3.211
 9660TIP3    H128925   6.871   2.330   3.132
 9660TIP3    H228926   7.008   2.355   3.193
 9661TIP3   OH228927   4.845   5.337   4.803
 9661TIP3    H128928   4.769   5.325   4.861
 9661TIP3    H228929   4.829   5.277   4.731
 9662TIP3   OH228930   7.210   1.807   2.419
 9662TIP3    H128931   7.302   1.797   2.441
 9662TIP3    H228932   7.170   1.723   2.444
 9663TIP3   OH228933   4.082   6.001   6.676
 9663TIP3    H128934   4.107   6.033   6.763
 9663TIP3    H228935   4.037   6.075   6.636
 9664TIP3   OH228936   7.363   2.069   2.317
 9664TIP3    H128937   7.277   2.056   2.356
 9664TIP3    H228938   7.373   1.997   2.254
 9665TIP3   OH228939   0.373   1.851   3.843
 9665TIP3    H128940   0.432   1.802   3.900
 9665TIP3    H228941   0.307   1.888   3.902
 9666TIP3   OH228942   5.278   4.813   2.398
 9666TIP3    H128943   5.209   4.768   2.348
 9666TIP3    H228944   5.357   4.762   2.380
 9667TIP3   OH228945   2.480   7.089   3.329
 9667TIP3    H128946   2.492   7.128   3.242
 9667TIP3    H228947   2.385   7.079   3.338
 9668TIP3   OH228948   6.102   0.508   0.916
 9668TIP3    H128949   6.050   0.434   0.884
 9668TIP3    H228950   6.147   0.541   0.839
 9669TIP3   OH228951   2.769   1.401   5.124
 9669TIP3    H128952   2.703   1.458   5.084
 9669TIP3    H228953   2.748   1.401   5.217
 9670TIP3   OH228954   1.183   2.745   2.132
 9670TIP3    H128955   1.152   2.723   2.220
 9670TIP3    H228956   1.269   2.703   2.126
 9671TIP3   OH228957   0.109   1.463   0.762
 9671TIP3    H128958   0.085   1.444   0.853
 9671TIP3    H228959   0.088   1.382   0.715
 9672TIP3   OH228960   2.967   5.872   0.418
 9672TIP3    H128961   2.970   5.809   0.490
 9672TIP3    H228962   3.051   5.918   0.422
 9673TIP3   OH228963   6.048   7.531   4.215
 9673TIP3    H128964   5.974   7.589   4.230
 9673TIP3    H228965   6.095   7.529   4.298
 9674TIP3   OH228966   1.769   7.358   2.698
 9674TIP3    H128967   1.740   7.430   2.754
 9674TIP3    H228968   1.854   7.387   2.666
 9675TIP3   OH228969   2.147   2.336   5.898
 9675TIP3    H128970   2.208   2.332   5.825
 9675TIP3    H228971   2.067   2.296   5.866
 9676TIP3   OH228972   4.700   2.751   4.115
 9676TIP3    H128973   4.621   2.804   4.107
 9676TIP3    H228974   4.770   2.815   4.126
 9677TIP3   OH228975   4.155   4.459   3.243
 9677TIP3    H128976   4.082   4.520   3.236
 9677TIP3    H228977   4.220   4.492   3.181
 9678TIP3   OH228978   2.954   6.840   0.111
 9678TIP3    H128979   2.903   6.920   0.096
 9678TIP3    H228980   2.945   6.790   0.030
 9679TIP3   OH228981   2.085   3.110   2.965
 9679TIP3    H128982   2.063   3.026   2.925
 9679TIP3    H228983   2.084   3.092   3.059
 9680TIP3   OH228984   7.131   1.747   3.460
 9680TIP3    H128985   7.136   1.758   3.365
 9680TIP3    H228986   7.164   1.659   3.475
 9681TIP3   OH228987   3.102   4.233   6.003
 9681TIP3    H128988   3.101   4.292   6.079
 9681TIP3    H228989   3.185   4.252   5.960
 9682TIP3   OH228990   6.167   7.747   0.731
 9682TIP3    H128991   6.101   7.808   0.766
 9682TIP3    H228992   6.169   7.675   0.794
 9683TIP3   OH228993   3.278   4.790   1.338
 9683TIP3    H128994   3.265   4.881   1.364
 9683TIP3    H228995   3.343   4.757   1.399
 9684TIP3   OH228996   1.632   4.008   1.672
 9684TIP3    H128997   1.700   3.990   1.607
 9684TIP3    H228998   1.597   4.094   1.648
 9685TIP3   OH228999   0.072   3.064   2.732
 9685TIP3    H129000   0.058   3.141   2.677
 9685TIP3    H229001   0.160   3.033   2.709
 9686TIP3   OH229002   3.237   3.886   2.386
 9686TIP3    H129003   3.219   3.972   2.349
 9686TIP3    H229004   3.208   3.893   2.477
 9687TIP3   OH229005   5.599   7.480   6.569
 9687TIP3    H129006   5.541   7.417   6.612
 9687TIP3    H229007   5.665   7.426   6.524
 9688TIP3   OH229008   4.355   5.223   3.538
 9688TIP3    H129009   4.296   5.175   3.595
 9688TIP3    H229010   4.304   5.238   3.458
 9689TIP3   OH229011   0.622   6.699   1.982
 9689TIP3    H129012   0.633   6.668   2.072
 9689TIP3    H229013   0.534   6.737   1.980
 9690TIP3   OH229014   1.565   1.666   2.783
 9690TIP3    H129015   1.659   1.646   2.787
 9690TIP3    H229016   1.530   1.637   2.867
 9691TIP3   OH229017   4.905   0.664   5.288
 9691TIP3    H129018   4.938   0.578   5.261
 9691TIP3    H229019   4.958   0.727   5.239
 9692TIP3   OH229020   7.468   1.355   0.088
 9692TIP3    H129021   7.522   1.428   0.057
 9692TIP3    H229022   7.498   1.280   0.037
 9693TIP3   OH229023   2.188   4.696   4.591
 9693TIP3    H129024   2.111   4.700   4.647
 9693TIP3    H229025   2.262   4.711   4.650
 9694TIP3   OH229026   6.190   3.564   1.104
 9694TIP3    H129027   6.114   3.550   1.048
 9694TIP3    H229028   6.194   3.658   1.117
 9695TIP3   OH229029   3.810   6.658   3.710
 9695TIP3    H129030   3.814   6.692   3.621
 9695TIP3    H229031   3.824   6.734   3.766
 9696TIP3   OH229032   5.264   6.165   1.581
 9696TIP3    H129033   5.340   6.173   1.523
 9696TIP3    H229034   5.219   6.086   1.550
 9697TIP3   OH229035   2.704   4.945   2.245
 9697TIP3    H129036   2.622   4.976   2.285
 9697TIP3    H229037   2.718   4.859   2.284
 9698TIP3   OH229038   1.535   3.253   3.017
 9698TIP3    H129039   1.627   3.253   3.043
 9698TIP3    H229040   1.499   3.334   3.056
 9699TIP3   OH229041   4.763   4.244   4.284
 9699TIP3    H129042   4.842   4.295   4.304
 9699TIP3    H229043   4.772   4.223   4.191
 9700TIP3   OH229044   1.950   5.590   6.735
 9700TIP3    H129045   1.990   5.617   6.818
 9700TIP3    H229046   1.881   5.654   6.720
 9701TIP3   OH229047   6.195   4.279   0.845
 9701TIP3    H129048   6.208   4.218   0.772
 9701TIP3    H229049   6.121   4.244   0.894
 9702TIP3   OH229050   2.973   2.478   1.521
 9702TIP3    H129051   3.021   2.422   1.459
 9702TIP3    H229052   2.939   2.417   1.586
 9703TIP3   OH229053   0.557   7.206   2.530
 9703TIP3    H129054   0.562   7.117   2.565
 9703TIP3    H229055   0.501   7.252   2.593
 9704TIP3   OH229056   2.136   2.729   3.501
 9704TIP3    H129057   2.137   2.789   3.575
 9704TIP3    H229058   2.084   2.774   3.434
 9705TIP3   OH229059   2.173   6.582   4.020
 9705TIP3    H129060   2.087   6.586   4.063
 9705TIP3    H229061   2.155   6.605   3.929
 9706TIP3   OH229062   8.279   7.642   4.914
 9706TIP3    H129063   8.237   7.711   4.862
 9706TIP3    H229064   8.313   7.580   4.850
 9707TIP3   OH229065   0.822   2.480   1.690
 9707TIP3    H129066   0.781   2.548   1.637
 9707TIP3    H229067   0.749   2.435   1.731
 9708TIP3   OH229068   5.402   5.688   5.257
 9708TIP3    H129069   5.489   5.675   5.297
 9708TIP3    H229070   5.357   5.747   5.318
 9709TIP3   OH229071   1.044   5.117   2.483
 9709TIP3    H129072   0.976   5.077   2.537
 9709TIP3    H229073   1.121   5.061   2.495
 9710TIP3   OH229074   2.255   1.535   1.726
 9710TIP3    H129075   2.232   1.442   1.725
 9710TIP3    H229076   2.199   1.573   1.792
 9711TIP3   OH229077   5.101   4.486   6.394
 9711TIP3    H129078   5.092   4.444   6.479
 9711TIP3    H229079   5.160   4.429   6.344
 9712TIP3   OH229080   2.490   0.782   2.421
 9712TIP3    H129081   2.553   0.819   2.482
 9712TIP3    H229082   2.451   0.709   2.469
 9713TIP3   OH229083   0.525   1.179   2.325
 9713TIP3    H129084   0.591   1.142   2.383
 9713TIP3    H229085   0.509   1.266   2.360
 9714TIP3   OH229086   5.995   2.901   0.606
 9714TIP3    H129087   5.942   2.969   0.646
 9714TIP3    H229088   6.005   2.928   0.514
 9715TIP3   OH229089   2.139   1.608   4.488
 9715TIP3    H129090   2.199   1.553   4.538
 9715TIP3    H229091   2.052   1.573   4.509
 9716TIP3   OH229092   6.345   3.725   6.761
 9716TIP3    H129093   6.297   3.736   6.843
 9716TIP3    H229094   6.368   3.632   6.759
 9717TIP3   OH229095   3.499   4.161   0.889
 9717TIP3    H129096   3.572   4.190   0.835
 9717TIP3    H229097   3.516   4.069   0.906
 9718TIP3   OH229098   7.208   0.550   3.535
 9718TIP3    H129099   7.172   0.578   3.619
 9718TIP3    H229100   7.302   0.569   3.540
 9719TIP3   OH229101   4.377   0.712   0.795
 9719TIP3    H129102   4.304   0.704   0.856
 9719TIP3    H229103   4.377   0.804   0.770
 9720TIP3   OH229104   7.193   4.348   1.727
 9720TIP3    H129105   7.228   4.334   1.816
 9720TIP3    H229106   7.109   4.303   1.728
 9721TIP3   OH229107   5.461   1.230   6.562
 9721TIP3    H129108   5.401   1.157   6.576
 9721TIP3    H229109   5.404   1.304   6.542
 9722TIP3   OH229110   7.260   2.447   4.925
 9722TIP3    H129111   7.251   2.514   4.857
 9722TIP3    H229112   7.221   2.368   4.886
 9723TIP3   OH229113   8.219   6.133   1.106
 9723TIP3    H129114   8.159   6.197   1.068
 9723TIP3    H229115   8.294   6.185   1.135
 9724TIP3   OH229116   3.628   2.669   2.935
 9724TIP3    H129117   3.602   2.585   2.897
 9724TIP3    H229118   3.560   2.730   2.907
 9725TIP3   OH229119   4.830   2.114   5.022
 9725TIP3    H129120   4.830   2.021   5.000
 9725TIP3    H229121   4.738   2.136   5.036
 9726TIP3   OH229122   3.290   7.094   1.979
 9726TIP3    H129123   3.370   7.059   1.939
 9726TIP3    H229124   3.225   7.024   1.969
 9727TIP3   OH229125   7.843   3.006   3.270
 9727TIP3    H129126   7.804   2.943   3.209
 9727TIP3    H229127   7.907   2.955   3.319
 9728TIP3   OH229128   8.184   7.021   3.452
 9728TIP3    H129129   8.092   7.041   3.436
 9728TIP3    H229130   8.191   7.014   3.547
 9729TIP3   OH229131   0.253   2.454   6.288
 9729TIP3    H129132   0.341   2.422   6.305
 9729TIP3    H229133   0.218   2.393   6.222
 9730TIP3   OH229134   7.694   2.405   5.614
 9730TIP3    H129135   7.730   2.472   5.672
 9730TIP3    H229136   7.663   2.453   5.537
 9731TIP3   OH229137   3.856   6.968   2.518
 9731TIP3    H129138   3.885   6.883   2.485
 9731TIP3    H229139   3.765   6.975   2.490
 9732TIP3   OH229140   0.266   3.197   3.781
 9732TIP3    H129141   0.284   3.290   3.792
 9732TIP3    H229142   0.220   3.172   3.862
 9733TIP3   OH229143   3.751   6.641   4.986
 9733TIP3    H129144   3.752   6.637   5.082
 9733TIP3    H229145   3.687   6.709   4.966
 9734TIP3   OH229146   4.844   3.075   6.434
 9734TIP3    H129147   4.859   3.161   6.472
 9734TIP3    H229148   4.931   3.036   6.426
 9735TIP3   OH229149   1.163   4.479   3.262
 9735TIP3    H129150   1.178   4.386   3.281
 9735TIP3    H229151   1.180   4.524   3.345
 9736TIP3   OH229152   3.717   4.426   0.198
 9736TIP3    H129153   3.741   4.482   0.271
 9736TIP3    H229154   3.786   4.439   0.134
 9737TIP3   OH229155   5.239   2.863   5.300
 9737TIP3    H129156   5.183   2.881   5.224
 9737TIP3    H229157   5.195   2.792   5.346
 9738TIP3   OH229158   0.498   3.224   3.090
 9738TIP3    H129159   0.518   3.268   3.172
 9738TIP3    H229160   0.442   3.150   3.115
 9739TIP3   OH229161   2.361   7.401   5.440
 9739TIP3    H129162   2.324   7.406   5.528
 9739TIP3    H229163   2.285   7.402   5.381
 9740TIP3   OH229164   5.989   5.289   2.895
 9740TIP3    H129165   5.936   5.283   2.816
 9740TIP3    H229166   6.056   5.221   2.885
 9741TIP3   OH229167   4.666   4.491   4.988
 9741TIP3    H129168   4.621   4.428   4.931
 9741TIP3    H229169   4.607   4.566   4.992
 9742TIP3   OH229170   0.269   1.735   1.462
 9742TIP3    H129171   0.202   1.666   1.466
 9742TIP3    H229172   0.308   1.726   1.375
 9743TIP3   OH229173   5.089   2.864   0.341
 9743TIP3    H129174   5.099   2.918   0.420
 9743TIP3    H229175   5.024   2.798   0.366
 9744TIP3   OH229176   4.221   1.246   2.418
 9744TIP3    H129177   4.263   1.187   2.355
 9744TIP3    H229178   4.153   1.192   2.459
 9745TIP3   OH229179   4.641   4.834   0.123
 9745TIP3    H129180   4.671   4.913   0.077
 9745TIP3    H229181   4.546   4.838   0.117
 9746TIP3   OH229182   2.692   6.902   3.265
 9746TIP3    H129183   2.623   6.957   3.302
 9746TIP3    H229184   2.739   6.868   3.341
 9747TIP3   OH229185   1.779   6.331   3.071
 9747TIP3    H129186   1.839   6.281   3.126
 9747TIP3    H229187   1.755   6.407   3.126
 9748TIP3   OH229188   2.569   3.750   1.737
 9748TIP3    H129189   2.511   3.678   1.762
 9748TIP3    H229190   2.611   3.720   1.656
 9749TIP3   OH229191   3.872   1.614   3.816
 9749TIP3    H129192   3.955   1.644   3.777
 9749TIP3    H229193   3.812   1.608   3.741
 9750TIP3   OH229194   0.157   7.097   2.112
 9750TIP3    H129195   0.146   7.018   2.059
 9750TIP3    H229196   0.216   7.152   2.061
 9751TIP3   OH229197   0.963   0.818   1.052
 9751TIP3    H129198   0.911   0.740   1.071
 9751TIP3    H229199   1.051   0.784   1.035
 9752TIP3   OH229200   3.156   2.781   3.356
 9752TIP3    H129201   3.149   2.825   3.441
 9752TIP3    H229202   3.139   2.850   3.292
 9753TIP3   OH229203   7.608   4.122   5.134
 9753TIP3    H129204   7.682   4.071   5.103
 9753TIP3    H229205   7.587   4.084   5.220
 9754TIP3   OH229206   0.657   5.491   4.877
 9754TIP3    H129207   0.587   5.456   4.932
 9754TIP3    H229208   0.736   5.483   4.931
 9755TIP3   OH229209   6.653   2.141   4.823
 9755TIP3    H129210   6.679   2.197   4.897
 9755TIP3    H229211   6.707   2.063   4.832
 9756TIP3   OH229212   0.301   3.673   1.963
 9756TIP3    H129213   0.224   3.623   1.935
 9756TIP3    H229214   0.346   3.695   1.881
 9757TIP3   OH229215   0.346   7.613   5.448
 9757TIP3    H129216   0.411   7.681   5.465
 9757TIP3    H229217   0.262   7.655   5.470
 9758TIP3   OH229218   5.552   5.971   3.932
 9758TIP3    H129219   5.561   5.922   3.850
 9758TIP3    H229220   5.530   5.904   3.997
 9759TIP3   OH229221   5.002   1.092   1.865
 9759TIP3    H129222   4.942   1.023   1.838
 9759TIP3    H229223   5.049   1.116   1.785
 9760TIP3   OH229224   5.877   0.525   3.659
 9760TIP3    H129225   5.838   0.583   3.724
 9760TIP3    H229226   5.944   0.579   3.616
 9761TIP3   OH229227   4.754   2.815   0.169
 9761TIP3    H129228   4.660   2.827   0.156
 9761TIP3    H229229   4.763   2.782   0.258
 9762TIP3   OH229230   4.718   1.890   0.073
 9762TIP3    H129231   4.678   1.885  -0.014
 9762TIP3    H229232   4.788   1.954   0.063
 9763TIP3   OH229233   4.732   2.896   4.559
 9763TIP3    H129234   4.667   2.916   4.626
 9763TIP3    H229235   4.800   2.845   4.605
 9764TIP3   OH229236   1.456   6.112   6.286
 9764TIP3    H129237   1.475   6.200   6.318
 9764TIP3    H229238   1.494   6.110   6.198
 9765TIP3   OH229239   7.982   5.841   1.360
 9765TIP3    H129240   8.052   5.903   1.344
 9765TIP3    H229241   7.961   5.804   1.274
 9766TIP3   OH229242   0.660   3.901   5.667
 9766TIP3    H129243   0.591   3.967   5.670
 9766TIP3    H229244   0.674   3.877   5.759
 9767TIP3   OH229245   4.861   1.533   3.667
 9767TIP3    H129246   4.851   1.465   3.735
 9767TIP3    H229247   4.956   1.543   3.658
 9768TIP3   OH229248   5.466   6.818   6.522
 9768TIP3    H129249   5.474   6.742   6.464
 9768TIP3    H229250   5.389   6.864   6.489
 9769TIP3   OH229251   4.537   4.503   3.928
 9769TIP3    H129252   4.445   4.477   3.924
 9769TIP3    H229253   4.563   4.487   4.018
 9770TIP3   OH229254   3.897   6.539   0.073
 9770TIP3    H129255   3.914   6.556   0.166
 9770TIP3    H229256   3.835   6.466   0.073
 9771TIP3   OH229257   3.713   2.788   3.589
 9771TIP3    H129258   3.664   2.845   3.529
 9771TIP3    H229259   3.802   2.824   3.589
 9772TIP3   OH229260   4.852   5.719   1.704
 9772TIP3    H129261   4.907   5.645   1.728
 9772TIP3    H229262   4.819   5.698   1.617
 9773TIP3   OH229263   5.062   5.997   3.073
 9773TIP3    H129264   5.014   6.004   3.156
 9773TIP3    H229265   5.129   5.931   3.090
 9774TIP3   OH229266   8.166   5.088   1.533
 9774TIP3    H129267   8.232   5.140   1.487
 9774TIP3    H229268   8.082   5.126   1.505
 9775TIP3   OH229269   4.014   2.537   1.449
 9775TIP3    H129270   4.047   2.626   1.451
 9775TIP3    H229271   4.076   2.489   1.393
 9776TIP3   OH229272   2.997   2.037   3.975
 9776TIP3    H129273   3.078   2.038   3.924
 9776TIP3    H229274   3.025   2.057   4.064
 9777TIP3   OH229275   2.612   1.502   2.682
 9777TIP3    H129276   2.562   1.534   2.757
 9777TIP3    H229277   2.553   1.510   2.608
 9778TIP3   OH229278   4.786   6.181   4.759
 9778TIP3    H129279   4.735   6.100   4.761
 9778TIP3    H229280   4.747   6.232   4.688
 9779TIP3   OH229281   1.004   2.564   4.732
 9779TIP3    H129282   1.098   2.547   4.740
 9779TIP3    H229283   0.967   2.481   4.704
 9780TIP3   OH229284   1.661   5.704   2.045
 9780TIP3    H129285   1.654   5.784   2.097
 9780TIP3    H229286   1.677   5.635   2.109
 9781TIP3   OH229287   5.951   1.002   0.643
 9781TIP3    H129288   6.044   1.011   0.664
 9781TIP3    H229289   5.949   0.974   0.552
 9782TIP3   OH229290   1.429   4.539   4.017
 9782TIP3    H129291   1.337   4.548   4.043
 9782TIP3    H229292   1.466   4.626   4.033
 9783TIP3   OH229293   5.028   1.131   4.503
 9783TIP3    H129294   5.023   1.054   4.560
 9783TIP3    H229295   4.938   1.145   4.473
 9784TIP3   OH229296   7.199   0.695   2.381
 9784TIP3    H129297   7.203   0.630   2.311
 9784TIP3    H229298   7.208   0.644   2.461
 9785TIP3   OH229299   5.090   3.341   2.452
 9785TIP3    H129300   5.027   3.412   2.444
 9785TIP3    H229301   5.085   3.314   2.544
 9786TIP3   OH229302   6.492   4.353   0.438
 9786TIP3    H129303   6.508   4.328   0.347
 9786TIP3    H229304   6.414   4.408   0.433
 9787TIP3   OH229305   7.846   5.645   0.338
 9787TIP3    H129306   7.869   5.631   0.430
 9787TIP3    H229307   7.923   5.688   0.301
 9788TIP3   OH229308   3.136   1.016   6.551
 9788TIP3    H129309   3.229   1.037   6.566
 9788TIP3    H229310   3.137   0.929   6.511
 9789TIP3   OH229311   5.848   1.393   3.237
 9789TIP3    H129312   5.930   1.346   3.255
 9789TIP3    H229313   5.829   1.440   3.318
 9790TIP3   OH229314   7.268   3.965   2.773
 9790TIP3    H129315   7.230   4.028   2.712
 9790TIP3    H229316   7.268   3.882   2.724
 9791TIP3   OH229317   5.144   4.702   4.924
 9791TIP3    H129318   5.068   4.679   4.976
 9791TIP3    H229319   5.135   4.796   4.908
 9792TIP3   OH229320   5.681   2.611   1.622
 9792TIP3    H129321   5.738   2.652   1.688
 9792TIP3    H229322   5.737   2.546   1.579
 9793TIP3   OH229323   0.464   6.405   3.074
 9793TIP3    H129324   0.456   6.416   3.169
 9793TIP3    H229325   0.432   6.317   3.057
 9794TIP3   OH229326   1.779   0.643   6.235
 9794TIP3    H129327   1.761   0.603   6.150
 9794TIP3    H229328   1.764   0.573   6.298
 9795TIP3   OH229329   0.305   6.145   1.632
 9795TIP3    H129330   0.388   6.116   1.595
 9795TIP3    H229331   0.328   6.221   1.685
 9796TIP3   OH229332   4.242   4.217   2.440
 9796TIP3    H129333   4.274   4.209   2.350
 9796TIP3    H229334   4.301   4.163   2.492
 9797TIP3   OH229335   4.698   3.095   1.055
 9797TIP3    H129336   4.665   3.101   1.145
 9797TIP3    H229337   4.709   3.185   1.027
 9798TIP3   OH229338   7.256   7.457   6.149
 9798TIP3    H129339   7.167   7.471   6.117
 9798TIP3    H229340   7.246   7.449   6.244
 9799TIP3   OH229341   3.829   7.158   5.079
 9799TIP3    H129342   3.831   7.242   5.123
 9799TIP3    H229343   3.921   7.132   5.071
 9800TIP3   OH229344   1.513   2.900   6.070
 9800TIP3    H129345   1.563   2.867   6.145
 9800TIP3    H229346   1.576   2.949   6.018
 9801TIP3   OH229347   4.772   2.027   5.717
 9801TIP3    H129348   4.867   2.016   5.711
 9801TIP3    H229349   4.736   1.957   5.662
 9802TIP3   OH229350   0.116   1.497   3.567
 9802TIP3    H129351   0.089   1.579   3.609
 9802TIP3    H229352   0.211   1.496   3.576
 9803TIP3   OH229353   0.999   0.347   0.237
 9803TIP3    H129354   0.981   0.389   0.321
 9803TIP3    H229355   1.029   0.418   0.180
 9804TIP3   OH229356   5.099   1.860   3.094
 9804TIP3    H129357   5.018   1.886   3.052
 9804TIP3    H229358   5.151   1.821   3.024
 9805TIP3   OH229359   7.251   2.517   3.455
 9805TIP3    H129360   7.316   2.465   3.501
 9805TIP3    H229361   7.283   2.607   3.462
 9806TIP3   OH229362   7.752   4.579   1.256
 9806TIP3    H129363   7.692   4.575   1.331
 9806TIP3    H229364   7.771   4.488   1.235
 9807TIP3   OH229365   5.720   7.818   0.596
 9807TIP3    H129366   5.787   7.757   0.567
 9807TIP3    H229367   5.648   7.805   0.535
 9808TIP3   OH229368   6.813   2.131   0.481
 9808TIP3    H129369   6.767   2.213   0.464
 9808TIP3    H229370   6.742   2.067   0.492
 9809TIP3   OH229371   1.153   4.284   4.321
 9809TIP3    H129372   1.232   4.248   4.281
 9809TIP3    H229373   1.129   4.220   4.388
 9810TIP3   OH229374   4.875   5.900   3.762
 9810TIP3    H129375   4.811   5.949   3.711
 9810TIP3    H229376   4.853   5.808   3.746
 9811TIP3   OH229377   7.987   5.047   2.733
 9811TIP3    H129378   7.919   4.983   2.754
 9811TIP3    H229379   8.048   5.000   2.676
 9812TIP3   OH229380   1.779   6.192   1.482
 9812TIP3    H129381   1.689   6.202   1.450
 9812TIP3    H229382   1.832   6.186   1.403
 9813TIP3   OH229383   6.007   0.105   6.362
 9813TIP3    H129384   5.947   0.177   6.343
 9813TIP3    H229385   6.017   0.105   6.457
 9814TIP3   OH229386   5.165   0.152   2.267
 9814TIP3    H129387   5.243   0.203   2.246
 9814TIP3    H229388   5.103   0.215   2.302
 9815TIP3   OH229389   7.213   0.611   6.122
 9815TIP3    H129390   7.207   0.516   6.106
 9815TIP3    H229391   7.153   0.649   6.058
 9816TIP3   OH229392   4.082   6.670   0.878
 9816TIP3    H129393   4.039   6.611   0.939
 9816TIP3    H229394   4.011   6.721   0.840
 9817TIP3   OH229395   1.823   6.533   0.217
 9817TIP3    H129396   1.851   6.625   0.216
 9817TIP3    H229397   1.788   6.520   0.306
 9818TIP3   OH229398   6.262   1.910   6.356
 9818TIP3    H129399   6.265   1.976   6.426
 9818TIP3    H229400   6.320   1.840   6.387
 9819TIP3   OH229401   2.268   2.437   6.260
 9819TIP3    H129402   2.192   2.490   6.236
 9819TIP3    H229403   2.322   2.436   6.182
 9820TIP3   OH229404   7.782   3.182   1.735
 9820TIP3    H129405   7.752   3.149   1.650
 9820TIP3    H229406   7.787   3.104   1.790
 9821TIP3   OH229407   3.676   3.540   5.679
 9821TIP3    H129408   3.692   3.633   5.663
 9821TIP3    H229409   3.605   3.538   5.743
 9822TIP3   OH229410   4.849   1.097   1.165
 9822TIP3    H129411   4.911   1.145   1.220
 9822TIP3    H229412   4.764   1.114   1.205
 9823TIP3   OH229413   6.804   3.575   2.296
 9823TIP3    H129414   6.755   3.651   2.327
 9823TIP3    H229415   6.813   3.519   2.373
 9824TIP3   OH229416   0.032   4.127   1.302
 9824TIP3    H129417   0.077   4.062   1.248
 9824TIP3    H229418   0.050   4.100   1.392
 9825TIP3   OH229419   6.029   6.524   1.958
 9825TIP3    H129420   6.021   6.468   2.036
 9825TIP3    H229421   6.029   6.462   1.885
 9826TIP3   OH229422   4.928   3.268   5.752
 9826TIP3    H129423   4.842   3.230   5.733
 9826TIP3    H229424   4.970   3.204   5.808
 9827TIP3   OH229425   0.856   3.113   1.309
 9827TIP3    H129426   0.796   3.073   1.372
 9827TIP3    H229427   0.813   3.194   1.282
 9828TIP3   OH229428   1.975   3.289   6.601
 9828TIP3    H129429   1.999   3.198   6.621
 9828TIP3    H229430   2.058   3.332   6.581
 9829TIP3   OH229431   1.623   0.500   6.740
 9829TIP3    H129432   1.677   0.485   6.818
 9829TIP3    H229433   1.544   0.449   6.755
 9830TIP3   OH229434   0.198   5.755   3.684
 9830TIP3    H129435   0.169   5.664   3.683
 9830TIP3    H229436   0.272   5.757   3.623
 9831TIP3   OH229437   3.209   6.844   5.495
 9831TIP3    H129438   3.121   6.837   5.531
 9831TIP3    H229439   3.248   6.917   5.542
 9832TIP3   OH229440   6.569   6.255   4.187
 9832TIP3    H129441   6.578   6.303   4.269
 9832TIP3    H229442   6.635   6.294   4.129
 9833TIP3   OH229443   3.220   4.066   1.437
 9833TIP3    H129444   3.285   4.136   1.447
 9833TIP3    H229445   3.268   3.986   1.459
 9834TIP3   OH229446   3.593   1.266   6.649
 9834TIP3    H129447   3.577   1.285   6.742
 9834TIP3    H229448   3.688   1.269   6.640
 9835TIP3   OH229449   1.783   6.245   2.100
 9835TIP3    H129450   1.804   6.299   2.177
 9835TIP3    H229451   1.831   6.286   2.028
 9836TIP3   OH229452   3.444   0.663   3.320
 9836TIP3    H129453   3.399   0.707   3.393
 9836TIP3    H229454   3.519   0.619   3.361
 9837TIP3   OH229455   3.293   1.367   4.806
 9837TIP3    H129456   3.199   1.367   4.789
 9837TIP3    H229457   3.300   1.341   4.898
 9838TIP3   OH229458   7.648   2.556   5.387
 9838TIP3    H129459   7.696   2.639   5.384
 9838TIP3    H229460   7.614   2.545   5.298
 9839TIP3   OH229461   2.232   1.885   2.312
 9839TIP3    H129462   2.240   1.960   2.253
 9839TIP3    H229463   2.245   1.922   2.400
 9840TIP3   OH229464   7.101   6.518   4.889
 9840TIP3    H129465   7.016   6.553   4.861
 9840TIP3    H229466   7.083   6.428   4.913
 9841TIP3   OH229467   3.968   0.836   6.405
 9841TIP3    H129468   3.893   0.885   6.371
 9841TIP3    H229469   3.990   0.881   6.487
 9842TIP3   OH229470   7.564   4.869   2.732
 9842TIP3    H129471   7.565   4.780   2.698
 9842TIP3    H229472   7.606   4.922   2.664
 9843TIP3   OH229473   2.699   1.848   3.287
 9843TIP3    H129474   2.787   1.879   3.266
 9843TIP3    H229475   2.706   1.817   3.378
 9844TIP3   OH229476   5.229   6.456   3.143
 9844TIP3    H129477   5.212   6.543   3.108
 9844TIP3    H229478   5.177   6.397   3.088
 9845TIP3   OH229479   3.297   2.023   4.164
 9845TIP3    H129480   3.393   2.027   4.168
 9845TIP3    H229481   3.273   2.095   4.105
 9846TIP3   OH229482   7.519   7.218   1.640
 9846TIP3    H129483   7.527   7.313   1.631
 9846TIP3    H229484   7.568   7.182   1.566
 9847TIP3   OH229485   3.917   4.572   2.034
 9847TIP3    H129486   3.966   4.613   1.963
 9847TIP3    H229487   3.974   4.502   2.065
 9848TIP3   OH229488   6.919   2.321   1.198
 9848TIP3    H129489   6.868   2.285   1.125
 9848TIP3    H229490   6.855   2.331   1.268
 9849TIP3   OH229491   4.514   1.310   2.409
 9849TIP3    H129492   4.521   1.215   2.410
 9849TIP3    H229493   4.420   1.327   2.412
 9850TIP3   OH229494   3.120   5.840   5.234
 9850TIP3    H129495   3.088   5.900   5.301
 9850TIP3    H229496   3.170   5.895   5.174
 9851TIP3   OH229497   6.509   1.754   5.957
 9851TIP3    H129498   6.454   1.692   6.006
 9851TIP3    H229499   6.527   1.825   6.019
 9852TIP3   OH229500   2.594   2.573   4.811
 9852TIP3    H129501   2.646   2.493   4.809
 9852TIP3    H229502   2.634   2.626   4.880
 9853TIP3   OH229503   4.533   5.192   1.530
 9853TIP3    H129504   4.478   5.140   1.471
 9853TIP3    H229505   4.571   5.260   1.474
 9854TIP3   OH229506   5.147   7.008   1.150
 9854TIP3    H129507   5.162   7.102   1.148
 9854TIP3    H229508   5.106   6.992   1.235
 9855TIP3   OH229509   4.822   4.890   3.279
 9855TIP3    H129510   4.795   4.798   3.289
 9855TIP3    H229511   4.761   4.925   3.214
 9856TIP3   OH229512   4.333   3.542   0.504
 9856TIP3    H129513   4.304   3.567   0.592
 9856TIP3    H229514   4.355   3.625   0.461
 9857TIP3   OH229515   5.792   0.080   5.564
 9857TIP3    H129516   5.791   0.046   5.475
 9857TIP3    H229517   5.700   0.097   5.585
 9858TIP3   OH229518   8.038   1.262   2.468
 9858TIP3    H129519   8.045   1.196   2.399
 9858TIP3    H229520   8.113   1.319   2.453
 9859TIP3   OH229521   1.316   4.825   2.290
 9859TIP3    H129522   1.394   4.803   2.240
 9859TIP3    H229523   1.243   4.809   2.231
 9860TIP3   OH229524   0.893   7.773   1.088
 9860TIP3    H129525   0.976   7.816   1.068
 9860TIP3    H229526   0.831   7.844   1.100
 9861TIP3   OH229527   2.501   0.670   0.928
 9861TIP3    H129528   2.582   0.710   0.897
 9861TIP3    H229529   2.431   0.719   0.884
 9862TIP3   OH229530   6.307   2.968   5.616
 9862TIP3    H129531   6.250   2.988   5.690
 9862TIP3    H229532   6.328   2.875   5.627
 9863TIP3   OH229533   1.146   1.019   3.709
 9863TIP3    H129534   1.119   0.953   3.645
 9863TIP3    H229535   1.229   1.053   3.676
 9864TIP3   OH229536   4.130   3.538   6.042
 9864TIP3    H129537   4.096   3.620   6.009
 9864TIP3    H229538   4.163   3.559   6.130
 9865TIP3   OH229539   4.924   5.098   1.130
 9865TIP3    H129540   4.839   5.140   1.146
 9865TIP3    H229541   4.918   5.067   1.039
 9866TIP3   OH229542   5.647   7.453   5.997
 9866TIP3    H129543   5.574   7.418   6.049
 9866TIP3    H229544   5.725   7.429   6.048
 9867TIP3   OH229545   5.913   2.243   0.094
 9867TIP3    H129546   5.930   2.244   0.188
 9867TIP3    H229547   5.908   2.151   0.071
 9868TIP3   OH229548   6.262   5.948   2.060
 9868TIP3    H129549   6.228   6.026   2.016
 9868TIP3    H229550   6.357   5.958   2.054
 9869TIP3   OH229551   7.398   4.909   1.005
 9869TIP3    H129552   7.371   4.954   0.925
 9869TIP3    H229553   7.466   4.965   1.042
 9870TIP3   OH229554   4.874   1.409   6.533
 9870TIP3    H129555   4.799   1.352   6.550
 9870TIP3    H229556   4.905   1.435   6.619
 9871TIP3   OH229557   0.622   1.101   2.990
 9871TIP3    H129558   0.652   1.152   2.914
 9871TIP3    H229559   0.696   1.046   3.013
 9872TIP3   OH229560   3.559   4.468   0.570
 9872TIP3    H129561   3.532   4.412   0.497
 9872TIP3    H229562   3.640   4.510   0.539
 9873TIP3   OH229563   0.758   3.224   2.603
 9873TIP3    H129564   0.784   3.313   2.628
 9873TIP3    H229565   0.831   3.169   2.633
 9874TIP3   OH229566   5.884   6.452   2.985
 9874TIP3    H129567   5.858   6.408   2.904
 9874TIP3    H229568   5.806   6.500   3.012
 9875TIP3   OH229569   4.018   3.944   2.757
 9875TIP3    H129570   4.002   4.001   2.832
 9875TIP3    H229571   4.109   3.961   2.733
 9876TIP3   OH229572   5.583   1.543   3.146
 9876TIP3    H129573   5.581   1.530   3.241
 9876TIP3    H229574   5.560   1.635   3.134
 9877TIP3   OH229575   7.585   4.108   1.940
 9877TIP3    H129576   7.554   4.038   1.882
 9877TIP3    H229577   7.588   4.186   1.885
 9878TIP3   OH229578   0.340   0.229   2.482
 9878TIP3    H129579   0.271   0.213   2.417
 9878TIP3    H229580   0.298   0.284   2.548
 9879TIP3   OH229581   4.263   1.485   0.438
 9879TIP3    H129582   4.346   1.450   0.472
 9879TIP3    H229583   4.216   1.409   0.405
 9880TIP3   OH229584   5.567   2.611   4.041
 9880TIP3    H129585   5.526   2.549   3.981
 9880TIP3    H229586   5.646   2.566   4.071
 9881TIP3   OH229587   4.268   4.175   5.153
 9881TIP3    H129588   4.334   4.106   5.154
 9881TIP3    H229589   4.187   4.131   5.177
 9882TIP3   OH229590   3.825   2.213   0.371
 9882TIP3    H129591   3.866   2.238   0.454
 9882TIP3    H229592   3.737   2.251   0.375
 9883TIP3   OH229593   0.087   4.936   2.316
 9883TIP3    H129594   0.158   4.954   2.254
 9883TIP3    H229595   0.007   4.945   2.264
 9884TIP3   OH229596   4.845   3.359   3.069
 9884TIP3    H129597   4.868   3.345   3.161
 9884TIP3    H229598   4.902   3.298   3.021
 9885TIP3   OH229599   5.271   2.512   1.785
 9885TIP3    H129600   5.353   2.534   1.740
 9885TIP3    H229601   5.253   2.422   1.759
 9886TIP3   OH229602   2.264   1.590   0.417
 9886TIP3    H129603   2.354   1.568   0.391
 9886TIP3    H229604   2.214   1.591   0.336
 9887TIP3   OH229605   6.817   0.484   3.910
 9887TIP3    H129606   6.791   0.432   3.834
 9887TIP3    H229607   6.736   0.496   3.960
 9888TIP3   OH229608   1.764   1.539   4.043
 9888TIP3    H129609   1.798   1.629   4.047
 9888TIP3    H229610   1.795   1.506   3.959
 9889TIP3   OH229611   2.529   2.864   2.503
 9889TIP3    H129612   2.550   2.943   2.454
 9889TIP3    H229613   2.439   2.843   2.477
 9890TIP3   OH229614   7.153   2.755   0.918
 9890TIP3    H129615   7.172   2.669   0.955
 9890TIP3    H229616   7.086   2.738   0.851
 9891TIP3   OH229617   5.886   7.602   2.523
 9891TIP3    H129618   5.800   7.564   2.538
 9891TIP3    H229619   5.916   7.563   2.441
 9892TIP3   OH229620   0.097   0.474   2.882
 9892TIP3    H129621   0.002   0.484   2.882
 9892TIP3    H229622   0.121   0.462   2.790
 9893TIP3   OH229623   0.956   3.579   6.717
 9893TIP3    H129624   0.914   3.498   6.743
 9893TIP3    H229625   0.905   3.611   6.642
 9894TIP3   OH229626   8.162   5.217   2.387
 9894TIP3    H129627   8.069   5.233   2.400
 9894TIP3    H229628   8.188   5.163   2.461
 9895TIP3   OH229629   4.159   5.848   1.117
 9895TIP3    H129630   4.138   5.872   1.026
 9895TIP3    H229631   4.113   5.914   1.169
 9896TIP3   OH229632   3.797   3.822   5.770
 9896TIP3    H129633   3.719   3.877   5.777
 9896TIP3    H229634   3.832   3.841   5.683
 9897TIP3   OH229635   0.352   4.259   0.464
 9897TIP3    H129636   0.352   4.221   0.552
 9897TIP3    H229637   0.316   4.190   0.409
 9898TIP3   OH229638   3.180   1.955   1.046
 9898TIP3    H129639   3.216   1.950   0.957
 9898TIP3    H229640   3.114   2.024   1.041
 9899TIP3   OH229641   7.092   3.729   0.140
 9899TIP3    H129642   6.999   3.740   0.123
 9899TIP3    H229643   7.108   3.777   0.221
 9900TIP3   OH229644   6.450   6.377   0.172
 9900TIP3    H129645   6.411   6.369   0.259
 9900TIP3    H229646   6.540   6.347   0.183
 9901TIP3   OH229647   7.572   3.442   2.409
 9901TIP3    H129648   7.603   3.501   2.341
 9901TIP3    H229649   7.478   3.435   2.394
 9902TIP3   OH229650   0.491   5.279   4.970
 9902TIP3    H129651   0.495   5.187   4.944
 9902TIP3    H229652   0.400   5.305   4.952
 9903TIP3   OH229653   3.109   1.111   3.986
 9903TIP3    H129654   3.064   1.027   3.987
 9903TIP3    H229655   3.057   1.166   4.045
 9904TIP3   OH229656   7.473   0.025   1.568
 9904TIP3    H129657   7.563   0.010   1.597
 9904TIP3    H229658   7.436   0.082   1.635
 9905TIP3   OH229659   0.624   2.189   4.411
 9905TIP3    H129660   0.544   2.158   4.370
 9905TIP3    H229661   0.595   2.232   4.492
 9906TIP3   OH229662   1.865   3.774   0.393
 9906TIP3    H129663   1.850   3.800   0.483
 9906TIP3    H229664   1.954   3.802   0.374
 9907TIP3   OH229665   1.445   2.622   0.526
 9907TIP3    H129666   1.518   2.682   0.539
 9907TIP3    H229667   1.379   2.649   0.591
 9908TIP3   OH229668   8.218   5.121   4.965
 9908TIP3    H129669   8.277   5.049   4.988
 9908TIP3    H229670   8.171   5.141   5.046
 9909TIP3   OH229671   6.808   0.777   3.658
 9909TIP3    H129672   6.728   0.785   3.606
 9909TIP3    H229673   6.777   0.769   3.748
 9910TIP3   OH229674   5.663   2.907   1.528
 9910TIP3    H129675   5.700   2.952   1.452
 9910TIP3    H229676   5.605   2.841   1.491
 9911TIP3   OH229677   7.695   4.681   1.773
 9911TIP3    H129678   7.636   4.755   1.757
 9911TIP3    H229679   7.737   4.665   1.689
 9912TIP3   OH229680   6.611   3.995   3.289
 9912TIP3    H129681   6.540   3.941   3.254
 9912TIP3    H229682   6.682   3.934   3.305
 9913TIP3   OH229683   7.592   2.731   1.157
 9913TIP3    H129684   7.516   2.687   1.195
 9913TIP3    H229685   7.667   2.688   1.197
 9914TIP3   OH229686   6.785   1.827   1.943
 9914TIP3    H129687   6.840   1.797   1.871
 9914TIP3    H229688   6.845   1.838   2.017
 9915TIP3   OH229689   7.471   3.133   4.458
 9915TIP3    H129690   7.563   3.136   4.483
 9915TIP3    H229691   7.473   3.125   4.362
 9916TIP3   OH229692   5.617   6.549   1.929
 9916TIP3    H129693   5.687   6.525   1.990
 9916TIP3    H229694   5.580   6.466   1.900
 9917TIP3   OH229695   8.259   3.727   0.781
 9917TIP3    H129696   8.176   3.740   0.735
 9917TIP3    H229697   8.236   3.678   0.860
 9918TIP3   OH229698   2.308   4.197   6.279
 9918TIP3    H129699   2.360   4.252   6.220
 9918TIP3    H229700   2.223   4.188   6.235
 9919TIP3   OH229701   4.429   2.120   1.697
 9919TIP3    H129702   4.524   2.122   1.682
 9919TIP3    H229703   4.394   2.069   1.623
 9920TIP3   OH229704   4.873   2.725   0.419
 9920TIP3    H129705   4.843   2.728   0.510
 9920TIP3    H229706   4.869   2.633   0.395
 9921TIP3   OH229707   4.056   7.495   2.681
 9921TIP3    H129708   4.100   7.501   2.765
 9921TIP3    H229709   3.972   7.454   2.701
 9922TIP3   OH229710   2.673   1.256   3.133
 9922TIP3    H129711   2.682   1.319   3.204
 9922TIP3    H229712   2.582   1.263   3.105
 9923TIP3   OH229713   5.361   5.634   1.368
 9923TIP3    H129714   5.365   5.556   1.313
 9923TIP3    H229715   5.393   5.704   1.312
 9924TIP3   OH229716   0.155   0.416   2.572
 9924TIP3    H129717   0.213   0.491   2.558
 9924TIP3    H229718   0.085   0.427   2.508
 9925TIP3   OH229719   3.659   3.793   6.631
 9925TIP3    H129720   3.702   3.873   6.601
 9925TIP3    H229721   3.724   3.724   6.617
 9926TIP3   OH229722   1.187   0.789   4.666
 9926TIP3    H129723   1.134   0.853   4.712
 9926TIP3    H229724   1.274   0.797   4.706
 9927TIP3   OH229725   1.146   7.436   3.993
 9927TIP3    H129726   1.077   7.478   3.941
 9927TIP3    H229727   1.169   7.357   3.945
 9928TIP3   OH229728   7.974   6.338   2.975
 9928TIP3    H129729   8.050   6.353   3.031
 9928TIP3    H229730   8.003   6.272   2.913
 9929TIP3   OH229731   2.972   4.720   4.864
 9929TIP3    H129732   2.885   4.742   4.897
 9929TIP3    H229733   3.021   4.801   4.871
 9930TIP3   OH229734   5.776   3.370   6.501
 9930TIP3    H129735   5.737   3.282   6.499
 9930TIP3    H229736   5.762   3.400   6.590
 9931TIP3   OH229737   6.446   1.276   5.793
 9931TIP3    H129738   6.455   1.371   5.796
 9931TIP3    H229739   6.532   1.242   5.818
 9932TIP3   OH229740   1.505   5.273   2.995
 9932TIP3    H129741   1.517   5.356   3.042
 9932TIP3    H229742   1.448   5.221   3.051
 9933TIP3   OH229743   2.901   5.873   6.649
 9933TIP3    H129744   2.928   5.964   6.634
 9933TIP3    H229745   2.969   5.837   6.705
 9934TIP3   OH229746   2.337   0.133   6.555
 9934TIP3    H129747   2.312   0.170   6.471
 9934TIP3    H229748   2.393   0.200   6.595
 9935TIP3   OH229749   2.606   4.226   0.030
 9935TIP3    H129750   2.587   4.136   0.055
 9935TIP3    H229751   2.571   4.279   0.101
 9936TIP3   OH229752   2.582   4.932   1.973
 9936TIP3    H129753   2.599   4.838   1.966
 9936TIP3    H229754   2.568   4.947   2.067
 9937TIP3   OH229755   4.034   5.162   6.027
 9937TIP3    H129756   3.985   5.097   6.077
 9937TIP3    H229757   3.988   5.168   5.943
 9938TIP3   OH229758   2.452   6.273   0.086
 9938TIP3    H129759   2.396   6.342   0.052
 9938TIP3    H229760   2.425   6.194   0.040
 9939TIP3   OH229761   5.789   0.254   2.830
 9939TIP3    H129762   5.867   0.228   2.879
 9939TIP3    H229763   5.786   0.349   2.837
 9940TIP3   OH229764   3.600   6.817   2.479
 9940TIP3    H129765   3.542   6.837   2.553
 9940TIP3    H229766   3.588   6.723   2.464
 9941TIP3   OH229767   4.732   1.067   6.010
 9941TIP3    H129768   4.774   1.149   5.985
 9941TIP3    H229769   4.724   1.018   5.928
 9942TIP3   OH229770   7.819   1.704   1.123
 9942TIP3    H129771   7.799   1.798   1.123
 9942TIP3    H229772   7.745   1.664   1.078
 9943TIP3   OH229773   0.212   3.161   5.482
 9943TIP3    H129774   0.194   3.071   5.457
 9943TIP3    H229775   0.205   3.161   5.578
 9944TIP3   OH229776   6.318   6.334   4.049
 9944TIP3    H129777   6.338   6.412   3.998
 9944TIP3    H229778   6.403   6.306   4.084
 9945TIP3   OH229779   2.901   4.824   3.320
 9945TIP3    H129780   2.930   4.849   3.408
 9945TIP3    H229781   2.939   4.737   3.306
 9946TIP3   OH229782   5.570   7.755   6.728
 9946TIP3    H129783   5.638   7.812   6.691
 9946TIP3    H229784   5.617   7.694   6.784
 9947TIP3   OH229785   6.949   6.209   1.742
 9947TIP3    H129786   6.988   6.286   1.783
 9947TIP3    H229787   6.905   6.164   1.814
 9948TIP3   OH229788   7.505   5.749   3.990
 9948TIP3    H129789   7.485   5.820   3.930
 9948TIP3    H229790   7.437   5.755   4.057
 9949TIP3   OH229791   0.599   6.728   4.272
 9949TIP3    H129792   0.517   6.752   4.229
 9949TIP3    H229793   0.576   6.651   4.325
 9950TIP3   OH229794   6.916   0.727   1.628
 9950TIP3    H129795   6.928   0.778   1.708
 9950TIP3    H229796   6.832   0.758   1.593
 9951TIP3   OH229797   7.114   4.343   3.003
 9951TIP3    H129798   7.070   4.364   2.920
 9951TIP3    H229799   7.047   4.298   3.055
 9952TIP3   OH229800   1.474   0.643   3.129
 9952TIP3    H129801   1.412   0.693   3.181
 9952TIP3    H229802   1.425   0.617   3.051
 9953TIP3   OH229803   6.541   6.904   0.859
 9953TIP3    H129804   6.610   6.843   0.833
 9953TIP3    H229805   6.574   6.990   0.834
 9954TIP3   OH229806   1.376   0.250   4.832
 9954TIP3    H129807   1.301   0.297   4.795
 9954TIP3    H229808   1.374   0.165   4.788
 9955TIP3   OH229809   0.538   5.296   6.379
 9955TIP3    H129810   0.624   5.311   6.418
 9955TIP3    H229811   0.492   5.380   6.388
 9956TIP3   OH229812   5.029   6.136   5.181
 9956TIP3    H129813   5.098   6.194   5.211
 9956TIP3    H229814   5.029   6.063   5.243
 9957TIP3   OH229815   0.303   6.348   0.829
 9957TIP3    H129816   0.256   6.420   0.871
 9957TIP3    H229817   0.308   6.372   0.737
 9958TIP3   OH229818   4.471   4.576   0.324
 9958TIP3    H129819   4.444   4.618   0.243
 9958TIP3    H229820   4.564   4.555   0.310
 9959TIP3   OH229821   6.192   7.518   0.880
 9959TIP3    H129822   6.276   7.477   0.857
 9959TIP3    H229823   6.150   7.457   0.939
 9960TIP3   OH229824   7.036   4.275   4.515
 9960TIP3    H129825   7.045   4.246   4.606
 9960TIP3    H229826   7.125   4.268   4.480
 9961TIP3   OH229827   5.032   5.110   1.964
 9961TIP3    H129828   5.053   5.052   2.036
 9961TIP3    H229829   5.104   5.173   1.962
 9962TIP3   OH229830   0.370   0.532   3.240
 9962TIP3    H129831   0.295   0.585   3.212
 9962TIP3    H229832   0.331   0.452   3.275
 9963TIP3   OH229833   6.204   1.253   1.794
 9963TIP3    H129834   6.162   1.296   1.720
 9963TIP3    H229835   6.279   1.308   1.815
 9964TIP3   OH229836   8.215   4.451   2.277
 9964TIP3    H129837   8.272   4.375   2.283
 9964TIP3    H229838   8.126   4.415   2.284
 9965TIP3   OH229839   1.846   4.069   1.991
 9965TIP3    H129840   1.876   4.111   1.910
 9965TIP3    H229841   1.920   4.076   2.051
 9966TIP3   OH229842   0.987   1.711   2.835
 9966TIP3    H129843   1.032   1.639   2.879
 9966TIP3    H229844   0.948   1.671   2.757
 9967TIP3   OH229845   0.848   4.423   2.539
 9967TIP3    H129846   0.797   4.501   2.560
 9967TIP3    H229847   0.904   4.450   2.466
 9968TIP3   OH229848   3.471   7.450   1.131
 9968TIP3    H129849   3.399   7.513   1.125
 9968TIP3    H229850   3.550   7.502   1.116
 9969TIP3   OH229851   4.336   7.443   5.543
 9969TIP3    H129852   4.426   7.445   5.511
 9969TIP3    H229853   4.325   7.526   5.590
 9970TIP3   OH229854   1.115   3.251   5.975
 9970TIP3    H129855   1.026   3.266   5.941
 9970TIP3    H229856   1.169   3.242   5.897
 9971TIP3   OH229857   3.786   6.896   5.315
 9971TIP3    H129858   3.736   6.978   5.310
 9971TIP3    H229859   3.792   6.877   5.408
 9972TIP3   OH229860   3.959   7.532   3.931
 9972TIP3    H129861   3.980   7.624   3.918
 9972TIP3    H229862   3.947   7.497   3.842
 9973TIP3   OH229863   0.237   0.330   5.792
 9973TIP3    H129864   0.294   0.381   5.734
 9973TIP3    H229865   0.250   0.369   5.878
 9974TIP3   OH229866   1.363   4.721   4.692
 9974TIP3    H129867   1.336   4.735   4.783
 9974TIP3    H229868   1.313   4.644   4.664
 9975TIP3   OH229869   4.760   5.071   5.131
 9975TIP3    H129870   4.751   5.069   5.036
 9975TIP3    H229871   4.684   5.119   5.162
 9976TIP3   OH229872   5.562   5.224   1.286
 9976TIP3    H129873   5.540   5.231   1.379
 9976TIP3    H229874   5.481   5.193   1.245
 9977TIP3   OH229875   7.076   5.816   0.763
 9977TIP3    H129876   7.117   5.789   0.845
 9977TIP3    H229877   7.053   5.734   0.719
 9978TIP3   OH229878   2.004   6.621   6.164
 9978TIP3    H129879   2.044   6.637   6.249
 9978TIP3    H229880   2.076   6.589   6.109
 9979TIP3   OH229881   4.957   4.209   5.671
 9979TIP3    H129882   4.993   4.177   5.589
 9979TIP3    H229883   4.868   4.237   5.649
 9980TIP3   OH229884   0.744   6.598   1.503
 9980TIP3    H129885   0.738   6.641   1.418
 9980TIP3    H229886   0.717   6.507   1.486
 9981TIP3   OH229887   4.604   6.387   2.805
 9981TIP3    H129888   4.674   6.352   2.750
 9981TIP3    H229889   4.631   6.477   2.822
 9982TIP3   OH229890   2.652   2.316   6.433
 9982TIP3    H129891   2.671   2.367   6.512
 9982TIP3    H229892   2.723   2.338   6.373
 9983TIP3   OH229893   5.632   2.464   0.524
 9983TIP3    H129894   5.569   2.484   0.593
 9983TIP3    H229895   5.637   2.545   0.473
 9984TIP3   OH229896   3.613   5.380   3.529
 9984TIP3    H129897   3.570   5.341   3.605
 9984TIP3    H229898   3.633   5.305   3.473
 9985TIP3   OH229899   2.214   2.146   2.183
 9985TIP3    H129900   2.222   2.140   2.088
 9985TIP3    H229901   2.195   2.239   2.199
 9986TIP3   OH229902   5.236   6.002   2.204
 9986TIP3    H129903   5.145   6.030   2.217
 9986TIP3    H229904   5.234   5.907   2.214
 9987TIP3   OH229905   0.346   0.579   5.908
 9987TIP3    H129906   0.385   0.641   5.847
 9987TIP3    H229907   0.400   0.587   5.987
 9988TIP3   OH229908   7.668   4.552   3.274
 9988TIP3    H129909   7.623   4.629   3.241
 9988TIP3    H229910   7.609   4.517   3.341
 9989TIP3   OH229911   7.426   5.316   0.105
 9989TIP3    H129912   7.509   5.343   0.065
 9989TIP3    H229913   7.416   5.376   0.180
 9990TIP3   OH229914   1.993   0.340   1.808
 9990TIP3    H129915   1.917   0.284   1.820
 9990TIP3    H229916   1.973   0.390   1.729
 9991TIP3   OH229917   0.750   7.086   4.494
 9991TIP3    H129918   0.841   7.086   4.465
 9991TIP3    H229919   0.699   7.079   4.414
 9992TIP3   OH229920   1.689   7.523   4.417
 9992TIP3    H129921   1.683   7.509   4.323
 9992TIP3    H229922   1.629   7.596   4.435
 9993TIP3   OH229923   3.290   1.107   2.486
 9993TIP3    H129924   3.309   1.015   2.506
 9993TIP3    H229925   3.309   1.154   2.567
 9994TIP3   OH229926   1.331   2.924   2.345
 9994TIP3    H129927   1.278   2.910   2.267
 9994TIP3    H229928   1.377   2.841   2.358
 9995TIP3   OH229929   2.259   5.831   5.738
 9995TIP3    H129930   2.243   5.857   5.647
 9995TIP3    H229931   2.172   5.813   5.773
 9996TIP3   OH229932   4.549   4.264   1.382
 9996TIP3    H129933   4.509   4.260   1.295
 9996TIP3    H229934   4.599   4.346   1.382
 9997TIP3   OH229935   8.088   0.319   0.453
 9997TIP3    H129936   8.093   0.334   0.359
 9997TIP3    H229937   8.030   0.388   0.485
 9998TIP3   OH229938   7.672   2.866   4.624
 9998TIP3    H129939   7.651   2.778   4.656
 9998TIP3    H229940   7.670   2.857   4.529
 9999TIP3   OH229941   4.168   1.262   0.328
 9999TIP3    H129942   4.094   1.233   0.382
 9999TIP3    H229943   4.221   1.183   0.315
10000TIP3   OH229944   1.233   6.958   1.334
10000TIP3    H129945   1.250   6.979   1.426
10000TIP3    H229946   1.320   6.939   1.298
10001TIP3   OH229947   3.059   0.168   3.253
10001TIP3    H129948   3.034   0.091   3.303
10001TIP3    H229949   3.083   0.233   3.319
10002TIP3   OH229950   5.433   2.366   5.287
10002TIP3    H129951   5.341   2.349   5.305
10002TIP3    H229952   5.474   2.279   5.283
10003TIP3   OH229953   7.008   7.480   5.235
10003TIP3    H129954   6.929   7.474   5.180
10003TIP3    H229955   6.995   7.559   5.287
10004TIP3   OH229956   1.791   3.615   4.178
10004TIP3    H129957   1.757   3.639   4.264
10004TIP3    H229958   1.810   3.698   4.135
10005TIP3   OH229959   6.231   3.509   0.545
10005TIP3    H129960   6.221   3.502   0.640
10005TIP3    H229961   6.159   3.567   0.517
10006TIP3   OH229962   7.528   6.984   5.678
10006TIP3    H129963   7.607   6.943   5.711
10006TIP3    H229964   7.557   7.034   5.602
10007TIP3   OH229965   2.221   3.340   6.477
10007TIP3    H129966   2.165   3.388   6.417
10007TIP3    H229967   2.257   3.268   6.425
10008TIP3   OH229968   7.603   5.344   4.717
10008TIP3    H129969   7.601   5.249   4.726
10008TIP3    H229970   7.692   5.362   4.685
10009TIP3   OH229971   5.502   4.218   3.483
10009TIP3    H129972   5.560   4.157   3.437
10009TIP3    H229973   5.551   4.300   3.484
10010TIP3   OH229974   5.503   3.542   1.447
10010TIP3    H129975   5.582   3.492   1.466
10010TIP3    H229976   5.441   3.478   1.414
10011TIP3   OH229977   7.345   1.274   1.844
10011TIP3    H129978   7.412   1.257   1.909
10011TIP3    H229979   7.363   1.363   1.813
10012TIP3   OH229980   4.610   7.132   2.402
10012TIP3    H129981   4.546   7.060   2.402
10012TIP3    H229982   4.598   7.174   2.317
10013TIP3   OH229983   7.072   0.085   4.399
10013TIP3    H129984   7.106   0.021   4.337
10013TIP3    H229985   6.992   0.044   4.433
10014TIP3   OH229986   5.119   1.931   2.131
10014TIP3    H129987   5.112   2.026   2.122
10014TIP3    H229988   5.146   1.901   2.044
10015TIP3   OH229989   4.218   2.109   4.999
10015TIP3    H129990   4.207   2.104   5.094
10015TIP3    H229991   4.298   2.060   4.981
10016TIP3   OH229992   5.663   6.634   3.814
10016TIP3    H129993   5.714   6.578   3.756
10016TIP3    H229994   5.710   6.630   3.898
10017TIP3   OH229995   4.388   5.791   5.488
10017TIP3    H129996   4.463   5.754   5.442
10017TIP3    H229997   4.332   5.825   5.418
10018TIP3   OH229998   0.416   7.223   4.001
10018TIP3    H129999   0.425   7.308   4.044
10018TIP3    H230000   0.359   7.240   3.926
10019TIP3   OH230001   3.670   4.846   6.147
10019TIP3    H130002   3.665   4.905   6.223
10019TIP3    H230003   3.587   4.860   6.101
10020TIP3   OH230004   1.236   5.929   5.264
10020TIP3    H130005   1.224   5.852   5.320
10020TIP3    H230006   1.231   6.004   5.324
10021TIP3   OH230007   5.035   1.375   5.372
10021TIP3    H130008   5.045   1.454   5.320
10021TIP3    H230009   4.943   1.352   5.364
10022TIP3   OH230010   0.968   6.842   4.882
10022TIP3    H130011   0.956   6.937   4.883
10022TIP3    H230012   0.878   6.807   4.879
10023TIP3   OH230013   5.081   6.664   1.777
10023TIP3    H130014   5.148   6.650   1.710
10023TIP3    H230015   4.998   6.666   1.728
10024TIP3   OH230016   7.199   1.407   4.059
10024TIP3    H130017   7.293   1.392   4.068
10024TIP3    H230018   7.189   1.439   3.969
10025TIP3   OH230019   6.725   7.489   0.259
10025TIP3    H130020   6.636   7.526   0.257
10025TIP3    H230021   6.730   7.446   0.345
10026TIP3   OH230022   3.535   2.430   2.830
10026TIP3    H130023   3.586   2.426   2.749
10026TIP3    H230024   3.588   2.384   2.895
10027TIP3   OH230025   1.253   6.095   1.090
10027TIP3    H130026   1.284   6.185   1.075
10027TIP3    H230027   1.186   6.081   1.024
10028TIP3   OH230028   5.090   4.913   3.368
10028TIP3    H130029   5.042   4.897   3.449
10028TIP3    H230030   5.065   4.840   3.311
10029TIP3   OH230031   5.732   4.034   2.869
10029TIP3    H130032   5.664   4.077   2.921
10029TIP3    H230033   5.753   4.097   2.800
10030TIP3   OH230034   4.471   3.301   0.505
10030TIP3    H130035   4.503   3.284   0.417
10030TIP3    H230036   4.450   3.394   0.506
10031TIP3   OH230037   3.746   5.602   3.114
10031TIP3    H130038   3.787   5.679   3.075
10031TIP3    H230039   3.784   5.528   3.067
10032TIP3   OH230040   6.262   5.524   1.734
10032TIP3    H130041   6.184   5.573   1.707
10032TIP3    H230042   6.229   5.436   1.754
10033TIP3   OH230043   6.864   5.653   0.969
10033TIP3    H130044   6.824   5.653   1.056
10033TIP3    H230045   6.950   5.693   0.982
10034TIP3   OH230046   1.447   5.855   0.008
10034TIP3    H130047   1.494   5.931  -0.027
10034TIP3    H230048   1.497   5.779  -0.024
10035TIP3   OH230049   1.621   7.044   6.571
10035TIP3    H130050   1.529   7.051   6.544
10035TIP3    H230051   1.617   7.029   6.665
10036TIP3   OH230052   0.443   4.489   4.056
10036TIP3    H130053   0.492   4.448   4.128
10036TIP3    H230054   0.471   4.581   4.058
10037TIP3   OH230055   0.543   6.587   0.698
10037TIP3    H130056   0.611   6.596   0.632
10037TIP3    H230057   0.492   6.511   0.671
10038TIP3   OH230058   0.251   4.366   4.727
10038TIP3    H130059   0.248   4.279   4.767
10038TIP3    H230060   0.344   4.386   4.720
10039TIP3   OH230061   6.665   5.727   0.765
10039TIP3    H130062   6.683   5.676   0.686
10039TIP3    H230063   6.735   5.704   0.826
10040TIP3   OH230064   4.584   0.284   4.152
10040TIP3    H130065   4.506   0.233   4.175
10040TIP3    H230066   4.576   0.301   4.058
10041TIP3   OH230067   8.086   2.372   3.835
10041TIP3    H130068   8.071   2.461   3.803
10041TIP3    H230069   8.009   2.323   3.805
10042TIP3   OH230070   6.743   4.931   1.672
10042TIP3    H130071   6.787   4.991   1.733
10042TIP3    H230072   6.690   4.988   1.617
10043TIP3   OH230073   1.130   5.320   5.912
10043TIP3    H130074   1.161   5.230   5.909
10043TIP3    H230075   1.065   5.320   5.982
10044TIP3   OH230076   1.019   2.609   0.420
10044TIP3    H130077   1.083   2.618   0.350
10044TIP3    H230078   1.058   2.548   0.482
10045TIP3   OH230079   4.044   6.333   5.483
10045TIP3    H130080   4.015   6.331   5.391
10045TIP3    H230081   4.031   6.243   5.514
10046TIP3   OH230082   2.597   6.514   4.977
10046TIP3    H130083   2.615   6.420   4.985
10046TIP3    H230084   2.669   6.556   5.024
10047TIP3   OH230085   1.241   2.644   0.232
10047TIP3    H130086   1.250   2.712   0.164
10047TIP3    H230087   1.327   2.639   0.272
10048TIP3   OH230088   4.033   3.016   2.515
10048TIP3    H130089   4.067   2.959   2.446
10048TIP3    H230090   4.094   3.003   2.588
10049TIP3   OH230091   0.070   7.723   5.395
10049TIP3    H130092   0.011   7.722   5.320
10049TIP3    H230093   0.017   7.691   5.468
10050TIP3   OH230094   0.276   6.394   4.464
10050TIP3    H130095   0.213   6.344   4.413
10050TIP3    H230096   0.254   6.374   4.555
10051TIP3   OH230097   1.646   0.285   2.500
10051TIP3    H130098   1.727   0.297   2.452
10051TIP3    H230099   1.625   0.372   2.535
10052TIP3   OH230100   5.656   1.224   3.083
10052TIP3    H130101   5.596   1.232   3.157
10052TIP3    H230102   5.623   1.149   3.033
10053TIP3   OH230103   1.242   0.363   0.691
10053TIP3    H130104   1.281   0.308   0.622
10053TIP3    H230105   1.306   0.433   0.704
10054TIP3   OH230106   7.714   4.441   0.243
10054TIP3    H130107   7.807   4.463   0.247
10054TIP3    H230108   7.699   4.418   0.151
10055TIP3   OH230109   6.978   3.471   4.833
10055TIP3    H130110   7.051   3.434   4.883
10055TIP3    H230111   6.931   3.394   4.800
10056TIP3   OH230112   2.019   1.707   2.279
10056TIP3    H130113   1.994   1.784   2.227
10056TIP3    H230114   2.099   1.734   2.324
10057TIP3   OH230115   5.435   5.000   2.108
10057TIP3    H130116   5.501   5.013   2.039
10057TIP3    H230117   5.470   4.929   2.162
10058TIP3   OH230118   0.340   1.772   1.748
10058TIP3    H130119   0.418   1.718   1.762
10058TIP3    H230120   0.306   1.743   1.663
10059TIP3   OH230121   8.140   1.948   1.807
10059TIP3    H130122   8.147   1.855   1.825
10059TIP3    H230123   8.201   1.989   1.869
10060TIP3   OH230124   3.267   5.176   4.564
10060TIP3    H130125   3.277   5.179   4.469
10060TIP3    H230126   3.350   5.138   4.595
10061TIP3   OH230127   3.927   1.462   1.487
10061TIP3    H130128   3.999   1.497   1.434
10061TIP3    H230129   3.932   1.511   1.569
10062TIP3   OH230130   0.523   7.725   4.617
10062TIP3    H130131   0.469   7.690   4.546
10062TIP3    H230132   0.573   7.649   4.649
10063TIP3   OH230133   4.423   0.497   5.456
10063TIP3    H130134   4.413   0.562   5.526
10063TIP3    H230135   4.504   0.521   5.412
10064TIP3   OH230136   0.106   5.428   0.513
10064TIP3    H130137   0.075   5.456   0.598
10064TIP3    H230138   0.069   5.340   0.501
10065TIP3   OH230139   0.741   2.575   4.456
10065TIP3    H130140   0.796   2.510   4.413
10065TIP3    H230141   0.671   2.594   4.393
10066TIP3   OH230142   5.147   3.037   0.574
10066TIP3    H130143   5.242   3.024   0.567
10066TIP3    H230144   5.136   3.130   0.591
10067TIP3   OH230145   7.076   0.023   2.970
10067TIP3    H130146   7.026   0.041   2.890
10067TIP3    H230147   7.151  -0.028   2.940
10068TIP3   OH230148   3.124   1.514   5.347
10068TIP3    H130149   3.078   1.466   5.278
10068TIP3    H230150   3.140   1.600   5.309
10069TIP3   OH230151   0.843   1.641   4.740
10069TIP3    H130152   0.836   1.595   4.823
10069TIP3    H230153   0.930   1.619   4.708
10070TIP3   OH230154   5.715   5.262   3.283
10070TIP3    H130155   5.744   5.347   3.315
10070TIP3    H230156   5.704   5.274   3.189
10071TIP3   OH230157   2.275   5.819   1.685
10071TIP3    H130158   2.275   5.909   1.717
10071TIP3    H230159   2.218   5.820   1.609
10072TIP3   OH230160   4.900   3.003   5.919
10072TIP3    H130161   4.815   2.959   5.920
10072TIP3    H230162   4.936   2.987   6.006
10073TIP3   OH230163   3.727   6.661   3.110
10073TIP3    H130164   3.731   6.655   3.015
10073TIP3    H230165   3.711   6.753   3.128
10074TIP3   OH230166   5.611   6.734   0.119
10074TIP3    H130167   5.701   6.724   0.087
10074TIP3    H230168   5.594   6.828   0.115
10075TIP3   OH230169   5.179   1.535   3.783
10075TIP3    H130170   5.191   1.534   3.688
10075TIP3    H230171   5.196   1.625   3.810
10076TIP3   OH230172   5.573   4.221   6.624
10076TIP3    H130173   5.498   4.214   6.683
10076TIP3    H230174   5.649   4.210   6.682
10077TIP3   OH230175   0.195   2.019   3.961
10077TIP3    H130176   0.150   1.949   4.009
10077TIP3    H230177   0.147   2.098   3.983
10078TIP3   OH230178   5.390   6.628   3.812
10078TIP3    H130179   5.365   6.660   3.898
10078TIP3    H230180   5.485   6.620   3.816
10079TIP3   OH230181   7.242   6.038   0.686
10079TIP3    H130182   7.215   5.949   0.708
10079TIP3    H230183   7.315   6.056   0.745
10080TIP3   OH230184   4.141   0.886   6.745
10080TIP3    H130185   4.106   0.937   6.673
10080TIP3    H230186   4.065   0.839   6.780
10081TIP3   OH230187   1.191   2.066   3.569
10081TIP3    H130188   1.246   2.115   3.508
10081TIP3    H230189   1.184   1.979   3.530
10082TIP3   OH230190   2.828   5.014   1.626
10082TIP3    H130191   2.745   4.978   1.593
10082TIP3    H230192   2.885   5.016   1.549
10083TIP3   OH230193   1.914   2.870   0.177
10083TIP3    H130194   1.853   2.924   0.228
10083TIP3    H230195   1.937   2.798   0.235
10084TIP3   OH230196   4.140   1.062   5.251
10084TIP3    H130197   4.188   0.980   5.249
10084TIP3    H230198   4.173   1.111   5.175
10085TIP3   OH230199   2.701   4.870   4.898
10085TIP3    H130200   2.666   4.953   4.929
10085TIP3    H230201   2.673   4.864   4.807
10086TIP3   OH230202   1.910   3.322   3.263
10086TIP3    H130203   1.823   3.338   3.225
10086TIP3    H230204   1.891   3.282   3.348
10087TIP3   OH230205   4.198   3.948   0.225
10087TIP3    H130206   4.225   3.968   0.136
10087TIP3    H230207   4.227   4.022   0.277
10088TIP3   OH230208   0.993   7.811   3.463
10088TIP3    H130209   1.018   7.786   3.374
10088TIP3    H230210   1.054   7.881   3.486
10089TIP3   OH230211   4.179   0.916   0.513
10089TIP3    H130212   4.144   0.998   0.480
10089TIP3    H230213   4.107   0.875   0.560
10090TIP3   OH230214   2.342   4.284   5.986
10090TIP3    H130215   2.317   4.295   5.895
10090TIP3    H230216   2.384   4.367   6.010
10091TIP3   OH230217   6.906   7.127   1.869
10091TIP3    H130218   6.946   7.168   1.946
10091TIP3    H230219   6.898   7.198   1.806
10092TIP3   OH230220   0.293   6.084   4.868
10092TIP3    H130221   0.236   6.155   4.898
10092TIP3    H230222   0.277   6.079   4.773
10093TIP3   OH230223   8.001   3.818   6.343
10093TIP3    H130224   7.910   3.812   6.314
10093TIP3    H230225   7.995   3.831   6.438
10094TIP3   OH230226   1.582   6.031   4.167
10094TIP3    H130227   1.647   6.102   4.174
10094TIP3    H230228   1.546   6.022   4.255
10095TIP3   OH230229   4.610   5.895   2.125
10095TIP3    H130230   4.649   5.833   2.063
10095TIP3    H230231   4.683   5.945   2.159
10096TIP3   OH230232   5.991   3.349   4.053
10096TIP3    H130233   5.972   3.264   4.014
10096TIP3    H230234   6.086   3.353   4.057
10097TIP3   OH230235   8.070   2.106   3.337
10097TIP3    H130236   8.080   2.199   3.315
10097TIP3    H230237   8.154   2.067   3.314
10098TIP3   OH230238   6.220   3.465   6.468
10098TIP3    H130239   6.175   3.402   6.525
10098TIP3    H230240   6.220   3.422   6.382
10099TIP3   OH230241   3.381   4.845   3.530
10099TIP3    H130242   3.385   4.833   3.625
10099TIP3    H230243   3.341   4.765   3.496
10100TIP3   OH230244   3.639   3.106   4.274
10100TIP3    H130245   3.723   3.140   4.306
10100TIP3    H230246   3.592   3.183   4.242
10101TIP3   OH230247   6.346   1.966   5.805
10101TIP3    H130248   6.295   1.970   5.886
10101TIP3    H230249   6.417   1.905   5.824
10102TIP3   OH230250   6.731   5.683   1.190
10102TIP3    H130251   6.678   5.620   1.239
10102TIP3    H230252   6.695   5.768   1.214
10103TIP3   OH230253   7.750   3.605   5.660
10103TIP3    H130254   7.750   3.676   5.596
10103TIP3    H230255   7.834   3.560   5.647
10104TIP3   OH230256   0.673   1.902   0.046
10104TIP3    H130257   0.735   1.897   0.119
10104TIP3    H230258   0.591   1.930   0.085
10105TIP3   OH230259   4.606   5.358   6.652
10105TIP3    H130260   4.671   5.410   6.699
10105TIP3    H230261   4.524   5.407   6.661
10106TIP3   OH230262   2.991   0.952   2.616
10106TIP3    H130263   2.959   0.998   2.538
10106TIP3    H230264   3.058   0.892   2.583
10107TIP3   OH230265   6.497   6.132   3.210
10107TIP3    H130266   6.413   6.174   3.193
10107TIP3    H230267   6.483   6.040   3.188
10108TIP3   OH230268   2.039   7.369   6.711
10108TIP3    H130269   1.975   7.310   6.751
10108TIP3    H230270   2.058   7.435   6.778
10109TIP3   OH230271   5.823   4.885   3.777
10109TIP3    H130272   5.825   4.940   3.699
10109TIP3    H230273   5.739   4.838   3.772
10110TIP3   OH230274   5.221   3.714   5.104
10110TIP3    H130275   5.130   3.729   5.130
10110TIP3    H230276   5.255   3.653   5.170
10111TIP3   OH230277   2.123   1.991   0.083
10111TIP3    H130278   2.213   1.978   0.051
10111TIP3    H230279   2.073   2.013   0.004
10112TIP3   OH230280   8.131   0.869   3.465
10112TIP3    H130281   8.122   0.964   3.475
10112TIP3    H230282   8.212   0.858   3.415
10113TIP3   OH230283   7.619   4.468   5.411
10113TIP3    H130284   7.571   4.389   5.436
10113TIP3    H230285   7.610   4.472   5.316
10114TIP3   OH230286   6.085   4.426   5.514
10114TIP3    H130287   6.064   4.519   5.505
10114TIP3    H230288   6.181   4.422   5.505
10115TIP3   OH230289   2.131   3.396   0.528
10115TIP3    H130290   2.108   3.326   0.589
10115TIP3    H230291   2.170   3.351   0.453
10116TIP3   OH230292   4.256   6.566   3.395
10116TIP3    H130293   4.343   6.577   3.356
10116TIP3    H230294   4.205   6.638   3.357
10117TIP3   OH230295   2.266   5.320   5.165
10117TIP3    H130296   2.288   5.294   5.076
10117TIP3    H230297   2.182   5.367   5.157
10118TIP3   OH230298   4.579   1.503   1.645
10118TIP3    H130299   4.635   1.514   1.722
10118TIP3    H230300   4.539   1.417   1.657
10119TIP3   OH230301   0.241   3.406   3.435
10119TIP3    H130302   0.237   3.311   3.432
10119TIP3    H230303   0.309   3.429   3.372
10120TIP3   OH230304   1.841   4.484   3.214
10120TIP3    H130305   1.771   4.456   3.156
10120TIP3    H230306   1.805   4.559   3.261
10121TIP3   OH230307   1.421   7.136   5.689
10121TIP3    H130308   1.509   7.158   5.657
10121TIP3    H230309   1.363   7.161   5.617
10122TIP3   OH230310   3.918   2.552   3.421
10122TIP3    H130311   3.942   2.641   3.395
10122TIP3    H230312   3.996   2.500   3.401
10123TIP3   OH230313   5.377   2.303   3.069
10123TIP3    H130314   5.350   2.229   3.123
10123TIP3    H230315   5.396   2.264   2.984
10124TIP3   OH230316   0.141   2.973   0.896
10124TIP3    H130317   0.094   2.925   0.964
10124TIP3    H230318   0.079   2.979   0.824
10125TIP3   OH230319   5.547   6.669   3.209
10125TIP3    H130320   5.635   6.708   3.208
10125TIP3    H230321   5.517   6.675   3.119
10126TIP3   OH230322   2.358   7.024   5.536
10126TIP3    H130323   2.289   7.066   5.588
10126TIP3    H230324   2.432   7.083   5.542
10127TIP3   OH230325   2.447   5.914   1.431
10127TIP3    H130326   2.537   5.899   1.403
10127TIP3    H230327   2.446   5.886   1.522
10128TIP3   OH230328   5.620   7.334   3.217
10128TIP3    H130329   5.704   7.316   3.259
10128TIP3    H230330   5.644   7.358   3.127
10129TIP3   OH230331   6.124   1.079   2.033
10129TIP3    H130332   6.147   1.164   1.997
10129TIP3    H230333   6.063   1.041   1.970
10130TIP3   OH230334   3.242   4.606   1.622
10130TIP3    H130335   3.149   4.627   1.635
10130TIP3    H230336   3.288   4.663   1.684
10131TIP3   OH230337   6.536   1.849   1.832
10131TIP3    H130338   6.481   1.771   1.834
10131TIP3    H230339   6.613   1.826   1.884
10132TIP3   OH230340   7.769   4.277   6.483
10132TIP3    H130341   7.777   4.307   6.573
10132TIP3    H230342   7.699   4.331   6.445
10133TIP3   OH230343   0.849   7.208   3.485
10133TIP3    H130344   0.898   7.286   3.459
10133TIP3    H230345   0.905   7.135   3.461
10134TIP3   OH230346   0.720   7.179   3.988
10134TIP3    H130347   0.770   7.097   3.988
10134TIP3    H230348   0.637   7.156   4.029
10135TIP3   OH230349   3.363   5.938   6.570
10135TIP3    H130350   3.412   5.889   6.636
10135TIP3    H230351   3.352   6.025   6.607
10136TIP3   OH230352   6.361   3.847   2.399
10136TIP3    H130353   6.398   3.801   2.323
10136TIP3    H230354   6.423   3.918   2.417
10137TIP3   OH230355   1.644   4.729   1.417
10137TIP3    H130356   1.654   4.813   1.463
10137TIP3    H230357   1.671   4.664   1.482
10138TIP3   OH230358   7.619   2.625   6.001
10138TIP3    H130359   7.649   2.636   5.911
10138TIP3    H230360   7.694   2.648   6.055
10139TIP3   OH230361   3.850   1.016   6.247
10139TIP3    H130362   3.754   1.023   6.248
10139TIP3    H230363   3.870   0.967   6.167
10140TIP3   OH230364   5.895   0.235   0.510
10140TIP3    H130365   5.821   0.292   0.488
10140TIP3    H230366   5.969   0.275   0.464
10141TIP3   OH230367   0.723   5.434   4.621
10141TIP3    H130368   0.650   5.391   4.576
10141TIP3    H230369   0.689   5.455   4.707
10142TIP3   OH230370   1.337   6.359   5.361
10142TIP3    H130371   1.309   6.271   5.388
10142TIP3    H230372   1.371   6.399   5.441
10143TIP3   OH230373   0.366   3.222   2.227
10143TIP3    H130374   0.461   3.229   2.226
10143TIP3    H230375   0.336   3.289   2.165
10144TIP3   OH230376   2.240   0.646   1.121
10144TIP3    H130377   2.310   0.637   1.056
10144TIP3    H230378   2.193   0.563   1.118
10145TIP3   OH230379   7.170   6.849   5.561
10145TIP3    H130380   7.134   6.929   5.522
10145TIP3    H230381   7.235   6.819   5.497
10146TIP3   OH230382   4.688   6.872   4.689
10146TIP3    H130383   4.608   6.821   4.694
10146TIP3    H230384   4.659   6.961   4.671
10147TIP3   OH230385   3.184   3.916   2.676
10147TIP3    H130386   3.126   3.882   2.744
10147TIP3    H230387   3.268   3.875   2.694
10148TIP3   OH230388   3.971   1.204   2.592
10148TIP3    H130389   3.919   1.136   2.634
10148TIP3    H230390   4.019   1.245   2.664
10149TIP3   OH230391   7.055   6.920   6.466
10149TIP3    H130392   6.963   6.905   6.441
10149TIP3    H230393   7.085   6.988   6.406
10150TIP3   OH230394   6.552   5.888   6.666
10150TIP3    H130395   6.521   5.938   6.742
10150TIP3    H230396   6.618   5.944   6.626
10151TIP3   OH230397   0.614   7.230   0.796
10151TIP3    H130398   0.520   7.220   0.779
10151TIP3    H230399   0.628   7.325   0.798
10152TIP3   OH230400   6.402   5.072   2.222
10152TIP3    H130401   6.398   5.042   2.312
10152TIP3    H230402   6.479   5.129   2.219
10153TIP3   OH230403   3.585   6.508   2.629
10153TIP3    H130404   3.564   6.423   2.668
10153TIP3    H230405   3.620   6.486   2.543
10154TIP3   OH230406   2.772   4.040   5.392
10154TIP3    H130407   2.808   3.962   5.350
10154TIP3    H230408   2.770   4.019   5.485
10155TIP3   OH230409   4.912   2.142   4.679
10155TIP3    H130410   5.007   2.132   4.679
10155TIP3    H230411   4.897   2.222   4.731
10156TIP3   OH230412   1.669   5.835   2.820
10156TIP3    H130413   1.661   5.928   2.797
10156TIP3    H230414   1.611   5.791   2.759
10157TIP3   OH230415   4.893   6.992   6.453
10157TIP3    H130416   4.920   7.024   6.367
10157TIP3    H230417   4.836   6.918   6.435
10158TIP3   OH230418   3.261   2.876   0.065
10158TIP3    H130419   3.177   2.861   0.022
10158TIP3    H230420   3.325   2.835   0.007
10159TIP3   OH230421   0.748   0.934   0.406
10159TIP3    H130422   0.820   0.871   0.415
10159TIP3    H230423   0.745   0.955   0.313
10160TIP3   OH230424   7.564   3.999   3.843
10160TIP3    H130425   7.532   4.083   3.811
10160TIP3    H230426   7.644   3.983   3.793
10161TIP3   OH230427   5.968   4.723   0.908
10161TIP3    H130428   5.916   4.726   0.827
10161TIP3    H230429   6.030   4.795   0.899
10162TIP3   OH230430   0.626   1.806   4.819
10162TIP3    H130431   0.666   1.789   4.734
10162TIP3    H230432   0.699   1.823   4.878
10163TIP3   OH230433   4.963   0.801   6.073
10163TIP3    H130434   4.887   0.743   6.071
10163TIP3    H230435   4.997   0.799   5.983
10164TIP3   OH230436   7.001   6.038   0.482
10164TIP3    H130437   7.080   6.035   0.537
10164TIP3    H230438   6.944   6.102   0.525
10165TIP3   OH230439   1.739   5.141   4.261
10165TIP3    H130440   1.644   5.137   4.254
10165TIP3    H230441   1.764   5.056   4.298
10166TIP3   OH230442   8.009   6.959   0.384
10166TIP3    H130443   7.980   6.998   0.466
10166TIP3    H230444   8.099   6.987   0.374
10167TIP3   OH230445   2.803   3.357   2.529
10167TIP3    H130446   2.817   3.282   2.471
10167TIP3    H230447   2.890   3.393   2.542
10168TIP3   OH230448   1.490   0.713   5.733
10168TIP3    H130449   1.548   0.694   5.659
10168TIP3    H230450   1.426   0.775   5.699
10169TIP3   OH230451   6.084   5.782   3.958
10169TIP3    H130452   6.149   5.792   3.888
10169TIP3    H230453   6.031   5.862   3.952
10170TIP3   OH230454   4.784   3.396   2.587
10170TIP3    H130455   4.751   3.334   2.522
10170TIP3    H230456   4.762   3.357   2.672
10171TIP3   OH230457   6.288   1.789   4.255
10171TIP3    H130458   6.264   1.879   4.276
10171TIP3    H230459   6.228   1.736   4.308
10172TIP3   OH230460   4.332   5.449   6.057
10172TIP3    H130461   4.420   5.468   6.090
10172TIP3    H230462   4.314   5.360   6.088
10173TIP3   OH230463   7.131   6.166   5.980
10173TIP3    H130464   7.178   6.114   6.045
10173TIP3    H230465   7.040   6.138   5.988
10174TIP3   OH230466   6.351   1.908   1.113
10174TIP3    H130467   6.404   1.884   1.037
10174TIP3    H230468   6.386   1.854   1.184
10175TIP3   OH230469   7.996   7.515   5.810
10175TIP3    H130470   8.026   7.440   5.861
10175TIP3    H230471   7.903   7.522   5.831
10176TIP3   OH230472   1.635   7.568   2.844
10176TIP3    H130473   1.669   7.537   2.927
10176TIP3    H230474   1.708   7.616   2.804
10177TIP3   OH230475   8.052   4.839   4.170
10177TIP3    H130476   8.118   4.893   4.127
10177TIP3    H230477   8.101   4.781   4.227
10178TIP3   OH230478   2.730   2.291   5.670
10178TIP3    H130479   2.817   2.331   5.674
10178TIP3    H230480   2.747   2.198   5.657
10179TIP3   OH230481   1.330   0.617   4.408
10179TIP3    H130482   1.327   0.664   4.491
10179TIP3    H230483   1.353   0.683   4.343
10180TIP3   OH230484   5.423   2.962   0.531
10180TIP3    H130485   5.425   2.908   0.452
10180TIP3    H230486   5.489   2.923   0.588
10181TIP3   OH230487   6.684   3.074   6.137
10181TIP3    H130488   6.682   3.086   6.232
10181TIP3    H230489   6.615   3.009   6.120
10182TIP3   OH230490   0.335   5.848   2.125
10182TIP3    H130491   0.280   5.922   2.099
10182TIP3    H230492   0.274   5.777   2.145
10183TIP3   OH230493   3.297   2.507   1.152
10183TIP3    H130494   3.278   2.421   1.115
10183TIP3    H230495   3.384   2.529   1.120
10184TIP3   OH230496   3.079   4.527   2.377
10184TIP3    H130497   3.088   4.549   2.469
10184TIP3    H230498   3.154   4.567   2.335
10185TIP3   OH230499   1.969   0.829   5.599
10185TIP3    H130500   1.934   0.871   5.678
10185TIP3    H230501   2.037   0.770   5.632
10186TIP3   OH230502   2.293   6.852   4.319
10186TIP3    H130503   2.247   6.931   4.289
10186TIP3    H230504   2.376   6.884   4.354
10187TIP3   OH230505   1.715   4.058   0.629
10187TIP3    H130506   1.726   4.110   0.708
10187TIP3    H230507   1.765   4.105   0.562
10188TIP3   OH230508   8.158   4.067   4.876
10188TIP3    H130509   8.203   4.081   4.792
10188TIP3    H230510   8.073   4.109   4.865
10189TIP3   OH230511   4.359   0.990   3.454
10189TIP3    H130512   4.322   1.055   3.513
10189TIP3    H230513   4.453   0.991   3.473
10190TIP3   OH230514   2.984   4.772   5.479
10190TIP3    H130515   3.007   4.750   5.569
10190TIP3    H230516   3.052   4.833   5.450
10191TIP3   OH230517   7.564   3.802   0.548
10191TIP3    H130518   7.480   3.829   0.587
10191TIP3    H230519   7.578   3.864   0.477
10192TIP3   OH230520   2.977   5.161   6.313
10192TIP3    H130521   2.933   5.076   6.321
10192TIP3    H230522   3.068   5.143   6.333
10193TIP3   OH230523   0.043   6.652   5.342
10193TIP3    H130524   0.108   6.684   5.279
10193TIP3    H230525   0.060   6.704   5.421
10194TIP3   OH230526   4.497   1.476   4.600
10194TIP3    H130527   4.524   1.568   4.598
10194TIP3    H230528   4.406   1.479   4.629
10195TIP3   OH230529   7.572   1.300   2.837
10195TIP3    H130530   7.630   1.290   2.760
10195TIP3    H230531   7.632   1.309   2.911
10196TIP3   OH230532   2.575   3.400   3.494
10196TIP3    H130533   2.578   3.462   3.421
10196TIP3    H230534   2.594   3.453   3.571
10197TIP3   OH230535   3.736   0.404   6.121
10197TIP3    H130536   3.723   0.415   6.026
10197TIP3    H230537   3.668   0.343   6.148
10198TIP3   OH230538   7.228   2.911   1.425
10198TIP3    H130539   7.313   2.890   1.462
10198TIP3    H230540   7.237   3.001   1.393
10199TIP3   OH230541   4.168   6.917   4.253
10199TIP3    H130542   4.099   6.951   4.310
10199TIP3    H230543   4.189   6.989   4.194
10200TIP3   OH230544   5.683   7.398   0.451
10200TIP3    H130545   5.707   7.482   0.488
10200TIP3    H230546   5.736   7.334   0.499
10201TIP3   OH230547   3.997   4.381   4.099
10201TIP3    H130548   4.007   4.474   4.081
10201TIP3    H230549   3.929   4.377   4.166
10202TIP3   OH230550   2.965   7.762   3.690
10202TIP3    H130551   2.874   7.765   3.659
10202TIP3    H230552   2.965   7.814   3.770
10203TIP3   OH230553   5.640   1.609   2.395
10203TIP3    H130554   5.713   1.668   2.419
10203TIP3    H230555   5.595   1.594   2.478
10204TIP3   OH230556   7.908   6.711   5.916
10204TIP3    H130557   7.970   6.656   5.964
10204TIP3    H230558   7.861   6.650   5.858
10205TIP3   OH230559   0.892   2.747   4.897
10205TIP3    H130560   0.889   2.826   4.843
10205TIP3    H230561   0.944   2.685   4.846
10206TIP3   OH230562   2.181   5.689   0.775
10206TIP3    H130563   2.210   5.620   0.833
10206TIP3    H230564   2.104   5.653   0.730
10207TIP3   OH230565   5.518   2.381   1.685
10207TIP3    H130566   5.556   2.448   1.629
10207TIP3    H230567   5.575   2.378   1.762
10208TIP3   OH230568   0.765   7.290   4.264
10208TIP3    H130569   0.703   7.218   4.263
10208TIP3    H230570   0.711   7.369   4.257
10209TIP3   OH230571   4.019   1.644   4.828
10209TIP3    H130572   4.044   1.736   4.823
10209TIP3    H230573   3.935   1.638   4.784
10210TIP3   OH230574   6.008   2.880   4.292
10210TIP3    H130575   6.041   2.790   4.296
10210TIP3    H230576   6.056   2.919   4.218
10211TIP3   OH230577   0.564   0.045   1.109
10211TIP3    H130578   0.556   0.117   1.172
10211TIP3    H230579   0.520  -0.028   1.152
10212TIP3   OH230580   1.904   1.926   4.199
10212TIP3    H130581   1.834   1.991   4.204
10212TIP3    H230582   1.984   1.977   4.191
10213TIP3   OH230583   2.007   0.214   6.696
10213TIP3    H130584   2.058   0.133   6.698
10213TIP3    H230585   2.041   0.265   6.769
10214TIP3   OH230586   4.004   4.183   1.589
10214TIP3    H130587   4.008   4.132   1.670
10214TIP3    H230588   4.045   4.127   1.523
10215TIP3   OH230589   1.864   1.099   0.063
10215TIP3    H130590   1.797   1.142   0.116
10215TIP3    H230591   1.937   1.085   0.123
10216TIP3   OH230592   0.538   1.058   0.110
10216TIP3    H130593   0.571   1.145   0.088
10216TIP3    H230594   0.611   0.999   0.092
10217TIP3   OH230595   6.393   4.624   1.331
10217TIP3    H130596   6.438   4.632   1.415
10217TIP3    H230597   6.314   4.574   1.351
10218TIP3   OH230598   2.301   0.708   1.828
10218TIP3    H130599   2.238   0.726   1.758
10218TIP3    H230600   2.282   0.618   1.854
10219TIP3   OH230601   0.856   4.106   1.813
10219TIP3    H130602   0.785   4.129   1.753
10219TIP3    H230603   0.936   4.133   1.767
10220TIP3   OH230604   4.193   4.286   2.784
10220TIP3    H130605   4.200   4.258   2.693
10220TIP3    H230606   4.244   4.222   2.833
10221TIP3   OH230607   1.892   5.029   0.430
10221TIP3    H130608   1.823   4.971   0.462
10221TIP3    H230609   1.904   5.093   0.500
10222TIP3   OH230610   2.789   4.529   0.611
10222TIP3    H130611   2.811   4.481   0.531
10222TIP3    H230612   2.864   4.587   0.626
10223TIP3   OH230613   3.543   4.527   4.808
10223TIP3    H130614   3.535   4.555   4.899
10223TIP3    H230615   3.522   4.433   4.810
10224TIP3   OH230616   6.040   6.460   4.871
10224TIP3    H130617   5.983   6.399   4.825
10224TIP3    H230618   6.098   6.405   4.923
10225TIP3   OH230619   0.211   1.490   1.792
10225TIP3    H130620   0.304   1.494   1.817
10225TIP3    H230621   0.164   1.515   1.871
10226TIP3   OH230622   8.061   3.723   0.303
10226TIP3    H130623   8.155   3.732   0.284
10226TIP3    H230624   8.024   3.809   0.284
10227TIP3   OH230625   3.530   3.531   5.462
10227TIP3    H130626   3.598   3.535   5.530
10227TIP3    H230627   3.448   3.539   5.510
10228TIP3   OH230628   3.578   6.206   5.466
10228TIP3    H130629   3.553   6.254   5.387
10228TIP3    H230630   3.621   6.272   5.521
10229TIP3   OH230631   0.904   2.318   4.713
10229TIP3    H130632   0.856   2.235   4.716
10229TIP3    H230633   0.970   2.310   4.781
10230TIP3   OH230634   3.934   5.989   4.989
10230TIP3    H130635   3.980   5.907   4.971
10230TIP3    H230636   3.992   6.057   4.954
10231TIP3   OH230637   5.902   0.683   2.327
10231TIP3    H130638   5.893   0.778   2.322
10231TIP3    H230639   5.982   0.663   2.279
10232TIP3   OH230640   7.360   2.737   3.829
10232TIP3    H130641   7.298   2.707   3.763
10232TIP3    H230642   7.314   2.725   3.912
10233TIP3   OH230643   1.415   0.141   3.396
10233TIP3    H130644   1.424   0.077   3.467
10233TIP3    H230645   1.339   0.110   3.346
10234TIP3   OH230646   7.530   0.862   5.679
10234TIP3    H130647   7.535   0.773   5.644
10234TIP3    H230648   7.450   0.863   5.730
10235TIP3   OH230649   2.994   4.436   4.430
10235TIP3    H130650   2.990   4.442   4.525
10235TIP3    H230651   3.026   4.347   4.412
10236TIP3   OH230652   5.887   3.163   6.139
10236TIP3    H130653   5.836   3.239   6.109
10236TIP3    H230654   5.833   3.088   6.118
10237TIP3   OH230655   3.482   1.129   3.144
10237TIP3    H130656   3.573   1.154   3.157
10237TIP3    H230657   3.431   1.206   3.169
10238TIP3   OH230658   5.883   4.772   5.476
10238TIP3    H130659   5.880   4.739   5.386
10238TIP3    H230660   5.870   4.866   5.468
10239TIP3   OH230661   2.478   6.216   0.609
10239TIP3    H130662   2.465   6.310   0.618
10239TIP3    H230663   2.516   6.189   0.693
10240TIP3   OH230664   4.114   0.141   6.454
10240TIP3    H130665   4.134   0.153   6.361
10240TIP3    H230666   4.193   0.102   6.490
10241TIP3   OH230667   4.027   6.241   6.538
10241TIP3    H130668   4.084   6.318   6.534
10241TIP3    H230669   3.996   6.229   6.449
10242TIP3   OH230670   4.336   0.580   4.522
10242TIP3    H130671   4.333   0.490   4.553
10242TIP3    H230672   4.309   0.632   4.599
10243TIP3   OH230673   0.597   6.127   0.628
10243TIP3    H130674   0.636   6.157   0.546
10243TIP3    H230675   0.661   6.150   0.695
10244TIP3   OH230676   7.795   0.315   6.737
10244TIP3    H130677   7.755   0.389   6.783
10244TIP3    H230678   7.746   0.308   6.655
10245TIP3   OH230679   0.889   4.594   2.878
10245TIP3    H130680   0.871   4.683   2.907
10245TIP3    H230681   0.855   4.590   2.789
10246TIP3   OH230682   0.182   4.008   1.089
10246TIP3    H130683   0.232   3.931   1.115
10246TIP3    H230684   0.200   4.017   0.995
10247TIP3   OH230685   5.034   5.366   3.084
10247TIP3    H130686   5.003   5.408   3.164
10247TIP3    H230687   5.038   5.273   3.106
10248TIP3   OH230688   6.428   0.446   1.845
10248TIP3    H130689   6.335   0.468   1.838
10248TIP3    H230690   6.453   0.475   1.933
10249TIP3   OH230691   6.407   7.162   3.806
10249TIP3    H130692   6.372   7.099   3.869
10249TIP3    H230693   6.348   7.237   3.811
10250TIP3   OH230694   4.880   3.736   4.878
10250TIP3    H130695   4.807   3.785   4.840
10250TIP3    H230696   4.887   3.768   4.967
10251TIP3   OH230697   4.760   6.578   5.537
10251TIP3    H130698   4.808   6.660   5.522
10251TIP3    H230699   4.779   6.525   5.460
10252TIP3   OH230700   2.724   6.009   3.300
10252TIP3    H130701   2.752   6.036   3.213
10252TIP3    H230702   2.767   5.925   3.315
10253TIP3   OH230703   8.082   0.887   3.809
10253TIP3    H130704   8.022   0.819   3.777
10253TIP3    H230705   8.066   0.962   3.752
10254TIP3   OH230706   4.785   4.602   3.854
10254TIP3    H130707   4.771   4.690   3.889
10254TIP3    H230708   4.708   4.553   3.882
10255TIP3   OH230709   4.941   4.860   6.042
10255TIP3    H130710   4.905   4.894   6.123
10255TIP3    H230711   5.027   4.826   6.066
10256TIP3   OH230712   4.447   6.876   0.939
10256TIP3    H130713   4.512   6.807   0.925
10256TIP3    H230714   4.444   6.888   1.034
10257TIP3   OH230715   2.880   3.625   4.364
10257TIP3    H130716   2.854   3.696   4.304
10257TIP3    H230717   2.958   3.587   4.325
10258TIP3   OH230718   5.669   6.374   5.427
10258TIP3    H130719   5.745   6.431   5.417
10258TIP3    H230720   5.706   6.286   5.432
10259TIP3   OH230721   3.048   6.157   4.782
10259TIP3    H130722   3.026   6.225   4.845
10259TIP3    H230723   3.012   6.188   4.699
10260TIP3   OH230724   7.139   1.312   5.612
10260TIP3    H130725   7.199   1.384   5.594
10260TIP3    H230726   7.182   1.262   5.681
10261TIP3   OH230727   4.823   7.089   4.476
10261TIP3    H130728   4.813   7.004   4.519
10261TIP3    H230729   4.795   7.074   4.386
10262TIP3   OH230730   3.378   5.597   1.534
10262TIP3    H130731   3.449   5.539   1.562
10262TIP3    H230732   3.422   5.671   1.494
10263TIP3   OH230733   7.107   6.004   3.942
10263TIP3    H130734   7.035   6.016   3.881
10263TIP3    H230735   7.141   5.917   3.922
10264TIP3   OH230736   7.151   1.479   5.156
10264TIP3    H130737   7.126   1.386   5.157
10264TIP3    H230738   7.143   1.507   5.247
10265TIP3   OH230739   2.262   6.708   5.697
10265TIP3    H130740   2.189   6.657   5.730
10265TIP3    H230741   2.225   6.794   5.679
10266TIP3   OH230742   7.847   5.257   1.203
10266TIP3    H130743   7.774   5.306   1.240
10266TIP3    H230744   7.838   5.268   1.108
10267TIP3   OH230745   4.890   5.982   6.568
10267TIP3    H130746   4.900   5.969   6.474
10267TIP3    H230747   4.968   6.030   6.595
10268TIP3   OH230748   2.145   7.431   0.901
10268TIP3    H130749   2.052   7.449   0.912
10268TIP3    H230750   2.170   7.477   0.821
10269TIP3   OH230751   5.290   1.561   4.076
10269TIP3    H130752   5.203   1.522   4.072
10269TIP3    H230753   5.331   1.519   4.152
10270TIP3   OH230754   1.691   2.587   4.917
10270TIP3    H130755   1.736   2.503   4.924
10270TIP3    H230756   1.680   2.601   4.823
10271TIP3   OH230757   4.744   0.642   1.245
10271TIP3    H130758   4.698   0.663   1.164
10271TIP3    H230759   4.675   0.607   1.302
10272TIP3   OH230760   5.476   2.255   3.365
10272TIP3    H130761   5.538   2.328   3.368
10272TIP3    H230762   5.503   2.199   3.438
10273TIP3   OH230763   6.115   0.147   1.273
10273TIP3    H130764   6.027   0.163   1.309
10273TIP3    H230765   6.174   0.163   1.347
10274TIP3   OH230766   2.246   6.182   1.073
10274TIP3    H130767   2.313   6.249   1.087
10274TIP3    H230768   2.287   6.101   1.102
10275TIP3   OH230769   3.934   3.641   4.431
10275TIP3    H130770   3.956   3.621   4.340
10275TIP3    H230771   3.839   3.643   4.434
10276TIP3   OH230772   7.783   0.440   2.925
10276TIP3    H130773   7.860   0.396   2.963
10276TIP3    H230774   7.764   0.511   2.987
10277TIP3   OH230775   1.647   7.283   5.883
10277TIP3    H130776   1.582   7.337   5.838
10277TIP3    H230777   1.724   7.341   5.891
10278TIP3   OH230778   5.816   2.552   0.166
10278TIP3    H130779   5.886   2.617   0.160
10278TIP3    H230780   5.770   2.573   0.248
10279TIP3   OH230781   7.150   0.267   3.645
10279TIP3    H130782   7.241   0.287   3.668
10279TIP3    H230783   7.152   0.176   3.617
10280TIP3   OH230784   2.990   3.565   1.423
10280TIP3    H130785   3.035   3.612   1.493
10280TIP3    H230786   3.059   3.537   1.364
10281TIP3   OH230787   7.418   2.822   2.265
10281TIP3    H130788   7.434   2.749   2.205
10281TIP3    H230789   7.484   2.887   2.242
10282TIP3   OH230790   4.235   5.994   0.228
10282TIP3    H130791   4.292   5.919   0.212
10282TIP3    H230792   4.206   5.983   0.318
10283TIP3   OH230793   5.541   5.284   1.810
10283TIP3    H130794   5.457   5.255   1.846
10283TIP3    H230795   5.556   5.369   1.852
10284TIP3   OH230796   6.550   0.858   5.155
10284TIP3    H130797   6.519   0.866   5.065
10284TIP3    H230798   6.485   0.905   5.207
10285TIP3   OH230799   4.121   4.067   5.392
10285TIP3    H130800   4.165   3.998   5.343
10285TIP3    H230801   4.065   4.110   5.328
10286TIP3   OH230802   0.884   1.602   4.373
10286TIP3    H130803   0.860   1.551   4.296
10286TIP3    H230804   0.916   1.685   4.338
10287TIP3   OH230805   2.830   4.393   2.318
10287TIP3    H130806   2.916   4.419   2.351
10287TIP3    H230807   2.820   4.444   2.238
10288TIP3   OH230808   1.570   2.021   3.696
10288TIP3    H130809   1.620   1.972   3.630
10288TIP3    H230810   1.574   2.112   3.667
10289TIP3   OH230811   4.547   6.823   6.703
10289TIP3    H130812   4.575   6.912   6.681
10289TIP3    H230813   4.594   6.803   6.784
10290TIP3   OH230814   2.489   6.086   3.985
10290TIP3    H130815   2.475   5.994   3.964
10290TIP3    H230816   2.449   6.098   4.071
10291TIP3   OH230817   0.435   3.476   0.507
10291TIP3    H130818   0.506   3.480   0.442
10291TIP3    H230819   0.442   3.389   0.545
10292TIP3   OH230820   1.747   6.396   2.735
10292TIP3    H130821   1.749   6.306   2.766
10292TIP3    H230822   1.683   6.439   2.792
10293TIP3   OH230823   8.242   4.025   0.770
10293TIP3    H130824   8.204   4.018   0.858
10293TIP3    H230825   8.334   3.998   0.782
10294TIP3   OH230826   3.663   4.602   4.312
10294TIP3    H130827   3.741   4.546   4.306
10294TIP3    H230828   3.605   4.555   4.372
10295TIP3   OH230829   3.813   6.999   0.442
10295TIP3    H130830   3.899   6.960   0.459
10295TIP3    H230831   3.833   7.084   0.401
10296TIP3   OH230832   1.643   2.125   1.743
10296TIP3    H130833   1.607   2.076   1.817
10296TIP3    H230834   1.706   2.065   1.703
10297TIP3   OH230835   2.392   3.581   6.614
10297TIP3    H130836   2.314   3.526   6.599
10297TIP3    H230837   2.359   3.656   6.663
10298TIP3   OH230838   6.030   5.345   1.436
10298TIP3    H130839   6.095   5.294   1.388
10298TIP3    H230840   6.007   5.416   1.376
10299TIP3   OH230841   5.324   6.790   0.047
10299TIP3    H130842   5.404   6.741   0.063
10299TIP3    H230843   5.295   6.761  -0.039
10300TIP3   OH230844   5.024   4.470   5.553
10300TIP3    H130845   5.040   4.530   5.626
10300TIP3    H230846   4.985   4.392   5.594
10301TIP3   OH230847   2.937   5.534   3.239
10301TIP3    H130848   2.851   5.515   3.202
10301TIP3    H230849   2.922   5.608   3.298
10302TIP3   OH230850   6.015   7.184   2.423
10302TIP3    H130851   6.001   7.108   2.479
10302TIP3    H230852   6.077   7.239   2.472
10303TIP3   OH230853   3.528   1.639   5.395
10303TIP3    H130854   3.479   1.668   5.472
10303TIP3    H230855   3.600   1.702   5.387
10304TIP3   OH230856   0.535   5.530   5.294
10304TIP3    H130857   0.619   5.575   5.294
10304TIP3    H230858   0.497   5.550   5.379
10305TIP3   OH230859   7.097   3.851   3.703
10305TIP3    H130860   7.011   3.892   3.697
10305TIP3    H230861   7.120   3.855   3.796
10306TIP3   OH230862   3.633   3.668   0.183
10306TIP3    H130863   3.663   3.742   0.131
10306TIP3    H230864   3.609   3.706   0.268
10307TIP3   OH230865   4.548   2.460   6.068
10307TIP3    H130866   4.503   2.533   6.109
10307TIP3    H230867   4.574   2.492   5.982
10308TIP3   OH230868   3.795   4.775   2.274
10308TIP3    H130869   3.851   4.714   2.224
10308TIP3    H230870   3.840   4.785   2.358
10309TIP3   OH230871   4.564   3.865   3.980
10309TIP3    H130872   4.649   3.906   3.963
10309TIP3    H230873   4.524   3.918   4.049
10310TIP3   OH230874   7.165   0.052   1.741
10310TIP3    H130875   7.172   0.125   1.803
10310TIP3    H230876   7.237  -0.006   1.765
10311TIP3   OH230877   5.386   2.582   1.273
10311TIP3    H130878   5.388   2.494   1.311
10311TIP3    H230879   5.386   2.567   1.178
10312TIP3   OH230880   7.123   7.216   1.099
10312TIP3    H130881   7.146   7.131   1.137
10312TIP3    H230882   7.098   7.270   1.174
10313TIP3   OH230883   1.576   3.972   2.977
10313TIP3    H130884   1.569   3.877   2.991
10313TIP3    H230885   1.497   3.995   2.928
10314TIP3   OH230886   6.412   2.350   3.929
10314TIP3    H130887   6.507   2.351   3.916
10314TIP3    H230888   6.383   2.271   3.884
10315TIP3   OH230889   6.828   1.913   5.978
10315TIP3    H130890   6.766   1.938   5.909
10315TIP3    H230891   6.803   1.967   6.053
10316TIP3   OH230892   0.203   3.022   4.740
10316TIP3    H130893   0.266   2.951   4.729
10316TIP3    H230894   0.198   3.064   4.654
10317TIP3   OH230895   3.728   3.874   2.755
10317TIP3    H130896   3.822   3.890   2.751
10317TIP3    H230897   3.699   3.925   2.831
10318TIP3   OH230898   2.213   1.402   5.596
10318TIP3    H130899   2.264   1.479   5.571
10318TIP3    H230900   2.218   1.344   5.520
10319TIP3   OH230901   6.624   5.173   5.876
10319TIP3    H130902   6.702   5.118   5.872
10319TIP3    H230903   6.637   5.228   5.953
10320TIP3   OH230904   0.162   1.938   2.606
10320TIP3    H130905   0.135   1.847   2.613
10320TIP3    H230906   0.101   1.986   2.662
10321TIP3   OH230907   0.797   6.540   4.068
10321TIP3    H130908   0.749   6.481   4.126
10321TIP3    H230909   0.734   6.609   4.046
10322TIP3   OH230910   4.605   2.227   5.931
10322TIP3    H130911   4.646   2.275   5.859
10322TIP3    H230912   4.584   2.294   5.996
10323TIP3   OH230913   5.689   5.521   1.889
10323TIP3    H130914   5.647   5.509   1.975
10323TIP3    H230915   5.720   5.611   1.890
10324TIP3   OH230916   1.847   2.103   5.556
10324TIP3    H130917   1.859   2.149   5.473
10324TIP3    H230918   1.861   2.011   5.535
10325TIP3   OH230919   4.758   7.683   2.027
10325TIP3    H130920   4.853   7.690   2.036
10325TIP3    H230921   4.725   7.770   2.050
10326TIP3   OH230922   1.503   6.811   0.863
10326TIP3    H130923   1.487   6.891   0.913
10326TIP3    H230924   1.598   6.798   0.869
10327TIP3   OH230925   6.944   5.113   4.687
10327TIP3    H130926   7.040   5.113   4.694
10327TIP3    H230927   6.919   5.204   4.697
10328TIP3   OH230928   7.744   0.149   0.991
10328TIP3    H130929   7.685   0.134   1.065
10328TIP3    H230930   7.805   0.076   0.994
10329TIP3   OH230931   5.978   3.505   0.924
10329TIP3    H130932   5.907   3.518   0.862
10329TIP3    H230933   6.010   3.416   0.906
10330TIP3   OH230934   4.245   7.272   0.058
10330TIP3    H130935   4.177   7.220   0.101
10330TIP3    H230936   4.278   7.215  -0.012
10331TIP3   OH230937   4.372   0.970   0.743
10331TIP3    H130938   4.454   1.001   0.705
10331TIP3    H230939   4.310   0.971   0.671
10332TIP3   OH230940   3.402   1.238   1.890
10332TIP3    H130941   3.409   1.164   1.830
10332TIP3    H230942   3.457   1.215   1.964
10333TIP3   OH230943   2.814   0.410   3.121
10333TIP3    H130944   2.834   0.496   3.086
10333TIP3    H230945   2.824   0.350   3.047
10334TIP3   OH230946   6.764   3.451   3.467
10334TIP3    H130947   6.684   3.503   3.457
10334TIP3    H230948   6.782   3.418   3.379
10335TIP3   OH230949   3.970   0.293   4.039
10335TIP3    H130950   3.986   0.264   4.129
10335TIP3    H230951   4.057   0.314   4.005
10336TIP3   OH230952   0.823   3.316   3.208
10336TIP3    H130953   0.839   3.228   3.172
10336TIP3    H230954   0.752   3.303   3.271
10337TIP3   OH230955   6.434   5.048   2.517
10337TIP3    H130956   6.433   5.141   2.537
10337TIP3    H230957   6.449   5.006   2.602
10338TIP3   OH230958   0.273   6.034   6.138
10338TIP3    H130959   0.260   6.103   6.203
10338TIP3    H230960   0.368   6.029   6.127
10339TIP3   OH230961   0.897   7.132   0.545
10339TIP3    H130962   0.911   7.039   0.527
10339TIP3    H230963   0.985   7.167   0.557
10340TIP3   OH230964   3.248   1.309   3.180
10340TIP3    H130965   3.180   1.241   3.175
10340TIP3    H230966   3.208   1.378   3.232
10341TIP3   OH230967   6.032   3.639   0.410
10341TIP3    H130968   6.077   3.705   0.358
10341TIP3    H230969   5.945   3.633   0.371
10342TIP3   OH230970   3.142   3.350   1.016
10342TIP3    H130971   3.086   3.279   0.984
10342TIP3    H230972   3.211   3.359   0.950
10343TIP3   OH230973   7.326   5.752   2.906
10343TIP3    H130974   7.407   5.701   2.901
10343TIP3    H230975   7.341   5.814   2.977
10344TIP3   OH230976   6.010   4.485   4.135
10344TIP3    H130977   5.942   4.451   4.193
10344TIP3    H230978   6.032   4.412   4.077
10345TIP3   OH230979   2.060   4.911   6.476
10345TIP3    H130980   2.137   4.963   6.452
10345TIP3    H230981   2.094   4.843   6.533
10346TIP3   OH230982   3.331   7.336   4.005
10346TIP3    H130983   3.262   7.305   4.064
10346TIP3    H230984   3.358   7.420   4.042
10347TIP3   OH230985   6.467   7.174   0.287
10347TIP3    H130986   6.440   7.223   0.210
10347TIP3    H230987   6.445   7.083   0.267
10348TIP3   OH230988   2.510   1.521   0.288
10348TIP3    H130989   2.545   1.445   0.241
10348TIP3    H230990   2.526   1.594   0.228
10349TIP3   OH230991   5.807   4.691   0.380
10349TIP3    H130992   5.901   4.678   0.373
10349TIP3    H230993   5.795   4.735   0.465
10350TIP3   OH230994   4.546   5.482   2.439
10350TIP3    H130995   4.457   5.473   2.474
10350TIP3    H230996   4.602   5.488   2.516
10351TIP3   OH230997   2.846   0.872   4.138
10351TIP3    H130998   2.775   0.891   4.076
10351TIP3    H230999   2.921   0.852   4.083
10352TIP3   OH231000   2.512   1.851   4.633
10352TIP3    H131001   2.549   1.928   4.589
10352TIP3    H231002   2.589   1.800   4.661
10353TIP3   OH231003   3.760   6.209   4.733
10353TIP3    H131004   3.670   6.212   4.700
10353TIP3    H231005   3.787   6.301   4.735
10354TIP3   OH231006   2.469   5.420   3.384
10354TIP3    H131007   2.426   5.504   3.402
10354TIP3    H231008   2.397   5.357   3.385
10355TIP3   OH231009   7.037   5.146   1.598
10355TIP3    H131010   6.998   5.178   1.517
10355TIP3    H231011   7.118   5.196   1.607
10356TIP3   OH231012   3.224   3.440   0.593
10356TIP3    H131013   3.226   3.536   0.586
10356TIP3    H231014   3.139   3.421   0.634
10357TIP3   OH231015   4.604   3.270   5.943
10357TIP3    H131016   4.601   3.207   5.871
10357TIP3    H231017   4.632   3.218   6.019
10358TIP3   OH231018   2.963   3.082   1.134
10358TIP3    H131019   2.874   3.045   1.141
10358TIP3    H231020   2.972   3.137   1.212
10359TIP3   OH231021   2.370   7.163   0.144
10359TIP3    H131022   2.287   7.131   0.180
10359TIP3    H231023   2.428   7.168   0.220
10360TIP3   OH231024   2.969   6.742   5.672
10360TIP3    H131025   2.897   6.775   5.725
10360TIP3    H231026   2.939   6.754   5.582
10361TIP3   OH231027   3.713   3.198   0.953
10361TIP3    H131028   3.807   3.185   0.942
10361TIP3    H231029   3.678   3.193   0.863
10362TIP3   OH231030   6.117   1.024   5.126
10362TIP3    H131031   6.041   0.977   5.092
10362TIP3    H231032   6.150   0.969   5.197
10363TIP3   OH231033   3.894   7.782   0.910
10363TIP3    H131034   3.852   7.789   0.996
10363TIP3    H231035   3.847   7.711   0.867
10364TIP3   OH231036   6.660   2.163   5.883
10364TIP3    H131037   6.636   2.086   5.831
10364TIP3    H231038   6.647   2.237   5.824
10365TIP3   OH231039   0.949   5.252   4.557
10365TIP3    H131040   0.889   5.323   4.579
10365TIP3    H231041   0.895   5.173   4.561
10366TIP3   OH231042   3.305   3.605   0.987
10366TIP3    H131043   3.339   3.521   0.957
10366TIP3    H231044   3.319   3.604   1.082
10367TIP3   OH231045   7.781   2.960   1.893
10367TIP3    H131046   7.856   2.981   1.949
10367TIP3    H231047   7.817   2.905   1.824
10368TIP3   OH231048   2.592   4.158   2.048
10368TIP3    H131049   2.510   4.182   2.005
10368TIP3    H231050   2.631   4.093   1.990
10369TIP3   OH231051   2.921   6.753   2.806
10369TIP3    H131052   3.002   6.752   2.857
10369TIP3    H231053   2.918   6.841   2.768
10370TIP3   OH231054   6.159   6.629   2.841
10370TIP3    H131055   6.146   6.664   2.929
10370TIP3    H231056   6.070   6.612   2.809
10371TIP3   OH231057   1.056   1.829   1.740
10371TIP3    H131058   1.052   1.925   1.739
10371TIP3    H231059   1.149   1.809   1.747
10372TIP3   OH231060   5.320   4.046   6.259
10372TIP3    H131061   5.291   4.083   6.176
10372TIP3    H231062   5.415   4.038   6.249
10373TIP3   OH231063   7.788   7.039   3.298
10373TIP3    H131064   7.758   7.121   3.258
10373TIP3    H231065   7.723   6.974   3.270
10374TIP3   OH231066   7.375   0.472   6.384
10374TIP3    H131067   7.318   0.430   6.320
10374TIP3    H231068   7.346   0.563   6.386
10375TIP3   OH231069   7.770   3.036   5.093
10375TIP3    H131070   7.721   2.996   5.022
10375TIP3    H231071   7.851   3.066   5.053
10376TIP3   OH231072   1.762   6.880   6.191
10376TIP3    H131073   1.754   6.878   6.096
10376TIP3    H231074   1.675   6.905   6.222
10377TIP3   OH231075   6.510   5.372   4.229
10377TIP3    H131076   6.420   5.405   4.228
10377TIP3    H231077   6.503   5.285   4.269
10378TIP3   OH231078   7.022   1.459   1.341
10378TIP3    H131079   7.046   1.367   1.339
10378TIP3    H231080   7.044   1.487   1.430
10379TIP3   OH231081   1.033   7.693   5.787
10379TIP3    H131082   1.102   7.634   5.816
10379TIP3    H231083   0.998   7.651   5.708
10380TIP3   OH231084   1.840   6.886   4.972
10380TIP3    H131085   1.831   6.960   5.032
10380TIP3    H231086   1.822   6.809   5.026
10381TIP3   OH231087   7.801   4.936   5.732
10381TIP3    H131088   7.803   4.901   5.643
10381TIP3    H231089   7.714   4.914   5.765
10382TIP3   OH231090   2.155   7.010   3.909
10382TIP3    H131091   2.152   7.072   3.836
10382TIP3    H231092   2.243   6.973   3.905
10383TIP3   OH231093   4.787   4.873   3.901
10383TIP3    H131094   4.840   4.929   3.958
10383TIP3    H231095   4.768   4.928   3.825
10384TIP3   OH231096   8.251   3.156   1.022
10384TIP3    H131097   8.267   3.077   1.074
10384TIP3    H231098   8.233   3.124   0.934
10385TIP3   OH231099   4.525   7.675   1.425
10385TIP3    H131100   4.578   7.732   1.481
10385TIP3    H231101   4.577   7.663   1.346
10386TIP3   OH231102   6.753   4.230   3.815
10386TIP3    H131103   6.751   4.324   3.830
10386TIP3    H231104   6.774   4.221   3.722
10387TIP3   OH231105   8.030   4.114   3.076
10387TIP3    H131106   7.983   4.163   3.008
10387TIP3    H231107   8.120   4.111   3.044
10388TIP3   OH231108   0.280   3.514   2.200
10388TIP3    H131109   0.194   3.474   2.208
10388TIP3    H231110   0.279   3.557   2.115
10389TIP3   OH231111   2.974   4.943   2.046
10389TIP3    H131112   3.061   4.947   2.007
10389TIP3    H231113   2.936   4.862   2.010
10390TIP3   OH231114   3.840   6.455   4.011
10390TIP3    H131115   3.919   6.451   4.065
10390TIP3    H231116   3.864   6.512   3.937
10391TIP3   OH231117   2.883   0.520   6.372
10391TIP3    H131118   2.820   0.472   6.319
10391TIP3    H231119   2.873   0.612   6.345
10392TIP3   OH231120   2.280   0.738   0.724
10392TIP3    H131121   2.212   0.804   0.715
10392TIP3    H231122   2.338   0.753   0.649
10393TIP3   OH231123   4.453   1.124   6.643
10393TIP3    H131124   4.419   1.106   6.556
10393TIP3    H231125   4.378   1.115   6.701
10394TIP3   OH231126   2.488   2.223   6.247
10394TIP3    H131127   2.558   2.246   6.309
10394TIP3    H231128   2.511   2.136   6.217
10395TIP3   OH231129   0.883   4.243   4.551
10395TIP3    H131130   0.920   4.263   4.637
10395TIP3    H231131   0.847   4.327   4.521
10396TIP3   OH231132   4.529   1.350   3.190
10396TIP3    H131133   4.484   1.266   3.197
10396TIP3    H231134   4.582   1.343   3.111
10397TIP3   OH231135   5.662   4.450   1.431
10397TIP3    H131136   5.725   4.408   1.372
10397TIP3    H231137   5.692   4.541   1.438
10398TIP3   OH231138   8.192   2.234   6.251
10398TIP3    H131139   8.245   2.243   6.330
10398TIP3    H231140   8.232   2.294   6.189
10399TIP3   OH231141   6.898   7.410   2.303
10399TIP3    H131142   6.927   7.468   2.233
10399TIP3    H231143   6.832   7.460   2.350
10400TIP3   OH231144   7.982   4.679   5.193
10400TIP3    H131145   7.967   4.761   5.239
10400TIP3    H231146   7.965   4.699   5.101
10401TIP3   OH231147   2.020   1.485   6.191
10401TIP3    H131148   2.010   1.488   6.096
10401TIP3    H231149   1.993   1.397   6.215
10402TIP3   OH231150   3.164   3.898   1.802
10402TIP3    H131151   3.133   3.976   1.849
10402TIP3    H231152   3.160   3.828   1.866
10403TIP3   OH231153   7.500   5.940   0.927
10403TIP3    H131154   7.553   5.895   0.992
10403TIP3    H231155   7.427   5.977   0.977
10404TIP3   OH231156   5.053   5.555   4.024
10404TIP3    H131157   5.050   5.579   3.932
10404TIP3    H231158   4.973   5.505   4.039
10405TIP3   OH231159   0.660   7.298   0.186
10405TIP3    H131160   0.689   7.302   0.095
10405TIP3    H231161   0.570   7.330   0.184
10406TIP3   OH231162   3.529   7.188   2.675
10406TIP3    H131163   3.493   7.276   2.666
10406TIP3    H231164   3.624   7.201   2.680
10407TIP3   OH231165   0.036   5.987   2.781
10407TIP3    H131166   0.117   5.961   2.736
10407TIP3    H231167  -0.032   5.934   2.740
10408TIP3   OH231168   5.914   1.324   5.017
10408TIP3    H131169   5.971   1.394   4.984
10408TIP3    H231170   5.890   1.275   4.939
10409TIP3   OH231171   4.564   0.209   3.870
10409TIP3    H131172   4.651   0.170   3.873
10409TIP3    H231173   4.564   0.262   3.790
10410TIP3   OH231174   7.872   5.026   5.262
10410TIP3    H131175   7.802   5.046   5.324
10410TIP3    H231176   7.834   5.042   5.176
10411TIP3   OH231177   3.966   3.106   0.090
10411TIP3    H131178   3.991   3.019   0.059
10411TIP3    H231179   3.872   3.111   0.073
10412TIP3   OH231180   8.240   6.148   6.435
10412TIP3    H131181   8.293   6.228   6.437
10412TIP3    H231182   8.151   6.179   6.449
10413TIP3   OH231183   6.412   3.563   4.877
10413TIP3    H131184   6.493   3.610   4.859
10413TIP3    H231185   6.364   3.566   4.794
10414TIP3   OH231186   1.865   4.953   5.616
10414TIP3    H131187   1.890   5.025   5.558
10414TIP3    H231188   1.899   4.979   5.701
10415TIP3   OH231189   6.496   1.111   1.584
10415TIP3    H131190   6.436   1.037   1.592
10415TIP3    H231191   6.509   1.121   1.489
10416TIP3   OH231192   2.097   1.479   2.785
10416TIP3    H131193   2.165   1.434   2.735
10416TIP3    H231194   2.120   1.464   2.876
10417TIP3   OH231195   2.732   0.363   5.259
10417TIP3    H131196   2.684   0.293   5.216
10417TIP3    H231197   2.742   0.430   5.191
10418TIP3   OH231198   7.701   2.805   3.711
10418TIP3    H131199   7.740   2.879   3.666
10418TIP3    H231200   7.608   2.808   3.686
10419TIP3   OH231201   3.036   7.539   5.022
10419TIP3    H131202   3.024   7.593   5.100
10419TIP3    H231203   3.129   7.545   5.003
10420TIP3   OH231204   5.212   0.197   4.231
10420TIP3    H131205   5.160   0.166   4.305
10420TIP3    H231206   5.166   0.164   4.154
10421TIP3   OH231207   4.941   4.265   2.345
10421TIP3    H131208   4.865   4.221   2.307
10421TIP3    H231209   4.955   4.220   2.429
10422TIP3   OH231210   7.301   5.888   4.819
10422TIP3    H131211   7.391   5.855   4.816
10422TIP3    H231212   7.311   5.983   4.824
10423TIP3   OH231213   6.153   2.631   4.382
10423TIP3    H131214   6.187   2.543   4.400
10423TIP3    H231215   6.188   2.653   4.296
10424TIP3   OH231216   4.457   1.379   0.146
10424TIP3    H131217   4.494   1.292   0.131
10424TIP3    H231218   4.374   1.363   0.191
10425TIP3   OH231219   0.406   6.585   5.354
10425TIP3    H131220   0.410   6.658   5.416
10425TIP3    H231221   0.431   6.508   5.405
10426TIP3   OH231222   0.496   0.256   1.279
10426TIP3    H131223   0.402   0.270   1.267
10426TIP3    H231224   0.508   0.258   1.374
10427TIP3   OH231225   7.464   7.650   4.084
10427TIP3    H131226   7.476   7.736   4.043
10427TIP3    H231227   7.546   7.636   4.132
10428TIP3   OH231228   0.266   7.583   5.781
10428TIP3    H131229   0.327   7.511   5.765
10428TIP3    H231230   0.238   7.611   5.694
10429TIP3   OH231231   8.188   3.725   4.301
10429TIP3    H131232   8.278   3.734   4.270
10429TIP3    H231233   8.165   3.813   4.332
10430TIP3   OH231234   4.604   5.333   1.317
10430TIP3    H131235   4.608   5.300   1.227
10430TIP3    H231236   4.535   5.399   1.315
10431TIP3   OH231237   3.473   3.768   0.808
10431TIP3    H131238   3.486   3.826   0.883
10431TIP3    H231239   3.407   3.705   0.837
10432TIP3   OH231240   7.647   0.404   1.691
10432TIP3    H131241   7.665   0.350   1.767
10432TIP3    H231242   7.698   0.484   1.705
10433TIP3   OH231243   3.211   0.629   0.798
10433TIP3    H131244   3.167   0.605   0.717
10433TIP3    H231245   3.282   0.566   0.807
10434TIP3   OH231246   0.896   2.859   0.344
10434TIP3    H131247   0.847   2.916   0.403
10434TIP3    H231248   0.935   2.793   0.401
10435TIP3   OH231249   8.268   4.814   0.904
10435TIP3    H131250   8.323   4.773   0.971
10435TIP3    H231251   8.330   4.835   0.834
10436TIP3   OH231252   7.365   0.405   6.648
10436TIP3    H131253   7.293   0.454   6.688
10436TIP3    H231254   7.349   0.412   6.554
10437TIP3   OH231255   2.306   3.145   0.651
10437TIP3    H131256   2.293   3.110   0.563
10437TIP3    H231257   2.217   3.156   0.686
10438TIP3   OH231258   7.178   1.592   4.273
10438TIP3    H131259   7.150   1.517   4.220
10438TIP3    H231260   7.157   1.669   4.220
10439TIP3   OH231261   1.419   2.651   6.718
10439TIP3    H131262   1.417   2.741   6.749
10439TIP3    H231263   1.346   2.608   6.763
10440TIP3   OH231264   2.311   7.392   0.516
10440TIP3    H131265   2.260   7.448   0.575
10440TIP3    H231266   2.402   7.409   0.541
10441TIP3   OH231267   0.486   7.645   0.346
10441TIP3    H131268   0.434   7.569   0.319
10441TIP3    H231269   0.493   7.698   0.266
10442TIP3   OH231270   7.791   6.508   0.218
10442TIP3    H131271   7.776   6.425   0.263
10442TIP3    H231272   7.784   6.575   0.287
10443TIP3   OH231273   1.638   0.265   2.153
10443TIP3    H131274   1.672   0.229   2.235
10443TIP3    H231275   1.669   0.204   2.086
10444TIP3   OH231276   2.592   1.634   6.270
10444TIP3    H131277   2.679   1.660   6.299
10444TIP3    H231278   2.606   1.584   6.190
10445TIP3   OH231279   2.437   6.178   4.508
10445TIP3    H131280   2.384   6.189   4.587
10445TIP3    H231281   2.499   6.251   4.512
10446TIP3   OH231282   5.129   0.175   6.094
10446TIP3    H131283   5.081   0.092   6.097
10446TIP3    H231284   5.185   0.173   6.171
10447TIP3   OH231285   6.557   2.315   0.669
10447TIP3    H131286   6.532   2.403   0.696
10447TIP3    H231287   6.519   2.258   0.736
10448TIP3   OH231288   0.050   0.867   0.197
10448TIP3    H131289   0.041   0.816   0.116
10448TIP3    H231290   0.135   0.909   0.189
10449TIP3   OH231291   7.560   6.289   4.414
10449TIP3    H131292   7.646   6.325   4.436
10449TIP3    H231293   7.573   6.243   4.332
10450TIP3   OH231294   1.869   7.370   5.715
10450TIP3    H131295   1.943   7.317   5.685
10450TIP3    H231296   1.874   7.367   5.811
10451TIP3   OH231297   7.548   6.904   2.707
10451TIP3    H131298   7.622   6.847   2.690
10451TIP3    H231299   7.485   6.882   2.639
10452TIP3   OH231300   7.651   0.942   2.926
10452TIP3    H131301   7.695   0.925   2.843
10452TIP3    H231302   7.564   0.972   2.901
10453TIP3   OH231303   0.221   4.990   3.505
10453TIP3    H131304   0.312   4.997   3.534
10453TIP3    H231305   0.224   5.007   3.411
10454TIP3   OH231306   5.980   2.725   1.251
10454TIP3    H131307   6.011   2.648   1.299
10454TIP3    H231308   6.047   2.741   1.185
10455TIP3   OH231309   0.603   1.257   2.645
10455TIP3    H131310   0.684   1.210   2.625
10455TIP3    H231311   0.540   1.188   2.663
10456TIP3   OH231312   7.296   4.810   0.143
10456TIP3    H131313   7.210   4.839   0.175
10456TIP3    H231314   7.275   4.762   0.063
10457TIP3   OH231315   6.801   6.849   6.384
10457TIP3    H131316   6.814   6.847   6.290
10457TIP3    H231317   6.731   6.786   6.400
10458TIP3   OH231318   2.531   1.083   6.169
10458TIP3    H131319   2.476   1.160   6.186
10458TIP3    H231320   2.469   1.014   6.146
10459TIP3   OH231321   7.290   7.585   6.409
10459TIP3    H131322   7.283   7.620   6.498
10459TIP3    H231323   7.376   7.545   6.405
10460TIP3   OH231324   7.344   4.456   1.255
10460TIP3    H131325   7.389   4.404   1.187
10460TIP3    H231326   7.328   4.540   1.214
10461TIP3   OH231327   3.360   0.824   3.567
10461TIP3    H131328   3.294   0.881   3.606
10461TIP3    H231329   3.366   0.750   3.627
10462TIP3   OH231330   5.132   4.576   3.521
10462TIP3    H131331   5.138   4.489   3.560
10462TIP3    H231332   5.083   4.628   3.584
10463TIP3   OH231333   7.997   3.431   5.001
10463TIP3    H131334   7.994   3.518   4.962
10463TIP3    H231335   8.014   3.447   5.094
10464TIP3   OH231336   3.483   7.778   6.008
10464TIP3    H131337   3.550   7.711   6.014
10464TIP3    H231338   3.510   7.833   5.934
10465TIP3   OH231339   0.203   4.412   1.447
10465TIP3    H131340   0.241   4.344   1.503
10465TIP3    H231341   0.134   4.451   1.501
10466TIP3   OH231342   1.814   3.669   2.108
10466TIP3    H131343   1.840   3.650   2.198
10466TIP3    H231344   1.836   3.589   2.060
10467TIP3   OH231345   7.371   3.961   4.262
10467TIP3    H131346   7.449   3.989   4.213
10467TIP3    H231347   7.405   3.936   4.348
10468TIP3   OH231348   5.795   6.744   3.154
10468TIP3    H131349   5.835   6.727   3.069
10468TIP3    H231350   5.841   6.686   3.214
10469TIP3   OH231351   6.938   5.659   3.238
10469TIP3    H131352   7.030   5.638   3.225
10469TIP3    H231353   6.907   5.594   3.301
10470TIP3   OH231354   7.867   3.977   4.737
10470TIP3    H131355   7.836   3.901   4.688
10470TIP3    H231356   7.944   4.007   4.689
10471TIP3   OH231357   3.204   5.000   0.251
10471TIP3    H131358   3.172   4.970   0.166
10471TIP3    H231359   3.150   4.954   0.315
10472TIP3   OH231360   0.396   4.749   1.505
10472TIP3    H131361   0.344   4.815   1.460
10472TIP3    H231362   0.484   4.785   1.509
10473TIP3   OH231363   0.892   4.364   3.841
10473TIP3    H131364   0.855   4.279   3.817
10473TIP3    H231365   0.890   4.364   3.937
10474TIP3   OH231366   2.729   4.583   5.405
10474TIP3    H131367   2.776   4.556   5.484
10474TIP3    H231368   2.638   4.559   5.421
10475TIP3   OH231369   4.501   1.712   2.634
10475TIP3    H131370   4.437   1.709   2.705
10475TIP3    H231371   4.529   1.621   2.623
10476TIP3   OH231372   3.078   5.807   1.049
10476TIP3    H131373   3.099   5.901   1.047
10476TIP3    H231374   3.087   5.783   1.141
10477TIP3   OH231375   6.557   5.779   4.290
10477TIP3    H131376   6.615   5.714   4.250
10477TIP3    H231377   6.522   5.734   4.368
10478TIP3   OH231378   5.896   3.815   4.284
10478TIP3    H131379   5.927   3.816   4.374
10478TIP3    H231380   5.801   3.808   4.292
10479TIP3   OH231381   1.172   7.502   6.603
10479TIP3    H131382   1.208   7.562   6.668
10479TIP3    H231383   1.204   7.535   6.519
10480TIP3   OH231384   6.708   3.491   5.096
10480TIP3    H131385   6.641   3.545   5.137
10480TIP3    H231386   6.775   3.479   5.164
10481TIP3   OH231387   3.157   2.430   4.814
10481TIP3    H131388   3.084   2.372   4.793
10481TIP3    H231389   3.181   2.407   4.904
10482TIP3   OH231390   1.537   1.411   1.411
10482TIP3    H131391   1.458   1.462   1.430
10482TIP3    H231392   1.512   1.321   1.430
10483TIP3   OH231393   5.552   0.522   4.978
10483TIP3    H131394   5.573   0.555   4.891
10483TIP3    H231395   5.586   0.433   4.979
10484TIP3   OH231396   8.285   5.597   2.484
10484TIP3    H131397   8.365   5.554   2.515
10484TIP3    H231398   8.268   5.556   2.399
10485TIP3   OH231399   7.850   3.680   5.128
10485TIP3    H131400   7.917   3.626   5.171
10485TIP3    H231401   7.767   3.642   5.158
10486TIP3   OH231402   2.362   7.797   1.967
10486TIP3    H131403   2.296   7.728   1.974
10486TIP3    H231404   2.421   7.782   2.041
10487TIP3   OH231405   5.161   5.211   5.504
10487TIP3    H131406   5.126   5.179   5.588
10487TIP3    H231407   5.237   5.263   5.529
10488TIP3   OH231408   3.771   1.558   5.742
10488TIP3    H131409   3.698   1.499   5.724
10488TIP3    H231410   3.764   1.577   5.835
10489TIP3   OH231411   2.949   5.853   1.725
10489TIP3    H131412   2.878   5.828   1.783
10489TIP3    H231413   2.966   5.775   1.672
10490TIP3   OH231414   4.678   3.492   5.710
10490TIP3    H131415   4.646   3.517   5.796
10490TIP3    H231416   4.647   3.402   5.698
10491TIP3   OH231417   7.339   4.676   1.692
10491TIP3    H131418   7.350   4.729   1.613
10491TIP3    H231419   7.298   4.595   1.661
10492TIP3   OH231420   2.328   2.808   5.135
10492TIP3    H131421   2.370   2.750   5.071
10492TIP3    H231422   2.398   2.831   5.196
10493TIP3   OH231423   3.348   3.878   6.369
10493TIP3    H131424   3.297   3.907   6.294
10493TIP3    H231425   3.291   3.818   6.416
10494TIP3   OH231426   0.090   1.444   4.067
10494TIP3    H131427   0.109   1.390   4.144
10494TIP3    H231428  -0.004   1.434   4.053
10495TIP3   OH231429   7.243   7.222   4.853
10495TIP3    H131430   7.254   7.275   4.932
10495TIP3    H231431   7.313   7.157   4.857
10496TIP3   OH231432   5.441   0.135   4.376
10496TIP3    H131433   5.430   0.040   4.382
10496TIP3    H231434   5.375   0.164   4.314
10497TIP3   OH231435   3.444   5.915   0.360
10497TIP3    H131436   3.503   5.963   0.302
10497TIP3    H231437   3.472   5.824   0.354
10498TIP3   OH231438   0.435   5.659   5.057
10498TIP3    H131439   0.503   5.619   5.112
10498TIP3    H231440   0.428   5.749   5.090
10499TIP3   OH231441   3.936   3.632   4.157
10499TIP3    H131442   3.947   3.674   4.071
10499TIP3    H231443   3.869   3.565   4.143
10500TIP3   OH231444   1.008   1.983   5.462
10500TIP3    H131445   1.091   2.016   5.428
10500TIP3    H231446   0.974   2.055   5.516
10501TIP3   OH231447   6.263   5.075   6.292
10501TIP3    H131448   6.254   5.171   6.295
10501TIP3    H231449   6.349   5.058   6.331
10502TIP3   OH231450   0.651   6.797   3.912
10502TIP3    H131451   0.695   6.795   3.827
10502TIP3    H231452   0.573   6.850   3.898
10503TIP3   OH231453   6.841   6.802   2.783
10503TIP3    H131454   6.838   6.873   2.719
10503TIP3    H231455   6.918   6.821   2.836
10504TIP3   OH231456   1.635   5.833   0.613
10504TIP3    H131457   1.686   5.802   0.688
10504TIP3    H231458   1.699   5.874   0.555
10505TIP3   OH231459   4.793   7.297   0.469
10505TIP3    H131460   4.753   7.376   0.505
10505TIP3    H231461   4.821   7.322   0.382
10506TIP3   OH231462   3.314   4.776   1.824
10506TIP3    H131463   3.405   4.806   1.819
10506TIP3    H231464   3.268   4.850   1.864
10507TIP3   OH231465   8.106   6.871   4.610
10507TIP3    H131466   8.128   6.934   4.679
10507TIP3    H231467   8.020   6.837   4.635
10508TIP3   OH231468   2.899   4.334   1.354
10508TIP3    H131469   2.867   4.398   1.290
10508TIP3    H231470   2.846   4.351   1.432
10509TIP3   OH231471   2.521   4.854   4.439
10509TIP3    H131472   2.598   4.797   4.435
10509TIP3    H231473   2.452   4.805   4.395
10510TIP3   OH231474   1.403   5.778   2.292
10510TIP3    H131475   1.450   5.839   2.235
10510TIP3    H231476   1.473   5.732   2.339
10511TIP3   OH231477   4.982   5.502   1.789
10511TIP3    H131478   5.039   5.450   1.732
10511TIP3    H231479   4.905   5.446   1.802
10512TIP3   OH231480   0.379   1.148   4.648
10512TIP3    H131481   0.375   1.243   4.661
10512TIP3    H231482   0.471   1.131   4.626
10513TIP3   OH231483   8.108   7.240   4.689
10513TIP3    H131484   8.120   7.168   4.751
10513TIP3    H231485   8.103   7.197   4.604
10514TIP3   OH231486   6.853   0.260   1.635
10514TIP3    H131487   6.936   0.284   1.592
10514TIP3    H231488   6.851   0.313   1.715
10515TIP3   OH231489   1.969   6.505   0.895
10515TIP3    H131490   1.934   6.435   0.839
10515TIP3    H231491   2.042   6.541   0.844
10516TIP3   OH231492   4.234   5.081   6.433
10516TIP3    H131493   4.325   5.063   6.412
10516TIP3    H231494   4.201   4.999   6.468
10517TIP3   OH231495   5.398   1.763   3.667
10517TIP3    H131496   5.335   1.789   3.734
10517TIP3    H231497   5.457   1.703   3.713
10518TIP3   OH231498   2.526   1.683   0.077
10518TIP3    H131499   2.527   1.610   0.014
10518TIP3    H231500   2.467   1.747   0.038
10519TIP3   OH231501   5.896   2.660   4.856
10519TIP3    H131502   5.979   2.614   4.853
10519TIP3    H231503   5.907   2.734   4.796
10520TIP3   OH231504   6.295   1.324   6.088
10520TIP3    H131505   6.245   1.244   6.103
10520TIP3    H231506   6.296   1.335   5.993
10521TIP3   OH231507   3.982   5.730   0.553
10521TIP3    H131508   3.969   5.707   0.644
10521TIP3    H231509   3.976   5.826   0.551
10522TIP3   OH231510   8.008   3.755   2.581
10522TIP3    H131511   8.054   3.745   2.665
10522TIP3    H231512   7.951   3.831   2.595
10523TIP3   OH231513   1.368   1.038   6.130
10523TIP3    H131514   1.340   1.128   6.118
10523TIP3    H231515   1.454   1.045   6.172
10524TIP3   OH231516   3.667   7.774   3.114
10524TIP3    H131517   3.580   7.763   3.077
10524TIP3    H231518   3.654   7.766   3.209
10525TIP3   OH231519   1.870   4.184   4.092
10525TIP3    H131520   1.792   4.180   4.148
10525TIP3    H231521   1.838   4.215   4.008
10526TIP3   OH231522   2.199   6.596   5.401
10526TIP3    H131523   2.220   6.620   5.491
10526TIP3    H231524   2.157   6.674   5.364
10527TIP3   OH231525   7.173   0.037   5.031
10527TIP3    H131526   7.198  -0.047   5.070
10527TIP3    H231527   7.250   0.065   4.982
10528TIP3   OH231528   3.303   1.758   5.066
10528TIP3    H131529   3.296   1.848   5.034
10528TIP3    H231530   3.385   1.725   5.027
10529TIP3   OH231531   4.510   3.974   1.962
10529TIP3    H131532   4.567   4.025   2.020
10529TIP3    H231533   4.511   3.886   1.998
10530TIP3   OH231534   5.422   6.129   0.832
10530TIP3    H131535   5.391   6.205   0.784
10530TIP3    H231536   5.514   6.122   0.809
10531TIP3   OH231537   4.977   3.924   2.179
10531TIP3    H131538   4.931   3.855   2.131
10531TIP3    H231539   4.914   3.995   2.185
10532TIP3   OH231540   4.158   2.295   4.144
10532TIP3    H131541   4.153   2.390   4.141
10532TIP3    H231542   4.185   2.275   4.233
10533TIP3   OH231543   7.615   0.349   6.542
10533TIP3    H131544   7.610   0.380   6.452
10533TIP3    H231545   7.559   0.409   6.592
10534TIP3   OH231546   7.809   7.762   2.524
10534TIP3    H131547   7.896   7.748   2.485
10534TIP3    H231548   7.752   7.701   2.477
10535TIP3   OH231549   4.125   2.922   6.457
10535TIP3    H131550   4.122   2.829   6.475
10535TIP3    H231551   4.043   2.941   6.410
10536TIP3   OH231552   1.466   2.115   0.577
10536TIP3    H131553   1.412   2.135   0.501
10536TIP3    H231554   1.483   2.200   0.617
10537TIP3   OH231555   4.136   3.090   4.230
10537TIP3    H131556   4.128   3.155   4.161
10537TIP3    H231557   4.092   3.012   4.196
10538TIP3   OH231558   3.193   6.937   1.099
10538TIP3    H131559   3.203   7.004   1.032
10538TIP3    H231560   3.229   6.977   1.179
10539TIP3   OH231561   4.895   2.379   4.797
10539TIP3    H131562   4.856   2.467   4.805
10539TIP3    H231563   4.917   2.354   4.887
10540TIP3   OH231564   6.124   1.562   6.499
10540TIP3    H131565   6.036   1.539   6.469
10540TIP3    H231566   6.149   1.492   6.559
10541TIP3   OH231567   0.139   2.823   6.625
10541TIP3    H131568   0.113   2.738   6.661
10541TIP3    H231569   0.198   2.801   6.553
10542TIP3   OH231570   2.638   0.947   3.312
10542TIP3    H131571   2.641   1.021   3.372
10542TIP3    H231572   2.657   0.871   3.366
10543TIP3   OH231573   5.211   6.509   4.179
10543TIP3    H131574   5.225   6.443   4.112
10543TIP3    H231575   5.230   6.464   4.262
10544TIP3   OH231576   7.201   0.663   4.162
10544TIP3    H131577   7.173   0.691   4.075
10544TIP3    H231578   7.145   0.588   4.183
10545TIP3   OH231579   4.436   5.267   2.178
10545TIP3    H131580   4.514   5.321   2.189
10545TIP3    H231581   4.401   5.256   2.266
10546TIP3   OH231582   3.119   6.019   5.434
10546TIP3    H131583   3.032   6.047   5.407
10546TIP3    H231584   3.178   6.085   5.398
10547TIP3   OH231585   1.415   1.140   2.039
10547TIP3    H131586   1.376   1.195   2.107
10547TIP3    H231587   1.490   1.099   2.082
10548TIP3   OH231588   1.892   3.785   1.849
10548TIP3    H131589   1.942   3.867   1.843
10548TIP3    H231590   1.837   3.797   1.927
10549TIP3   OH231591   5.163   7.311   1.235
10549TIP3    H131592   5.213   7.389   1.211
10549TIP3    H231593   5.213   7.272   1.307
10550TIP3   OH231594   6.853   7.351   3.553
10550TIP3    H131595   6.885   7.379   3.467
10550TIP3    H231596   6.807   7.269   3.535
10551TIP3   OH231597   5.798   1.402   3.554
10551TIP3    H131598   5.846   1.482   3.575
10551TIP3    H231599   5.799   1.351   3.636
10552TIP3   OH231600   4.656   3.926   2.529
10552TIP3    H131601   4.719   3.980   2.481
10552TIP3    H231602   4.707   3.852   2.561
10553TIP3   OH231603   5.220   7.276   5.591
10553TIP3    H131604   5.227   7.246   5.681
10553TIP3    H231605   5.291   7.339   5.581
10554TIP3   OH231606   4.337   7.808   3.620
10554TIP3    H131607   4.260   7.754   3.637
10554TIP3    H231608   4.392   7.797   3.697
10555TIP3   OH231609   2.573   7.261   1.953
10555TIP3    H131610   2.629   7.257   1.876
10555TIP3    H231611   2.503   7.321   1.929
10556TIP3   OH231612   6.839   4.709   2.344
10556TIP3    H131613   6.761   4.734   2.394
10556TIP3    H231614   6.804   4.662   2.268
10557TIP3   OH231615   1.817   3.060   1.767
10557TIP3    H131616   1.875   2.997   1.810
10557TIP3    H231617   1.874   3.131   1.741
10558TIP3   OH231618   2.288   0.581   2.540
10558TIP3    H131619   2.302   0.512   2.605
10558TIP3    H231620   2.193   0.582   2.526
10559TIP3   OH231621   0.453   5.826   5.460
10559TIP3    H131622   0.372   5.815   5.410
10559TIP3    H231623   0.467   5.742   5.503
10560TIP3   OH231624   2.807   5.781   1.947
10560TIP3    H131625   2.786   5.776   2.041
10560TIP3    H231626   2.776   5.698   1.912
10561TIP3   OH231627   2.043   0.116   2.283
10561TIP3    H131628   2.061   0.106   2.189
10561TIP3    H231629   2.076   0.035   2.323
10562TIP3   OH231630   6.134   5.987   0.782
10562TIP3    H131631   6.226   6.008   0.767
10562TIP3    H231632   6.089   6.071   0.773
10563TIP3   OH231633   1.183   0.025   6.123
10563TIP3    H131634   1.105   0.036   6.177
10563TIP3    H231635   1.157  -0.036   6.054
10564TIP3   OH231636   0.261   2.517   2.875
10564TIP3    H131637   0.326   2.580   2.907
10564TIP3    H231638   0.206   2.500   2.951
10565TIP3   OH231639   6.457   1.232   4.912
10565TIP3    H131640   6.480   1.265   4.825
10565TIP3    H231641   6.527   1.171   4.934
10566TIP3   OH231642   0.744   0.923   4.407
10566TIP3    H131643   0.833   0.893   4.388
10566TIP3    H231644   0.691   0.889   4.334
10567TIP3   OH231645   3.273   4.601   5.331
10567TIP3    H131646   3.208   4.547   5.376
10567TIP3    H231647   3.227   4.638   5.257
10568TIP3   OH231648   0.874   5.980   0.946
10568TIP3    H131649   0.840   5.899   0.983
10568TIP3    H231650   0.957   5.955   0.904
10569TIP3   OH231651   8.239   7.310   5.404
10569TIP3    H131652   8.296   7.341   5.333
10569TIP3    H231653   8.287   7.329   5.484
10570TIP3   OH231654   3.090   6.773   5.158
10570TIP3    H131655   3.065   6.856   5.118
10570TIP3    H231656   3.163   6.742   5.105
10571TIP3   OH231657   1.815   6.068   5.322
10571TIP3    H131658   1.828   6.060   5.416
10571TIP3    H231659   1.724   6.041   5.308
10572TIP3   OH231660   0.635   4.678   3.956
10572TIP3    H131661   0.649   4.588   3.927
10572TIP3    H231662   0.710   4.726   3.921
10573TIP3   OH231663   2.374   2.348   4.275
10573TIP3    H131664   2.446   2.399   4.311
10573TIP3    H231665   2.416   2.290   4.212
10574TIP3   OH231666   0.064   7.766   2.512
10574TIP3    H131667   0.055   7.796   2.602
10574TIP3    H231668   0.142   7.710   2.514
10575TIP3   OH231669   5.801   5.949   6.472
10575TIP3    H131670   5.746   5.922   6.398
10575TIP3    H231671   5.748   6.014   6.518
10576TIP3   OH231672   0.281   1.081   5.107
10576TIP3    H131673   0.348   1.128   5.057
10576TIP3    H231674   0.222   1.046   5.040
10577TIP3   OH231675   6.519   0.591   3.697
10577TIP3    H131676   6.452   0.523   3.701
10577TIP3    H231677   6.600   0.547   3.723
10578TIP3   OH231678   6.595   0.822   0.368
10578TIP3    H131679   6.667   0.885   0.371
10578TIP3    H231680   6.619   0.754   0.431
10579TIP3   OH231681   0.511   2.973   5.961
10579TIP3    H131682   0.461   2.991   5.881
10579TIP3    H231683   0.529   2.879   5.957
10580TIP3   OH231684   6.405   3.764   1.357
10580TIP3    H131685   6.331   3.760   1.296
10580TIP3    H231686   6.365   3.756   1.444
10581TIP3   OH231687   0.757   1.484   2.985
10581TIP3    H131688   0.773   1.393   2.963
10581TIP3    H231689   0.840   1.515   3.019
10582TIP3   OH231690   1.611   0.355   1.288
10582TIP3    H131691   1.687   0.296   1.287
10582TIP3    H231692   1.644   0.435   1.329
10583TIP3   OH231693   3.724   4.532   6.447
10583TIP3    H131694   3.717   4.628   6.448
10583TIP3    H231695   3.705   4.508   6.356
10584TIP3   OH231696   4.020   0.282   1.896
10584TIP3    H131697   3.958   0.281   1.824
10584TIP3    H231698   3.998   0.205   1.948
10585TIP3   OH231699   6.202   7.527   3.650
10585TIP3    H131700   6.242   7.463   3.590
10585TIP3    H231701   6.117   7.546   3.611
10586TIP3   OH231702   7.926   0.577   4.040
10586TIP3    H131703   7.901   0.528   3.962
10586TIP3    H231704   8.018   0.600   4.025
10587TIP3   OH231705   4.633   2.399   0.609
10587TIP3    H131706   4.545   2.396   0.648
10587TIP3    H231707   4.673   2.316   0.633
10588TIP3   OH231708   1.899   0.230   0.635
10588TIP3    H131709   1.808   0.205   0.617
10588TIP3    H231710   1.943   0.220   0.550
10589TIP3   OH231711   3.936   0.610   5.884
10589TIP3    H131712   3.902   0.530   5.844
10589TIP3    H231713   4.005   0.639   5.823
10590TIP3   OH231714   7.643   0.876   1.930
10590TIP3    H131715   7.554   0.896   1.901
10590TIP3    H231716   7.661   0.789   1.895
10591TIP3   OH231717   2.620   0.148   4.351
10591TIP3    H131718   2.642   0.128   4.442
10591TIP3    H231719   2.539   0.199   4.357
10592TIP3   OH231720   6.847   5.543   2.963
10592TIP3    H131721   6.808   5.591   2.889
10592TIP3    H231722   6.891   5.610   3.015
10593TIP3   OH231723   3.376   4.885   3.170
10593TIP3    H131724   3.388   4.920   3.258
10593TIP3    H231725   3.297   4.929   3.137
10594TIP3   OH231726   1.432   4.096   3.303
10594TIP3    H131727   1.515   4.144   3.305
10594TIP3    H231728   1.365   4.163   3.314
10595TIP3   OH231729   2.754   0.601   5.587
10595TIP3    H131730   2.844   0.613   5.556
10595TIP3    H231731   2.757   0.624   5.680
10596TIP3   OH231732   1.339   7.420   3.694
10596TIP3    H131733   1.324   7.326   3.702
10596TIP3    H231734   1.252   7.459   3.701
10597TIP3   OH231735   6.700   4.568   4.320
10597TIP3    H131736   6.781   4.567   4.371
10597TIP3    H231737   6.689   4.659   4.294
10598TIP3   OH231738   7.427   3.976   0.750
10598TIP3    H131739   7.398   3.987   0.841
10598TIP3    H231740   7.460   4.063   0.726
10599TIP3   OH231741   3.505   1.462   3.344
10599TIP3    H131742   3.538   1.441   3.431
10599TIP3    H231743   3.438   1.529   3.359
10600TIP3   OH231744   4.296   6.089   0.564
10600TIP3    H131745   4.370   6.148   0.577
10600TIP3    H231746   4.336   6.004   0.545
10601TIP3   OH231747   7.081   0.348   6.458
10601TIP3    H131748   7.054   0.266   6.499
10601TIP3    H231749   7.102   0.406   6.531
10602TIP3   OH231750   3.088   6.440   1.110
10602TIP3    H131751   3.003   6.445   1.066
10602TIP3    H231752   3.127   6.526   1.096
10603TIP3   OH231753   1.067   6.119   0.080
10603TIP3    H131754   1.132   6.164   0.027
10603TIP3    H231755   1.090   6.026   0.073
10604TIP3   OH231756   8.122   3.899   0.558
10604TIP3    H131757   8.066   3.839   0.607
10604TIP3    H231758   8.167   3.950   0.626
10605TIP3   OH231759   2.345   3.640   6.227
10605TIP3    H131760   2.411   3.571   6.236
10605TIP3    H231761   2.353   3.692   6.307
10606TIP3   OH231762   2.037   1.127   5.510
10606TIP3    H131763   2.036   1.041   5.470
10606TIP3    H231764   2.127   1.158   5.499
10607TIP3   OH231765   4.866   1.809   4.489
10607TIP3    H131766   4.906   1.829   4.573
10607TIP3    H231767   4.807   1.882   4.472
10608TIP3   OH231768   2.150   0.735   4.161
10608TIP3    H131769   2.142   0.782   4.078
10608TIP3    H231770   2.080   0.771   4.215
10609TIP3   OH231771   3.007   2.129   4.271
10609TIP3    H131772   3.044   2.057   4.321
10609TIP3    H231773   2.912   2.114   4.273
10610TIP3   OH231774   7.220   7.294   5.296
10610TIP3    H131775   7.157   7.355   5.258
10610TIP3    H231776   7.295   7.297   5.237
10611TIP3   OH231777   0.284   4.849   4.848
10611TIP3    H131778   0.245   4.766   4.877
10611TIP3    H231779   0.250   4.861   4.759
10612TIP3   OH231780   7.250   4.137   3.694
10612TIP3    H131781   7.306   4.070   3.732
10612TIP3    H231782   7.174   4.141   3.752
10613TIP3   OH231783   0.027   7.403   1.982
10613TIP3    H131784   0.082   7.363   1.914
10613TIP3    H231785  -0.002   7.485   1.942
10614TIP3   OH231786   2.498   2.708   1.339
10614TIP3    H131787   2.489   2.638   1.275
10614TIP3    H231788   2.579   2.688   1.385
10615TIP3   OH231789   2.583   5.985   4.388
10615TIP3    H131790   2.534   6.046   4.443
10615TIP3    H231791   2.578   5.901   4.435
10616TIP3   OH231792   8.294   2.049   3.620
10616TIP3    H131793   8.308   2.127   3.675
10616TIP3    H231794   8.203   2.025   3.636
10617TIP3   OH231795   1.191   6.628   3.161
10617TIP3    H131796   1.145   6.706   3.192
10617TIP3    H231797   1.168   6.559   3.224
10618TIP3   OH231798   0.430   5.562   1.863
10618TIP3    H131799   0.344   5.542   1.826
10618TIP3    H231800   0.455   5.644   1.820
10619TIP3   OH231801   2.416   6.014   4.844
10619TIP3    H131802   2.358   6.065   4.787
10619TIP3    H231803   2.500   6.062   4.842
10620TIP3   OH231804   7.201   3.530   6.300
10620TIP3    H131805   7.167   3.514   6.388
10620TIP3    H231806   7.293   3.506   6.305
10621TIP3   OH231807   5.211   7.595   4.572
10621TIP3    H131808   5.243   7.504   4.572
10621TIP3    H231809   5.160   7.602   4.652
10622TIP3   OH231810   2.056   3.694   6.551
10622TIP3    H131811   1.997   3.766   6.575
10622TIP3    H231812   2.119   3.689   6.623
10623TIP3   OH231813   0.382   4.645   2.350
10623TIP3    H131814   0.352   4.736   2.349
10623TIP3    H231815   0.304   4.593   2.369
10624TIP3   OH231816   3.537   7.300   4.205
10624TIP3    H131817   3.477   7.375   4.207
10624TIP3    H231818   3.509   7.244   4.277
10625TIP3   OH231819   5.640   1.844   6.511
10625TIP3    H131820   5.666   1.917   6.566
10625TIP3    H231821   5.656   1.766   6.565
10626TIP3   OH231822   7.502   7.059   4.484
10626TIP3    H131823   7.525   6.982   4.537
10626TIP3    H231824   7.416   7.040   4.449
10627TIP3   OH231825   1.489   5.294   5.247
10627TIP3    H131826   1.542   5.322   5.173
10627TIP3    H231827   1.440   5.372   5.273
10628TIP3   OH231828   5.728   3.248   5.208
10628TIP3    H131829   5.763   3.190   5.276
10628TIP3    H231830   5.745   3.202   5.126
10629TIP3   OH231831   2.441   5.430   2.633
10629TIP3    H131832   2.493   5.503   2.666
10629TIP3    H231833   2.404   5.389   2.711
10630TIP3   OH231834   0.601   7.632   5.828
10630TIP3    H131835   0.674   7.639   5.889
10630TIP3    H231836   0.574   7.540   5.834
10631TIP3   OH231837   2.003   1.870   2.590
10631TIP3    H131838   1.984   1.910   2.675
10631TIP3    H231839   2.045   1.939   2.539
10632TIP3   OH231840   2.716   0.977   1.824
10632TIP3    H131841   2.647   0.960   1.761
10632TIP3    H231842   2.784   0.913   1.804
10633TIP3   OH231843   1.167   7.541   2.274
10633TIP3    H131844   1.082   7.528   2.232
10633TIP3    H231845   1.154   7.513   2.365
10634TIP3   OH231846   7.589   7.359   2.327
10634TIP3    H131847   7.553   7.270   2.321
10634TIP3    H231848   7.565   7.388   2.415
10635TIP3   OH231849   3.710   6.297   4.387
10635TIP3    H131850   3.714   6.386   4.353
10635TIP3    H231851   3.647   6.252   4.331
10636TIP3   OH231852   4.788   7.711   3.015
10636TIP3    H131853   4.707   7.699   3.063
10636TIP3    H231854   4.789   7.640   2.951
10637TIP3   OH231855   1.812   1.136   0.534
10637TIP3    H131856   1.723   1.163   0.559
10637TIP3    H231857   1.823   1.051   0.578
10638TIP3   OH231858   4.444   7.457   6.585
10638TIP3    H131859   4.383   7.416   6.523
10638TIP3    H231860   4.519   7.483   6.531
10639TIP3   OH231861   5.080   7.215   2.052
10639TIP3    H131862   5.059   7.122   2.063
10639TIP3    H231863   5.110   7.222   1.961
10640TIP3   OH231864   5.406   0.403   3.650
10640TIP3    H131865   5.401   0.447   3.565
10640TIP3    H231866   5.318   0.369   3.665
10641TIP3   OH231867   0.301   7.588   2.281
10641TIP3    H131868   0.242   7.524   2.241
10641TIP3    H231869   0.256   7.617   2.360
10642TIP3   OH231870   3.550   0.188   6.465
10642TIP3    H131871   3.473   0.140   6.495
10642TIP3    H231872   3.546   0.272   6.510
10643TIP3   OH231873   5.046   1.453   4.038
10643TIP3    H131874   5.076   1.461   3.947
10643TIP3    H231875   4.972   1.391   4.033
10644TIP3   OH231876   2.447   5.395   6.691
10644TIP3    H131877   2.463   5.405   6.597
10644TIP3    H231878   2.533   5.383   6.730
10645TIP3   OH231879   6.191   1.932   4.897
10645TIP3    H131880   6.230   2.017   4.917
10645TIP3    H231881   6.257   1.887   4.844
10646TIP3   OH231882   4.008   5.474   5.657
10646TIP3    H131883   4.065   5.399   5.640
10646TIP3    H231884   4.057   5.549   5.625
10647TIP3   OH231885   0.791   4.915   1.194
10647TIP3    H131886   0.869   4.905   1.249
10647TIP3    H231887   0.825   4.922   1.105
10648TIP3   OH231888   3.392   1.497   0.552
10648TIP3    H131889   3.478   1.539   0.555
10648TIP3    H231890   3.379   1.463   0.641
10649TIP3   OH231891   6.536   4.307   3.012
10649TIP3    H131892   6.616   4.307   3.064
10649TIP3    H231893   6.491   4.388   3.037
10650TIP3   OH231894   1.502   0.946   3.141
10650TIP3    H131895   1.506   1.027   3.090
10650TIP3    H231896   1.594   0.926   3.161
10651TIP3   OH231897   5.986   0.647   3.256
10651TIP3    H131898   5.969   0.645   3.350
10651TIP3    H231899   6.063   0.703   3.247
10652TIP3   OH231900   4.687   3.937   0.271
10652TIP3    H131901   4.699   3.842   0.263
10652TIP3    H231902   4.638   3.962   0.192
10653TIP3   OH231903   2.740   5.794   6.034
10653TIP3    H131904   2.782   5.778   6.119
10653TIP3    H231905   2.701   5.881   6.043
10654TIP3   OH231906   1.555   5.856   6.295
10654TIP3    H131907   1.638   5.859   6.248
10654TIP3    H231908   1.542   5.945   6.327
10655TIP3   OH231909   7.120   4.927   3.189
10655TIP3    H131910   7.061   4.976   3.247
10655TIP3    H231911   7.193   4.986   3.173
10656TIP3   OH231912   3.062   1.029   1.569
10656TIP3    H131913   3.017   0.945   1.574
10656TIP3    H231914   3.150   1.007   1.538
10657TIP3   OH231915   5.905   2.091   0.992
10657TIP3    H131916   5.923   2.185   0.981
10657TIP3    H231917   5.816   2.088   1.028
10658TIP3   OH231918   0.988   3.684   5.652
10658TIP3    H131919   1.001   3.693   5.747
10658TIP3    H231920   1.054   3.620   5.625
10659TIP3   OH231921   6.231   1.317   3.593
10659TIP3    H131922   6.184   1.398   3.612
10659TIP3    H231923   6.209   1.259   3.665
10660TIP3   OH231924   0.018   7.306   4.334
10660TIP3    H131925   0.033   7.267   4.248
10660TIP3    H231926  -0.059   7.361   4.322
10661TIP3   OH231927   1.870   6.702   3.592
10661TIP3    H131928   1.840   6.779   3.638
10661TIP3    H231929   1.903   6.644   3.661
10662TIP3   OH231930   6.659   4.828   3.959
10662TIP3    H131931   6.610   4.901   3.996
10662TIP3    H231932   6.605   4.751   3.976
10663TIP3   OH231933   2.165   3.669   0.582
10663TIP3    H131934   2.099   3.728   0.620
10663TIP3    H231935   2.117   3.589   0.561
10664TIP3   OH231936   6.744   0.948   2.872
10664TIP3    H131937   6.792   1.009   2.816
10664TIP3    H231938   6.661   0.991   2.890
10665TIP3   OH231939   1.916   2.878   6.001
10665TIP3    H131940   1.941   2.806   5.943
10665TIP3    H231941   1.879   2.835   6.078
10666TIP3   OH231942   6.646   3.422   1.430
10666TIP3    H131943   6.598   3.481   1.489
10666TIP3    H231944   6.617   3.335   1.455
10667TIP3   OH231945   3.276   2.175   5.120
10667TIP3    H131946   3.344   2.181   5.187
10667TIP3    H231947   3.235   2.261   5.118
10668TIP3   OH231948   4.140   2.700   0.448
10668TIP3    H131949   4.112   2.619   0.490
10668TIP3    H231950   4.227   2.717   0.484
10669TIP3   OH231951   0.715   4.352   5.246
10669TIP3    H131952   0.754   4.268   5.269
10669TIP3    H231953   0.631   4.330   5.206
10670TIP3   OH231954   4.334   5.889   1.376
10670TIP3    H131955   4.250   5.925   1.347
10670TIP3    H231956   4.319   5.865   1.468
10671TIP3   OH231957   7.396   6.882   0.030
10671TIP3    H131958   7.326   6.818   0.047
10671TIP3    H231959   7.435   6.854  -0.052
10672TIP3   OH231960   2.424   1.400   0.699
10672TIP3    H131961   2.505   1.426   0.656
10672TIP3    H231962   2.436   1.308   0.721
10673TIP3   OH231963   7.888   7.209   1.364
10673TIP3    H131964   7.962   7.264   1.336
10673TIP3    H231965   7.876   7.231   1.456
10674TIP3   OH231966   0.551   0.602   5.276
10674TIP3    H131967   0.569   0.524   5.224
10674TIP3    H231968   0.633   0.620   5.322
10675TIP3   OH231969   0.602   4.175   2.877
10675TIP3    H131970   0.642   4.105   2.927
10675TIP3    H231971   0.670   4.203   2.816
10676TIP3   OH231972   0.450   0.529   2.217
10676TIP3    H131973   0.464   0.463   2.149
10676TIP3    H231974   0.409   0.602   2.171
10677TIP3   OH231975   0.448   3.152   6.294
10677TIP3    H131976   0.389   3.109   6.232
10677TIP3    H231977   0.521   3.091   6.302
10678TIP3   OH231978   4.202   5.987   5.376
10678TIP3    H131979   4.113   5.964   5.346
10678TIP3    H231980   4.239   6.036   5.302
10679TIP3   OH231981   2.465   3.416   3.144
10679TIP3    H131982   2.391   3.417   3.084
10679TIP3    H231983   2.432   3.460   3.223
10680TIP3   OH231984   4.182   2.723   2.923
10680TIP3    H131985   4.095   2.702   2.888
10680TIP3    H231986   4.243   2.689   2.859
10681TIP3   OH231987   5.984   1.995   6.391
10681TIP3    H131988   5.891   2.000   6.371
10681TIP3    H231989   6.020   2.078   6.359
10682TIP3   OH231990   4.414   6.546   0.080
10682TIP3    H131991   4.492   6.602   0.081
10682TIP3    H231992   4.356   6.587   0.016
10683TIP3   OH231993   7.550   0.923   3.547
10683TIP3    H131994   7.589   0.866   3.613
10683TIP3    H231995   7.456   0.902   3.550
10684TIP3   OH231996   4.621   1.749   3.050
10684TIP3    H131997   4.533   1.714   3.049
10684TIP3    H231998   4.672   1.689   2.996
10685TIP3   OH231999   6.464   5.914   4.763
10685TIP3    H132000   6.504   5.842   4.715
10685TIP3    H232001   6.537   5.973   4.782
10686TIP3   OH232002   3.812   1.440   5.462
10686TIP3    H132003   3.824   1.493   5.540
10686TIP3    H232004   3.735   1.386   5.481
10687TIP3   OH232005   1.179   1.808   3.468
10687TIP3    H132006   1.248   1.808   3.402
10687TIP3    H232007   1.155   1.716   3.478
10688TIP3   OH232008   0.365   6.790   6.120
10688TIP3    H132009   0.372   6.816   6.212
10688TIP3    H232010   0.284   6.740   6.115
10689TIP3   OH232011   6.773   1.447   3.991
10689TIP3    H132012   6.787   1.359   3.955
10689TIP3    H232013   6.847   1.499   3.959
10690TIP3   OH232014   5.217   1.193   2.931
10690TIP3    H132015   5.250   1.107   2.907
10690TIP3    H232016   5.122   1.181   2.938
10691TIP3   OH232017   7.491   5.214   1.028
10691TIP3    H132018   7.461   5.173   0.947
10691TIP3    H232019   7.523   5.300   1.001
10692TIP3   OH232020   2.071   4.799   2.013
10692TIP3    H132021   2.080   4.832   2.103
10692TIP3    H232022   1.991   4.839   1.980
10693TIP3   OH232023   4.168   1.566   1.011
10693TIP3    H132024   4.181   1.652   0.971
10693TIP3    H232025   4.214   1.505   0.954
10694TIP3   OH232026   7.634   4.364   1.564
10694TIP3    H132027   7.552   4.315   1.565
10694TIP3    H232028   7.613   4.446   1.519
10695TIP3   OH232029   4.624   3.466   3.287
10695TIP3    H132030   4.677   3.530   3.239
10695TIP3    H232031   4.589   3.409   3.219
10696TIP3   OH232032   7.398   0.319   3.743
10696TIP3    H132033   7.412   0.306   3.837
10696TIP3    H232034   7.434   0.406   3.725
10697TIP3   OH232035   1.462   5.381   2.355
10697TIP3    H132036   1.437   5.454   2.299
10697TIP3    H232037   1.417   5.398   2.438
10698TIP3   OH232038   4.186   3.587   3.640
10698TIP3    H132039   4.184   3.568   3.734
10698TIP3    H232040   4.249   3.525   3.604
10699TIP3   OH232041   7.622   1.295   0.703
10699TIP3    H132042   7.700   1.251   0.670
10699TIP3    H232043   7.638   1.388   0.686
10700TIP3   OH232044   3.181   0.351   4.770
10700TIP3    H132045   3.250   0.392   4.822
10700TIP3    H232046   3.130   0.300   4.834
10701TIP3   OH232047   2.850   7.752   0.647
10701TIP3    H132048   2.849   7.784   0.737
10701TIP3    H232049   2.934   7.706   0.638
10702TIP3   OH232050   4.490   1.591   1.026
10702TIP3    H132051   4.473   1.682   1.048
10702TIP3    H232052   4.543   1.558   1.099
10703TIP3   OH232053   2.718   4.415   3.177
10703TIP3    H132054   2.740   4.375   3.261
10703TIP3    H232055   2.648   4.359   3.142
10704TIP3   OH232056   0.013   6.682   3.481
10704TIP3    H132057  -0.054   6.740   3.517
10704TIP3    H232058  -0.036   6.615   3.434
10705TIP3   OH232059   6.062   5.542   1.988
10705TIP3    H132060   5.973   5.565   2.013
10705TIP3    H232061   6.090   5.614   1.931
10706TIP3   OH232062   5.279   7.225   0.634
10706TIP3    H132063   5.268   7.316   0.662
10706TIP3    H232064   5.214   7.176   0.685
10707TIP3   OH232065   0.767   1.392   0.796
10707TIP3    H132066   0.797   1.409   0.707
10707TIP3    H232067   0.709   1.316   0.788
10708TIP3   OH232068   3.464   2.500   2.388
10708TIP3    H132069   3.472   2.590   2.356
10708TIP3    H232070   3.547   2.459   2.361
10709TIP3   OH232071   7.721   1.260   2.609
10709TIP3    H132072   7.777   1.313   2.553
10709TIP3    H232073   7.697   1.184   2.555
10710TIP3   OH232074   1.974   7.386   1.837
10710TIP3    H132075   2.018   7.372   1.753
10710TIP3    H232076   2.038   7.434   1.890
10711TIP3   OH232077   7.001   2.447   3.489
10711TIP3    H132078   7.093   2.459   3.467
10711TIP3    H232079   6.966   2.393   3.418
10712TIP3   OH232080   1.535   6.876   5.284
10712TIP3    H132081   1.629   6.866   5.273
10712TIP3    H232082   1.499   6.788   5.273
10713TIP3   OH232083   1.379   2.574   4.056
10713TIP3    H132084   1.357   2.663   4.029
10713TIP3    H232085   1.416   2.584   4.144
10714TIP3   OH232086   0.231   4.121   5.759
10714TIP3    H132087   0.296   4.157   5.820
10714TIP3    H232088   0.281   4.102   5.679
10715TIP3   OH232089   1.989   3.261   5.883
10715TIP3    H132090   1.983   3.332   5.819
10715TIP3    H232091   1.919   3.280   5.946
10716TIP3   OH232092   0.419   5.550   5.551
10716TIP3    H132093   0.481   5.492   5.596
10716TIP3    H232094   0.362   5.582   5.620
10717TIP3   OH232095   4.348   5.485   4.301
10717TIP3    H132096   4.292   5.408   4.314
10717TIP3    H232097   4.437   5.452   4.319
10718TIP3   OH232098   4.649   7.507   6.401
10718TIP3    H132099   4.702   7.427   6.399
10718TIP3    H232100   4.602   7.506   6.317
10719TIP3   OH232101   7.481   3.632   4.216
10719TIP3    H132102   7.419   3.662   4.283
10719TIP3    H232103   7.434   3.563   4.169
10720TIP3   OH232104   4.825   5.312   0.684
10720TIP3    H132105   4.780   5.228   0.681
10720TIP3    H232106   4.815   5.347   0.595
10721TIP3   OH232107   7.086   6.022   1.633
10721TIP3    H132108   7.175   6.011   1.667
10721TIP3    H232109   7.053   6.100   1.677
10722TIP3   OH232110   5.654   0.657   2.000
10722TIP3    H132111   5.685   0.571   2.030
10722TIP3    H232112   5.639   0.707   2.080
10723TIP3   OH232113   6.021   1.951   2.618
10723TIP3    H132114   6.102   1.995   2.592
10723TIP3    H232115   5.970   2.019   2.662
10724TIP3   OH232116   6.083   6.207   2.646
10724TIP3    H132117   5.997   6.168   2.665
10724TIP3    H232118   6.081   6.224   2.552
10725TIP3   OH232119   3.563   4.801   1.151
10725TIP3    H132120   3.493   4.783   1.214
10725TIP3    H232121   3.542   4.746   1.075
10726TIP3   OH232122   0.406   5.396   6.081
10726TIP3    H132123   0.424   5.306   6.053
10726TIP3    H232124   0.479   5.419   6.138
10727TIP3   OH232125   6.067   1.872   0.896
10727TIP3    H132126   6.153   1.885   0.935
10727TIP3    H232127   6.009   1.931   0.945
10728TIP3   OH232128   2.490   7.588   2.288
10728TIP3    H132129   2.556   7.634   2.340
10728TIP3    H232130   2.406   7.621   2.321
10729TIP3   OH232131   1.065   4.185   1.642
10729TIP3    H132132   1.118   4.112   1.609
10729TIP3    H232133   1.125   4.235   1.698
10730TIP3   OH232134   5.737   1.012   5.329
10730TIP3    H132135   5.824   1.049   5.342
10730TIP3    H232136   5.680   1.088   5.313
10731TIP3   OH232137   0.343   0.995   2.256
10731TIP3    H132138   0.384   0.953   2.180
10731TIP3    H232139   0.404   1.065   2.281
10732TIP3   OH232140   1.598   0.255   4.268
10732TIP3    H132141   1.553   0.241   4.185
10732TIP3    H232142   1.679   0.299   4.244
10733TIP3   OH232143   3.438   1.450   1.134
10733TIP3    H132144   3.530   1.438   1.112
10733TIP3    H232145   3.418   1.540   1.111
10734TIP3   OH232146   4.254   0.712   0.312
10734TIP3    H132147   4.339   0.747   0.284
10734TIP3    H232148   4.217   0.781   0.367
10735TIP3   OH232149   1.318   5.223   5.001
10735TIP3    H132150   1.403   5.180   5.002
10735TIP3    H232151   1.311   5.262   4.914
10736TIP3   OH232152   6.407   6.217   6.576
10736TIP3    H132153   6.432   6.176   6.659
10736TIP3    H232154   6.465   6.293   6.569
10737TIP3   OH232155   4.980   7.265   3.305
10737TIP3    H132156   4.965   7.273   3.211
10737TIP3    H232157   5.036   7.187   3.313
10738TIP3   OH232158   3.714   1.549   6.283
10738TIP3    H132159   3.755   1.513   6.361
10738TIP3    H232160   3.637   1.596   6.316
10739TIP3   OH232161   6.265   3.079   2.824
10739TIP3    H132162   6.268   3.051   2.916
10739TIP3    H232163   6.174   3.100   2.808
10740TIP3   OH232164   1.523   3.138   6.469
10740TIP3    H132165   1.531   3.229   6.498
10740TIP3    H232166   1.592   3.128   6.404
10741TIP3   OH232167   1.445   1.373   4.397
10741TIP3    H132168   1.375   1.428   4.430
10741TIP3    H232169   1.439   1.381   4.302
10742TIP3   OH232170   2.974   5.248   5.318
10742TIP3    H132171   2.978   5.300   5.399
10742TIP3    H232172   3.066   5.231   5.297
10743TIP3   OH232173   8.052   6.176   4.813
10743TIP3    H132174   7.990   6.108   4.839
10743TIP3    H232175   7.998   6.244   4.773
10744TIP3   OH232176   0.472   4.375   4.484
10744TIP3    H132177   0.469   4.280   4.492
10744TIP3    H232178   0.563   4.398   4.505
10745TIP3   OH232179   7.683   0.669   3.042
10745TIP3    H132180   7.688   0.669   3.137
10745TIP3    H232181   7.667   0.760   3.018
10746TIP3   OH232182   8.085   6.484   0.169
10746TIP3    H132183   8.095   6.406   0.115
10746TIP3    H232184   7.991   6.499   0.174
10747TIP3   OH232185   0.061   2.144   4.541
10747TIP3    H132186   0.147   2.169   4.577
10747TIP3    H232187   0.022   2.089   4.610
10748TIP3   OH232188   7.645   4.738   4.365
10748TIP3    H132189   7.693   4.780   4.293
10748TIP3    H232190   7.698   4.755   4.442
10749TIP3   OH232191   3.588   6.202   2.701
10749TIP3    H132192   3.499   6.168   2.687
10749TIP3    H232193   3.586   6.239   2.789
10750TIP3   OH232194   5.344   2.948   6.543
10750TIP3    H132195   5.337   2.926   6.451
10750TIP3    H232196   5.438   2.961   6.559
10751TIP3   OH232197   0.793   2.825   2.965
10751TIP3    H132198   0.784   2.773   2.886
10751TIP3    H232199   0.777   2.915   2.937
10752TIP3   OH232200   7.902   5.139   4.504
10752TIP3    H132201   7.982   5.111   4.459
10752TIP3    H232202   7.925   5.142   4.596
10753TIP3   OH232203   8.285   1.061   4.464
10753TIP3    H132204   8.207   1.112   4.443
10753TIP3    H232205   8.282   0.987   4.403
10754TIP3   OH232206   3.961   0.289   2.277
10754TIP3    H132207   4.005   0.248   2.351
10754TIP3    H232208   3.951   0.219   2.213
10755TIP3   OH232209   0.167   4.427   5.947
10755TIP3    H132210   0.178   4.522   5.944
10755TIP3    H232211   0.206   4.396   5.865
10756TIP3   OH232212   5.974   2.353   0.897
10756TIP3    H132213   6.036   2.410   0.852
10756TIP3    H232214   5.906   2.412   0.930
10757TIP3   OH232215   0.514   0.420   5.587
10757TIP3    H132216   0.544   0.442   5.675
10757TIP3    H232217   0.441   0.481   5.571
10758TIP3   OH232218   1.208   3.880   6.041
10758TIP3    H132219   1.290   3.832   6.049
10758TIP3    H232220   1.189   3.910   6.130
10759TIP3   OH232221   5.516   1.456   1.909
10759TIP3    H132222   5.465   1.536   1.912
10759TIP3    H232223   5.552   1.447   1.998
10760TIP3   OH232224   4.161   4.803   6.395
10760TIP3    H132225   4.067   4.786   6.388
10760TIP3    H232226   4.185   4.838   6.309
10761TIP3   OH232227   6.436   1.722   5.259
10761TIP3    H132228   6.376   1.656   5.294
10761TIP3    H232229   6.392   1.805   5.275
10762TIP3   OH232230   2.777   6.975   6.628
10762TIP3    H132231   2.841   7.037   6.594
10762TIP3    H232232   2.826   6.921   6.690
10763TIP3   OH232233   3.467   7.569   4.109
10763TIP3    H132234   3.561   7.564   4.125
10763TIP3    H232235   3.437   7.641   4.165
10764TIP3   OH232236   0.349   3.106   6.533
10764TIP3    H132237   0.353   3.106   6.437
10764TIP3    H232238   0.365   3.197   6.557
10765TIP3   OH232239   6.487   4.320   4.112
10765TIP3    H132240   6.545   4.272   4.172
10765TIP3    H232241   6.401   4.277   4.123
10766TIP3   OH232242   5.274   7.686   5.329
10766TIP3    H132243   5.195   7.705   5.278
10766TIP3    H232244   5.307   7.605   5.293
10767TIP3   OH232245   0.081   5.032   4.661
10767TIP3    H132246   0.107   4.962   4.601
10767TIP3    H232247   0.007   4.996   4.710
10768TIP3   OH232248   5.716   4.357   2.431
10768TIP3    H132249   5.684   4.294   2.366
10768TIP3    H232250   5.762   4.423   2.379
10769TIP3   OH232251   6.653   1.057   4.893
10769TIP3    H132252   6.715   1.075   4.964
10769TIP3    H232253   6.669   0.965   4.871
10770TIP3   OH232254   2.273   6.907   2.129
10770TIP3    H132255   2.351   6.883   2.179
10770TIP3    H232256   2.297   6.987   2.083
10771TIP3   OH232257   6.168   2.254   6.146
10771TIP3    H132258   6.085   2.284   6.108
10771TIP3    H232259   6.178   2.165   6.112
10772TIP3   OH232260   4.874   0.845   0.408
10772TIP3    H132261   4.951   0.892   0.440
10772TIP3    H232262   4.819   0.834   0.486
10773TIP3   OH232263   7.774   3.217   4.389
10773TIP3    H132264   7.853   3.225   4.335
10773TIP3    H232265   7.722   3.294   4.367
10774TIP3   OH232266   1.251   1.672   4.287
10774TIP3    H132267   1.194   1.617   4.234
10774TIP3    H232268   1.333   1.676   4.238
10775TIP3   OH232269   3.196   0.856   0.090
10775TIP3    H132270   3.130   0.871   0.023
10775TIP3    H232271   3.246   0.937   0.092
10776TIP3   OH232272   4.972   0.657   4.491
10776TIP3    H132273   4.987   0.660   4.397
10776TIP3    H232274   5.031   0.588   4.522
10777TIP3   OH232275   7.598   1.479   2.179
10777TIP3    H132276   7.619   1.560   2.225
10777TIP3    H232277   7.664   1.416   2.211
10778TIP3   OH232278   3.013   0.754   0.295
10778TIP3    H132279   3.049   0.838   0.267
10778TIP3    H232280   3.060   0.689   0.242
10779TIP3   OH232281   4.257   5.310   1.140
10779TIP3    H132282   4.255   5.400   1.171
10779TIP3    H232283   4.179   5.301   1.084
10780TIP3   OH232284   1.866   5.942   0.461
10780TIP3    H132285   1.916   6.023   0.472
10780TIP3    H232286   1.933   5.873   0.457
10781TIP3   OH232287   7.260   2.461   3.796
10781TIP3    H132288   7.215   2.537   3.758
10781TIP3    H232289   7.312   2.426   3.724
10782TIP3   OH232290   4.838   4.783   2.655
10782TIP3    H132291   4.809   4.750   2.570
10782TIP3    H232292   4.765   4.763   2.715
10783TIP3   OH232293   5.111   3.675   1.809
10783TIP3    H132294   5.035   3.703   1.860
10783TIP3    H232295   5.082   3.596   1.763
10784TIP3   OH232296   1.975   1.347   3.295
10784TIP3    H132297   1.883   1.339   3.322
10784TIP3    H232298   1.980   1.303   3.211
10785TIP3   OH232299   0.401   3.482   1.317
10785TIP3    H132300   0.471   3.487   1.253
10785TIP3    H232301   0.326   3.449   1.268
10786TIP3   OH232302   0.640   0.079   5.831
10786TIP3    H132303   0.704   0.080   5.760
10786TIP3    H232304   0.634   0.170   5.859
10787TIP3   OH232305   7.515   7.807   5.588
10787TIP3    H132306   7.477   7.725   5.618
10787TIP3    H232307   7.522   7.861   5.666
10788TIP3   OH232308   5.999   2.094   3.717
10788TIP3    H132309   6.015   2.041   3.794
10788TIP3    H232310   5.907   2.122   3.726
10789TIP3   OH232311   6.154   7.212   1.338
10789TIP3    H132312   6.225   7.167   1.383
10789TIP3    H232313   6.176   7.305   1.345
10790TIP3   OH232314   4.538   3.586   4.393
10790TIP3    H132315   4.564   3.598   4.302
10790TIP3    H232316   4.620   3.598   4.442
10791TIP3   OH232317   1.204   3.739   5.374
10791TIP3    H132318   1.112   3.715   5.365
10791TIP3    H232319   1.237   3.745   5.284
10792TIP3   OH232320   2.415   5.206   0.437
10792TIP3    H132321   2.373   5.269   0.496
10792TIP3    H232322   2.343   5.153   0.403
10793TIP3   OH232323   1.793   5.838   6.158
10793TIP3    H132324   1.862   5.895   6.193
10793TIP3    H232325   1.838   5.758   6.132
10794TIP3   OH232326   3.360   5.215   2.514
10794TIP3    H132327   3.379   5.152   2.445
10794TIP3    H232328   3.446   5.241   2.547
10795TIP3   OH232329   5.048   4.731   5.726
10795TIP3    H132330   5.087   4.704   5.809
10795TIP3    H232331   5.118   4.719   5.662
10796TIP3   OH232332   7.652   0.680   4.124
10796TIP3    H132333   7.606   0.643   4.199
10796TIP3    H232334   7.743   0.655   4.136
10797TIP3   OH232335   4.293   7.433   4.485
10797TIP3    H132336   4.309   7.495   4.555
10797TIP3    H232337   4.203   7.451   4.457
10798TIP3   OH232338   1.070   6.494   0.390
10798TIP3    H132339   1.159   6.502   0.355
10798TIP3    H232340   1.055   6.400   0.399
10799TIP3   OH232341   2.301   0.080   5.800
10799TIP3    H132342   2.278   0.043   5.715
10799TIP3    H232343   2.365   0.148   5.781
10800TIP3   OH232344   6.501   5.947   3.532
10800TIP3    H132345   6.411   5.980   3.539
10800TIP3    H232346   6.535   5.951   3.622
10801TIP3   OH232347   2.999   0.358   0.364
10801TIP3    H132348   3.014   0.267   0.389
10801TIP3    H232349   2.992   0.404   0.448
10802TIP3   OH232350   0.116   0.147   4.475
10802TIP3    H132351   0.094   0.165   4.567
10802TIP3    H232352   0.154   0.229   4.443
10803TIP3   OH232353   5.814   6.706   4.552
10803TIP3    H132354   5.772   6.683   4.636
10803TIP3    H232355   5.888   6.761   4.577
10804TIP3   OH232356   2.028   3.788   3.919
10804TIP3    H132357   2.011   3.779   3.825
10804TIP3    H232358   2.120   3.813   3.925
10805TIP3   OH232359   2.969   6.367   4.983
10805TIP3    H132360   2.933   6.450   4.952
10805TIP3    H232361   2.897   6.326   5.031
10806TIP3   OH232362   5.702   4.271   6.378
10806TIP3    H132363   5.665   4.264   6.466
10806TIP3    H232364   5.656   4.205   6.327
10807TIP3   OH232365   1.803   3.224   2.263
10807TIP3    H132366   1.879   3.234   2.206
10807TIP3    H232367   1.777   3.132   2.252
10808TIP3   OH232368   4.201   7.652   6.489
10808TIP3    H132369   4.172   7.576   6.439
10808TIP3    H232370   4.292   7.665   6.463
10809TIP3   OH232371   2.331   4.999   6.260
10809TIP3    H132372   2.398   4.931   6.253
10809TIP3    H232373   2.355   5.063   6.194
10810TIP3   OH232374   7.790   2.641   5.788
10810TIP3    H132375   7.789   2.734   5.766
10810TIP3    H232376   7.876   2.627   5.828
10811TIP3   OH232377   3.356   0.593   2.413
10811TIP3    H132378   3.419   0.665   2.408
10811TIP3    H232379   3.410   0.514   2.414
10812TIP3   OH232380   6.960   1.344   0.361
10812TIP3    H132381   7.017   1.318   0.288
10812TIP3    H232382   7.010   1.319   0.439
10813TIP3   OH232383   3.257   7.434   1.604
10813TIP3    H132384   3.318   7.471   1.540
10813TIP3    H232385   3.313   7.400   1.674
10814TIP3   OH232386   2.272   1.203   4.741
10814TIP3    H132387   2.207   1.222   4.808
10814TIP3    H232388   2.346   1.165   4.788
10815TIP3   OH232389   0.154   0.281   3.124
10815TIP3    H132390   0.135   0.334   3.202
10815TIP3    H232391   0.155   0.191   3.156
10816TIP3   OH232392   5.901   4.065   6.454
10816TIP3    H132393   5.991   4.095   6.447
10816TIP3    H232394   5.850   4.144   6.470
10817TIP3   OH232395   4.371   3.085   3.052
10817TIP3    H132396   4.459   3.119   3.067
10817TIP3    H232397   4.382   3.015   2.989
10818TIP3   OH232398   5.366   0.368   0.138
10818TIP3    H132399   5.422   0.432   0.094
10818TIP3    H232400   5.349   0.406   0.225
10819TIP3   OH232401   4.018   3.720   1.513
10819TIP3    H132402   4.020   3.665   1.435
10819TIP3    H232403   4.092   3.688   1.566
10820TIP3   OH232404   6.094   3.619   2.163
10820TIP3    H132405   6.082   3.714   2.169
10820TIP3    H232406   6.007   3.584   2.144
10821TIP3   OH232407   0.126   6.658   6.062
10821TIP3    H132408   0.127   6.596   5.990
10821TIP3    H232409   0.037   6.693   6.063
10822TIP3   OH232410   3.411   0.570   3.943
10822TIP3    H132411   3.352   0.559   4.017
10822TIP3    H232412   3.353   0.578   3.867
10823TIP3   OH232413   7.836   0.258   6.313
10823TIP3    H132414   7.841   0.179   6.367
10823TIP3    H232415   7.888   0.323   6.360
10824TIP3   OH232416   1.408   6.851   4.493
10824TIP3    H132417   1.396   6.764   4.532
10824TIP3    H232418   1.408   6.835   4.399
10825TIP3   OH232419   0.223   6.918   6.707
10825TIP3    H132420   0.300   6.952   6.754
10825TIP3    H232421   0.259   6.880   6.627
10826TIP3   OH232422   7.892   1.666   5.958
10826TIP3    H132423   7.953   1.617   5.903
10826TIP3    H232424   7.836   1.713   5.896
10827TIP3   OH232425   6.424   3.454   4.186
10827TIP3    H132426   6.480   3.478   4.260
10827TIP3    H232427   6.346   3.508   4.196
10828TIP3   OH232428   5.786   3.055   3.199
10828TIP3    H132429   5.853   2.988   3.211
10828TIP3    H232430   5.709   3.007   3.168
10829TIP3   OH232431   0.204   2.348   4.830
10829TIP3    H132432   0.193   2.443   4.840
10829TIP3    H232433   0.119   2.312   4.856
10830TIP3   OH232434   4.029   2.961   1.555
10830TIP3    H132435   4.026   2.995   1.466
10830TIP3    H232436   4.101   2.898   1.554
10831TIP3   OH232437   4.080   4.982   4.209
10831TIP3    H132438   4.130   5.045   4.261
10831TIP3    H232439   4.075   4.903   4.263
10832TIP3   OH232440   0.465   1.887   5.410
10832TIP3    H132441   0.538   1.944   5.433
10832TIP3    H232442   0.495   1.841   5.332
10833TIP3   OH232443   3.673   6.339   1.352
10833TIP3    H132444   3.762   6.303   1.356
10833TIP3    H232445   3.686   6.429   1.321
10834TIP3   OH232446   7.093   4.623   1.452
10834TIP3    H132447   7.051   4.656   1.372
10834TIP3    H232448   7.087   4.528   1.443
10835TIP3   OH232449   3.804   5.718   4.305
10835TIP3    H132450   3.714   5.743   4.327
10835TIP3    H232451   3.853   5.735   4.386
10836TIP3   OH232452   1.785   1.180   2.044
10836TIP3    H132453   1.806   1.182   1.951
10836TIP3    H232454   1.861   1.141   2.086
10837TIP3   OH232455   3.360   7.172   3.761
10837TIP3    H132456   3.343   7.234   3.832
10837TIP3    H232457   3.274   7.152   3.725
10838TIP3   OH232458   2.780   0.756   0.083
10838TIP3    H132459   2.834   0.716   0.151
10838TIP3    H232460   2.793   0.700   0.006
10839TIP3   OH232461   7.430   1.299   6.226
10839TIP3    H132462   7.469   1.342   6.150
10839TIP3    H232463   7.360   1.357   6.254
10840TIP3   OH232464   0.660   5.851   2.826
10840TIP3    H132465   0.599   5.834   2.754
10840TIP3    H232466   0.614   5.822   2.905
10841TIP3   OH232467   4.300   4.902   5.654
10841TIP3    H132468   4.328   4.832   5.595
10841TIP3    H232469   4.325   4.983   5.608
10842TIP3   OH232470   5.813   4.904   2.753
10842TIP3    H132471   5.863   4.850   2.813
10842TIP3    H232472   5.721   4.892   2.779
10843TIP3   OH232473   1.847   1.074   4.601
10843TIP3    H132474   1.868   1.167   4.594
10843TIP3    H232475   1.802   1.053   4.519
10844TIP3   OH232476   0.950   3.385   3.965
10844TIP3    H132477   0.974   3.376   3.873
10844TIP3    H232478   1.030   3.365   4.013
10845TIP3   OH232479   5.746   4.199   0.445
10845TIP3    H132480   5.740   4.149   0.527
10845TIP3    H232481   5.832   4.178   0.410
10846TIP3   OH232482   2.580   7.645   0.707
10846TIP3    H132483   2.662   7.693   0.721
10846TIP3    H232484   2.522   7.709   0.665
10847TIP3   OH232485   6.122   6.925   0.253
10847TIP3    H132486   6.080   6.982   0.188
10847TIP3    H232487   6.082   6.951   0.336
10848TIP3   OH232488   2.402   1.750   5.086
10848TIP3    H132489   2.309   1.748   5.107
10848TIP3    H232490   2.413   1.827   5.030
10849TIP3   OH232491   7.278   0.657   5.499
10849TIP3    H132492   7.221   0.679   5.572
10849TIP3    H232493   7.267   0.729   5.437
10850TIP3   OH232494   6.017   5.144   6.495
10850TIP3    H132495   6.028   5.195   6.415
10850TIP3    H232496   5.922   5.140   6.508
10851TIP3   OH232497   5.173   0.564   6.659
10851TIP3    H132498   5.255   0.607   6.685
10851TIP3    H232499   5.104   0.622   6.689
10852TIP3   OH232500   1.414   7.795   3.828
10852TIP3    H132501   1.478   7.845   3.879
10852TIP3    H232502   1.340   7.783   3.888
10853TIP3   OH232503   4.663   1.176   0.293
10853TIP3    H132504   4.744   1.146   0.250
10853TIP3    H232505   4.656   1.268   0.269
10854TIP3   OH232506   3.175   3.793   5.933
10854TIP3    H132507   3.260   3.836   5.944
10854TIP3    H232508   3.116   3.841   5.991
10855TIP3   OH232509   1.100   5.548   1.070
10855TIP3    H132510   1.154   5.626   1.078
10855TIP3    H232511   1.035   5.556   1.140
10856TIP3   OH232512   0.212   6.142   0.147
10856TIP3    H132513   0.238   6.228   0.180
10856TIP3    H232514   0.295   6.100   0.123
10857TIP3   OH232515   7.094   7.113   0.837
10857TIP3    H132516   7.103   7.088   0.929
10857TIP3    H232517   7.120   7.205   0.835
10858TIP3   OH232518   2.276   7.554   0.019
10858TIP3    H132519   2.307   7.533   0.107
10858TIP3    H232520   2.181   7.543   0.024
10859TIP3   OH232521   3.603   6.333   4.134
10859TIP3    H132522   3.576   6.389   4.208
10859TIP3    H232523   3.665   6.386   4.085
10860TIP3   OH232524   0.957   4.312   5.947
10860TIP3    H132525   0.998   4.227   5.928
10860TIP3    H232526   1.020   4.377   5.917
10861TIP3   OH232527   6.471   5.522   1.057
10861TIP3    H132528   6.450   5.571   1.137
10861TIP3    H232529   6.485   5.590   0.991
10862TIP3   OH232530   2.380   2.248   0.408
10862TIP3    H132531   2.434   2.192   0.353
10862TIP3    H232532   2.290   2.233   0.378
10863TIP3   OH232533   7.349   1.753   0.371
10863TIP3    H132534   7.277   1.804   0.334
10863TIP3    H232535   7.385   1.704   0.296
10864TIP3   OH232536   5.090   5.283   1.538
10864TIP3    H132537   4.999   5.297   1.510
10864TIP3    H232538   5.139   5.354   1.497
10865TIP3   OH232539   1.530   3.262   3.684
10865TIP3    H132540   1.615   3.218   3.687
10865TIP3    H232541   1.466   3.191   3.690
10866TIP3   OH232542   5.249   0.701   3.634
10866TIP3    H132543   5.301   0.718   3.712
10866TIP3    H232544   5.311   0.708   3.561
10867TIP3   OH232545   6.306   2.269   1.631
10867TIP3    H132546   6.329   2.177   1.649
10867TIP3    H232547   6.292   2.272   1.537
10868TIP3   OH232548   7.500   6.148   1.358
10868TIP3    H132549   7.590   6.118   1.346
10868TIP3    H232550   7.494   6.170   1.451
10869TIP3   OH232551   4.990   4.211   0.424
10869TIP3    H132552   5.079   4.247   0.428
10869TIP3    H232553   4.934   4.282   0.456
10870TIP3   OH232554   2.968   4.419   3.935
10870TIP3    H132555   2.944   4.329   3.916
10870TIP3    H232556   2.903   4.472   3.889
10871TIP3   OH232557   4.057   0.723   2.488
10871TIP3    H132558   4.144   0.749   2.516
10871TIP3    H232559   4.015   0.691   2.568
10872TIP3   OH232560   2.940   5.400   4.433
10872TIP3    H132561   3.032   5.423   4.443
10872TIP3    H232562   2.911   5.447   4.356
10873TIP3   OH232563   0.645   3.798   3.980
10873TIP3    H132564   0.625   3.713   3.942
10873TIP3    H232565   0.657   3.780   4.073
10874TIP3   OH232566   2.842   6.590   3.712
10874TIP3    H132567   2.784   6.598   3.788
10874TIP3    H232568   2.930   6.603   3.747
10875TIP3   OH232569   1.561   3.232   5.375
10875TIP3    H132570   1.564   3.200   5.285
10875TIP3    H232571   1.501   3.306   5.372
10876TIP3   OH232572   2.547   6.734   0.334
10876TIP3    H132573   2.575   6.657   0.284
10876TIP3    H232574   2.623   6.792   0.331
10877TIP3   OH232575   3.763   1.122   5.321
10877TIP3    H132576   3.773   1.044   5.265
10877TIP3    H232577   3.671   1.144   5.315
10878TIP3   OH232578   4.247   4.526   1.806
10878TIP3    H132579   4.199   4.607   1.787
10878TIP3    H232580   4.178   4.461   1.820
10879TIP3   OH232581   6.792   5.279   3.839
10879TIP3    H132582   6.716   5.307   3.890
10879TIP3    H232583   6.867   5.319   3.883
10880TIP3   OH232584   0.296   4.915   1.299
10880TIP3    H132585   0.333   5.003   1.308
10880TIP3    H232586   0.205   4.924   1.329
10881TIP3   OH232587   4.694   0.843   2.660
10881TIP3    H132588   4.663   0.909   2.597
10881TIP3    H232589   4.655   0.761   2.630
10882TIP3   OH232590   1.270   0.551   5.768
10882TIP3    H132591   1.283   0.503   5.686
10882TIP3    H232592   1.353   0.594   5.785
10883TIP3   OH232593   3.938   0.230   1.384
10883TIP3    H132594   3.894   0.298   1.334
10883TIP3    H232595   3.895   0.233   1.470
10884TIP3   OH232596   3.426   6.556   3.469
10884TIP3    H132597   3.358   6.505   3.514
10884TIP3    H232598   3.378   6.608   3.405
10885TIP3   OH232599   7.290   3.341   2.920
10885TIP3    H132600   7.381   3.362   2.895
10885TIP3    H232601   7.269   3.264   2.866
10886TIP3   OH232602   3.126   2.709   2.784
10886TIP3    H132603   3.169   2.668   2.708
10886TIP3    H232604   3.133   2.803   2.766
10887TIP3   OH232605   8.044   4.448   4.321
10887TIP3    H132606   8.063   4.431   4.228
10887TIP3    H232607   8.106   4.517   4.346
10888TIP3   OH232608   4.368   0.785   1.554
10888TIP3    H132609   4.366   0.872   1.593
10888TIP3    H232610   4.334   0.798   1.465
10889TIP3   OH232611   7.502   3.298   5.211
10889TIP3    H132612   7.523   3.264   5.298
10889TIP3    H232613   7.485   3.219   5.159
10890TIP3   OH232614   5.969   1.017   3.858
10890TIP3    H132615   5.906   0.977   3.798
10890TIP3    H232616   6.054   1.004   3.816
10891TIP3   OH232617   1.765   7.815   2.192
10891TIP3    H132618   1.708   7.796   2.118
10891TIP3    H232619   1.711   7.798   2.269
10892TIP3   OH232620   3.557   1.037   2.881
10892TIP3    H132621   3.519   1.038   2.969
10892TIP3    H232622   3.571   0.944   2.862
10893TIP3   OH232623   6.920   6.053   0.804
10893TIP3    H132624   6.979   6.127   0.818
10893TIP3    H232625   6.977   5.978   0.793
10894TIP3   OH232626   1.926   7.334   4.269
10894TIP3    H132627   1.971   7.266   4.218
10894TIP3    H232628   1.937   7.307   4.360
10895TIP3   OH232629   2.028   5.001   3.679
10895TIP3    H132630   1.977   4.934   3.724
10895TIP3    H232631   2.119   4.980   3.698
10896TIP3   OH232632   2.708   1.832   3.920
10896TIP3    H132633   2.731   1.838   3.828
10896TIP3    H232634   2.730   1.742   3.944
10897TIP3   OH232635   7.304   2.106   1.168
10897TIP3    H132636   7.347   2.049   1.104
10897TIP3    H232637   7.278   2.047   1.238
10898TIP3   OH232638   7.720   0.895   3.965
10898TIP3    H132639   7.803   0.938   3.983
10898TIP3    H232640   7.714   0.826   4.031
10899TIP3   OH232641   5.124   2.793   3.586
10899TIP3    H132642   5.065   2.720   3.609
10899TIP3    H232643   5.196   2.751   3.540
10900TIP3   OH232644   1.932   2.196   5.799
10900TIP3    H132645   1.842   2.220   5.819
10900TIP3    H232646   1.926   2.140   5.722
10901TIP3   OH232647   3.601   6.455   1.035
10901TIP3    H132648   3.602   6.548   1.013
10901TIP3    H232649   3.540   6.448   1.109
10902TIP3   OH232650   4.312   6.963   2.804
10902TIP3    H132651   4.222   6.935   2.789
10902TIP3    H232652   4.342   6.996   2.720
10903TIP3   OH232653   7.031   1.412   6.351
10903TIP3    H132654   6.951   1.461   6.331
10903TIP3    H232655   7.055   1.440   6.440
10904TIP3   OH232656   4.415   5.529   5.595
10904TIP3    H132657   4.372   5.449   5.563
10904TIP3    H232658   4.460   5.564   5.518
10905TIP3   OH232659   1.858   3.567   2.695
10905TIP3    H132660   1.874   3.645   2.642
10905TIP3    H232661   1.768   3.542   2.674
10906TIP3   OH232662   4.049   5.374   0.032
10906TIP3    H132663   4.053   5.469   0.035
10906TIP3    H232664   4.132   5.345   0.070
10907TIP3   OH232665   2.512   0.020   2.105
10907TIP3    H132666   2.597  -0.012   2.137
10907TIP3    H232667   2.460   0.031   2.185
10908TIP3   OH232668   0.060   6.851   1.357
10908TIP3    H132669   0.043   6.885   1.446
10908TIP3    H232670   0.021   6.764   1.358
10909TIP3   OH232671   3.456   6.312   1.488
10909TIP3    H132672   3.399   6.300   1.412
10909TIP3    H232673   3.542   6.329   1.452
10910TIP3   OH232674   0.132   4.441   4.242
10910TIP3    H132675   0.194   4.512   4.225
10910TIP3    H232676   0.128   4.393   4.160
10911TIP3   OH232677   2.222   3.325   0.045
10911TIP3    H132678   2.261   3.395  -0.005
10911TIP3    H232679   2.268   3.246   0.017
10912TIP3   OH232680   7.873   7.590   5.099
10912TIP3    H132681   7.912   7.597   5.012
10912TIP3    H232682   7.922   7.520   5.142
10913TIP3   OH232683   2.544   3.822   0.370
10913TIP3    H132684   2.492   3.743   0.358
10913TIP3    H232685   2.586   3.809   0.455
10914TIP3   OH232686   8.096   6.724   1.313
10914TIP3    H132687   8.080   6.630   1.306
10914TIP3    H232688   8.042   6.762   1.244
10915TIP3   OH232689   2.743   3.452   4.632
10915TIP3    H132690   2.719   3.404   4.712
10915TIP3    H232691   2.838   3.448   4.629
10916TIP3   OH232692   2.092   5.661   2.731
10916TIP3    H132693   2.022   5.720   2.701
10916TIP3    H232694   2.130   5.626   2.651
10917TIP3   OH232695   5.195   6.190   0.405
10917TIP3    H132696   5.230   6.279   0.411
10917TIP3    H232697   5.110   6.195   0.449
10918TIP3   OH232698   2.246   1.963   5.425
10918TIP3    H132699   2.171   1.906   5.408
10918TIP3    H232700   2.231   2.039   5.368
10919TIP3   OH232701   7.223   6.096   2.817
10919TIP3    H132702   7.181   6.102   2.731
10919TIP3    H232703   7.315   6.078   2.798
10920TIP3   OH232704   3.604   2.621   4.162
10920TIP3    H132705   3.528   2.563   4.163
10920TIP3    H232706   3.641   2.610   4.074
10921TIP3   OH232707   4.886   2.317   3.288
10921TIP3    H132708   4.954   2.330   3.222
10921TIP3    H232709   4.857   2.226   3.276
10922TIP3   OH232710   8.118   0.029   1.759
10922TIP3    H132711   8.145  -0.052   1.802
10922TIP3    H232712   8.178   0.095   1.794
10923TIP3   OH232713   0.450   4.680   5.450
10923TIP3    H132714   0.434   4.656   5.541
10923TIP3    H232715   0.365   4.671   5.407
10924TIP3   OH232716   1.733   2.830   5.597
10924TIP3    H132717   1.704   2.902   5.654
10924TIP3    H232718   1.709   2.751   5.645
10925TIP3   OH232719   7.813   2.913   6.416
10925TIP3    H132720   7.878   2.961   6.467
10925TIP3    H232721   7.847   2.823   6.413
10926TIP3   OH232722   2.323   6.575   0.337
10926TIP3    H132723   2.395   6.543   0.284
10926TIP3    H232724   2.362   6.642   0.393
10927TIP3   OH232725   3.515   3.179   6.423
10927TIP3    H132726   3.564   3.160   6.503
10927TIP3    H232727   3.580   3.211   6.361
10928TIP3   OH232728   2.178   1.679   1.947
10928TIP3    H132729   2.267   1.707   1.926
10928TIP3    H232730   2.182   1.653   2.039
10929TIP3   OH232731   4.910   4.977   6.296
10929TIP3    H132732   4.954   4.919   6.358
10929TIP3    H232733   4.820   4.985   6.329
10930TIP3   OH232734   3.584   3.293   3.357
10930TIP3    H132735   3.629   3.236   3.295
10930TIP3    H232736   3.523   3.343   3.303
10931TIP3   OH232737   1.892   3.619   4.540
10931TIP3    H132738   1.972   3.655   4.501
10931TIP3    H232739   1.821   3.663   4.494
10932TIP3   OH232740   7.390   0.503   5.276
10932TIP3    H132741   7.326   0.567   5.245
10932TIP3    H232742   7.397   0.521   5.370
10933TIP3   OH232743   8.174   0.244   5.328
10933TIP3    H132744   8.246   0.260   5.389
10933TIP3    H232745   8.097   0.282   5.371
10934TIP3   OH232746   8.279   6.605   1.782
10934TIP3    H132747   8.311   6.521   1.813
10934TIP3    H232748   8.352   6.642   1.733
10935TIP3   OH232749   8.002   2.296   6.557
10935TIP3    H132750   8.083   2.245   6.560
10935TIP3    H232751   8.027   2.378   6.513
10936TIP3   OH232752   6.478   0.670   0.814
10936TIP3    H132753   6.516   0.630   0.892
10936TIP3    H232754   6.552   0.710   0.768
10937TIP3   OH232755   7.363   3.811   5.695
10937TIP3    H132756   7.276   3.821   5.732
10937TIP3    H232757   7.408   3.751   5.754
10938TIP3   OH232758   7.178   7.610   2.471
10938TIP3    H132759   7.273   7.607   2.460
10938TIP3    H232760   7.161   7.694   2.513
10939TIP3   OH232761   2.474   5.872   4.145
10939TIP3    H132762   2.512   5.787   4.167
10939TIP3    H232763   2.479   5.922   4.226
10940TIP3   OH232764   3.912   5.584   0.836
10940TIP3    H132765   3.853   5.514   0.866
10940TIP3    H232766   3.862   5.664   0.849
10941TIP3   OH232767   3.722   2.554   6.446
10941TIP3    H132768   3.792   2.492   6.468
10941TIP3    H232769   3.764   2.640   6.450
10942TIP3   OH232770   7.149   7.735   1.177
10942TIP3    H132771   7.157   7.682   1.098
10942TIP3    H232772   7.109   7.817   1.148
10943TIP3   OH232773   3.289   2.847   1.665
10943TIP3    H132774   3.232   2.842   1.588
10943TIP3    H232775   3.328   2.935   1.660
10944TIP3   OH232776   7.383   3.626   2.234
10944TIP3    H132777   7.299   3.639   2.277
10944TIP3    H232778   7.400   3.708   2.188
10945TIP3   OH232779   0.107   1.753   5.847
10945TIP3    H132780   0.156   1.681   5.887
10945TIP3    H232781   0.174   1.812   5.812
10946TIP3   OH232782   4.162   6.262   1.572
10946TIP3    H132783   4.110   6.257   1.653
10946TIP3    H232784   4.242   6.308   1.598
10947TIP3   OH232785   5.178   3.808   3.116
10947TIP3    H132786   5.239   3.859   3.169
10947TIP3    H232787   5.098   3.803   3.169
10948TIP3   OH232788   0.778   0.961   2.241
10948TIP3    H132789   0.710   0.914   2.193
10948TIP3    H232790   0.853   0.902   2.240
10949TIP3   OH232791   3.875   3.930   3.502
10949TIP3    H132792   3.900   3.869   3.432
10949TIP3    H232793   3.880   3.879   3.582
10950TIP3   OH232794   6.322   6.189   1.023
10950TIP3    H132795   6.350   6.100   1.002
10950TIP3    H232796   6.397   6.228   1.066
10951TIP3   OH232797   0.856   4.186   0.573
10951TIP3    H132798   0.934   4.131   0.565
10951TIP3    H232799   0.853   4.236   0.492
10952TIP3   OH232800   2.801   4.723   2.364
10952TIP3    H132801   2.875   4.670   2.335
10952TIP3    H232802   2.805   4.719   2.459
10953TIP3   OH232803   6.166   2.059   1.228
10953TIP3    H132804   6.245   2.019   1.193
10953TIP3    H232805   6.111   2.076   1.152
10954TIP3   OH232806   4.177   1.581   1.754
10954TIP3    H132807   4.218   1.517   1.696
10954TIP3    H232808   4.187   1.543   1.842
10955TIP3   OH232809   4.574   7.012   3.113
10955TIP3    H132810   4.506   7.058   3.162
10955TIP3    H232811   4.656   7.040   3.153
10956TIP3   OH232812   3.223   7.169   0.957
10956TIP3    H132813   3.178   7.243   0.999
10956TIP3    H232814   3.314   7.178   0.984
10957TIP3   OH232815   2.943   6.737   0.966
10957TIP3    H132816   2.882   6.665   0.946
10957TIP3    H232817   3.023   6.714   0.919
10958TIP3   OH232818   2.892   6.641   4.987
10958TIP3    H132819   2.955   6.649   5.059
10958TIP3    H232820   2.877   6.731   4.958
10959TIP3   OH232821   6.391   2.616   1.138
10959TIP3    H132822   6.359   2.631   1.049
10959TIP3    H232823   6.444   2.537   1.132
10960TIP3   OH232824   6.994   4.210   2.696
10960TIP3    H132825   7.054   4.282   2.674
10960TIP3    H232826   6.919   4.254   2.737
10961TIP3   OH232827   6.195   7.196   4.940
10961TIP3    H132828   6.103   7.179   4.959
10961TIP3    H232829   6.212   7.281   4.981
10962TIP3   OH232830   7.615   6.249   4.874
10962TIP3    H132831   7.688   6.222   4.930
10962TIP3    H232832   7.602   6.341   4.894
10963TIP3   OH232833   5.151   6.586   3.424
10963TIP3    H132834   5.069   6.635   3.428
10963TIP3    H232835   5.152   6.547   3.336
10964TIP3   OH232836   0.642   2.433   0.194
10964TIP3    H132837   0.705   2.371   0.159
10964TIP3    H232838   0.682   2.465   0.275
10965TIP3   OH232839   1.467   0.867   0.655
10965TIP3    H132840   1.538   0.894   0.596
10965TIP3    H232841   1.390   0.914   0.622
10966TIP3   OH232842   4.227   4.523   3.635
10966TIP3    H132843   4.299   4.584   3.648
10966TIP3    H232844   4.255   4.468   3.562
10967TIP3   OH232845   1.815   7.634   5.570
10967TIP3    H132846   1.828   7.564   5.635
10967TIP3    H232847   1.807   7.714   5.623
10968TIP3   OH232848   4.480   5.705   3.751
10968TIP3    H132849   4.510   5.624   3.793
10968TIP3    H232850   4.458   5.679   3.662
10969TIP3   OH232851   8.093   5.500   1.820
10969TIP3    H132852   8.057   5.413   1.834
10969TIP3    H232853   8.053   5.554   1.889
10970TIP3   OH232854   2.829   0.964   0.496
10970TIP3    H132855   2.879   1.005   0.426
10970TIP3    H232856   2.745   1.009   0.496
10971TIP3   OH232857   5.469   1.846   5.555
10971TIP3    H132858   5.499   1.806   5.473
10971TIP3    H232859   5.510   1.793   5.623
10972TIP3   OH232860   0.100   5.428   3.214
10972TIP3    H132861   0.181   5.471   3.190
10972TIP3    H232862   0.046   5.433   3.135
10973TIP3   OH232863   7.770   4.762   3.032
10973TIP3    H132864   7.681   4.733   3.049
10973TIP3    H232865   7.797   4.807   3.112
10974TIP3   OH232866   2.757   3.425   6.389
10974TIP3    H132867   2.843   3.384   6.384
10974TIP3    H232868   2.696   3.352   6.401
10975TIP3   OH232869   1.619   2.368   2.078
10975TIP3    H132870   1.647   2.278   2.095
10975TIP3    H232871   1.606   2.371   1.983
10976TIP3   OH232872   7.186   3.220   2.534
10976TIP3    H132873   7.240   3.154   2.491
10976TIP3    H232874   7.161   3.180   2.618
10977TIP3   OH232875   6.297   4.714   1.084
10977TIP3    H132876   6.343   4.736   1.165
10977TIP3    H232877   6.277   4.621   1.093
10978TIP3   OH232878   1.214   1.841   1.413
10978TIP3    H132879   1.261   1.808   1.337
10978TIP3    H232880   1.282   1.858   1.478
10979TIP3   OH232881   4.955   5.654   6.533
10979TIP3    H132882   4.966   5.576   6.587
10979TIP3    H232883   4.976   5.625   6.445
10980TIP3   OH232884   1.324   1.719   1.175
10980TIP3    H132885   1.326   1.691   1.084
10980TIP3    H232886   1.416   1.724   1.201
10981TIP3   OH232887   2.724   2.719   4.395
10981TIP3    H132888   2.771   2.801   4.411
10981TIP3    H232889   2.740   2.700   4.302
10982TIP3   OH232890   2.821   1.939   1.232
10982TIP3    H132891   2.855   1.850   1.242
10982TIP3    H232892   2.855   1.986   1.308
10983TIP3   OH232893   5.787   6.102   5.522
10983TIP3    H132894   5.842   6.049   5.464
10983TIP3    H232895   5.847   6.162   5.565
10984TIP3   OH232896   7.628   7.179   6.662
10984TIP3    H132897   7.675   7.106   6.623
10984TIP3    H232898   7.685   7.211   6.732
10985TIP3   OH232899   3.056   7.159   6.156
10985TIP3    H132900   3.013   7.244   6.161
10985TIP3    H232901   3.053   7.135   6.063
10986TIP3   OH232902   4.189   6.681   0.586
10986TIP3    H132903   4.118   6.624   0.613
10986TIP3    H232904   4.215   6.727   0.666
10987TIP3   OH232905   3.284   1.642   0.029
10987TIP3    H132906   3.254   1.587  -0.044
10987TIP3    H232907   3.206   1.653   0.084
10988TIP3   OH232908   3.088   3.705   6.602
10988TIP3    H132909   3.061   3.715   6.693
10988TIP3    H232910   3.067   3.788   6.560
10989TIP3   OH232911   8.037   7.372   3.243
10989TIP3    H132912   8.078   7.432   3.305
10989TIP3    H232913   7.943   7.378   3.262
10990TIP3   OH232914   5.303   1.152   0.458
10990TIP3    H132915   5.392   1.185   0.468
10990TIP3    H232916   5.252   1.206   0.519
10991TIP3   OH232917   8.020   2.960   4.877
10991TIP3    H132918   7.974   2.887   4.836
10991TIP3    H232919   8.025   3.027   4.808
10992TIP3   OH232920   2.791   7.790   0.921
10992TIP3    H132921   2.721   7.802   0.986
10992TIP3    H232922   2.836   7.710   0.949
10993TIP3   OH232923   2.439   6.961   5.235
10993TIP3    H132924   2.432   6.866   5.234
10993TIP3    H232925   2.402   6.988   5.319
10994TIP3   OH232926   7.613   0.079   6.415
10994TIP3    H132927   7.681   0.016   6.391
10994TIP3    H232928   7.650   0.164   6.391
10995TIP3   OH232929   0.811   1.934   0.286
10995TIP3    H132930   0.749   2.003   0.310
10995TIP3    H232931   0.787   1.859   0.340
10996TIP3   OH232932   1.559   0.807   2.855
10996TIP3    H132933   1.482   0.779   2.804
10996TIP3    H232934   1.556   0.754   2.934
10997TIP3   OH232935   3.034   3.072   1.954
10997TIP3    H132936   3.011   3.000   1.896
10997TIP3    H232937   2.963   3.135   1.944
10998TIP3   OH232938   2.735   4.445   2.804
10998TIP3    H132939   2.681   4.499   2.747
10998TIP3    H232940   2.677   4.424   2.878
10999TIP3   OH232941   6.754   0.644   6.728
10999TIP3    H132942   6.764   0.607   6.641
10999TIP3    H232943   6.787   0.576   6.787
11000TIP3   OH232944   3.719   0.035   3.998
11000TIP3    H132945   3.727   0.059   3.906
11000TIP3    H232946   3.717   0.119   4.044
11001TIP3   OH232947   5.786   1.253   6.165
11001TIP3    H132948   5.722   1.211   6.224
11001TIP3    H232949   5.796   1.341   6.201
11002TIP3   OH232950   0.162   7.493   0.585
11002TIP3    H132951   0.070   7.512   0.569
11002TIP3    H232952   0.207   7.577   0.574
11003TIP3   OH232953   8.104   3.138   1.355
11003TIP3    H132954   8.126   3.202   1.288
11003TIP3    H232955   8.027   3.174   1.400
11004TIP3   OH232956   3.854   5.642   3.667
11004TIP3    H132957   3.855   5.600   3.581
11004TIP3    H232958   3.769   5.686   3.671
11005TIP3   OH232959   5.311   2.944   1.400
11005TIP3    H132960   5.366   2.880   1.355
11005TIP3    H232961   5.373   3.007   1.437
11006TIP3   OH232962   5.029   7.799   4.694
11006TIP3    H132963   4.991   7.885   4.675
11006TIP3    H232964   5.093   7.816   4.764
11007TIP3   OH232965   8.141   2.542   4.489
11007TIP3    H132966   8.067   2.586   4.531
11007TIP3    H232967   8.210   2.607   4.489
11008TIP3   OH232968   2.043   0.107   1.994
11008TIP3    H132969   1.977   0.156   1.944
11008TIP3    H232970   2.099   0.068   1.927
11009TIP3   OH232971   0.777   6.529   5.284
11009TIP3    H132972   0.734   6.597   5.336
11009TIP3    H232973   0.861   6.514   5.328
11010TIP3   OH232974   1.262   1.185   1.809
11010TIP3    H132975   1.305   1.163   1.891
11010TIP3    H232976   1.199   1.114   1.795
11011TIP3   OH232977   2.888   4.159   0.410
11011TIP3    H132978   2.937   4.177   0.490
11011TIP3    H232979   2.804   4.124   0.440
11012TIP3   OH232980   7.713   1.492   6.071
11012TIP3    H132981   7.761   1.562   6.027
11012TIP3    H232982   7.665   1.536   6.141
11013TIP3   OH232983   1.764   1.569   1.376
11013TIP3    H132984   1.827   1.522   1.430
11013TIP3    H232985   1.680   1.527   1.394
11014TIP3   OH232986   5.802   7.153   5.657
11014TIP3    H132987   5.840   7.241   5.666
11014TIP3    H232988   5.718   7.159   5.702
11015TIP3   OH232989   5.250   6.237   5.283
11015TIP3    H132990   5.310   6.297   5.328
11015TIP3    H232991   5.237   6.165   5.344
11016TIP3   OH232992   1.847   1.528   1.129
11016TIP3    H132993   1.915   1.465   1.152
11016TIP3    H232994   1.786   1.525   1.203
11017TIP3   OH232995   6.252   3.606   6.177
11017TIP3    H132996   6.191   3.669   6.214
11017TIP3    H232997   6.214   3.582   6.093
11018TIP3   OH232998   5.426   5.724   0.389
11018TIP3    H132999   5.346   5.769   0.416
11018TIP3    H233000   5.487   5.794   0.367
11019TIP3   OH233001   2.357   0.112   4.972
11019TIP3    H133002   2.391   0.038   4.922
11019TIP3    H233003   2.380   0.189   4.920
11020TIP3   OH233004   0.046   1.163   6.074
11020TIP3    H133005   0.111   1.101   6.107
11020TIP3    H233006   0.096   1.241   6.052
11021TIP3   OH233007   1.604   4.065   1.010
11021TIP3    H133008   1.538   4.115   1.056
11021TIP3    H233009   1.646   4.129   0.952
11022TIP3   OH233010   7.789   4.260   4.115
11022TIP3    H133011   7.774   4.331   4.177
11022TIP3    H233012   7.874   4.280   4.075
11023TIP3   OH233013   6.969   7.343   0.520
11023TIP3    H133014   7.043   7.372   0.573
11023TIP3    H233015   6.906   7.414   0.525
11024TIP3   OH233016   0.607   1.623   4.281
11024TIP3    H133017   0.592   1.533   4.254
11024TIP3    H233018   0.530   1.647   4.332
11025TIP3   OH233019   5.087   5.174   6.597
11025TIP3    H133020   5.025   5.130   6.538
11025TIP3    H233021   5.139   5.103   6.635
11026TIP3   OH233022   5.317   1.274   6.264
11026TIP3    H133023   5.355   1.206   6.320
11026TIP3    H233024   5.223   1.268   6.279
11027TIP3   OH233025   1.179   7.517   0.601
11027TIP3    H133026   1.100   7.565   0.625
11027TIP3    H233027   1.243   7.540   0.668
11028TIP3   OH233028   4.212   7.252   5.368
11028TIP3    H133029   4.284   7.295   5.414
11028TIP3    H233030   4.164   7.205   5.436
11029TIP3   OH233031   5.648   0.838   2.204
11029TIP3    H133032   5.737   0.854   2.235
11029TIP3    H233033   5.614   0.925   2.181
11030TIP3   OH233034   2.734   1.492   1.896
11030TIP3    H133035   2.681   1.441   1.958
11030TIP3    H233036   2.672   1.513   1.825
11031TIP3   OH233037   1.532   7.257   3.960
11031TIP3    H133038   1.489   7.340   3.940
11031TIP3    H233039   1.484   7.223   4.036
11032TIP3   OH233040   8.111   7.600   5.548
11032TIP3    H133041   8.132   7.659   5.620
11032TIP3    H233042   8.086   7.518   5.590
11033TIP3   OH233043   7.522   2.397   5.144
11033TIP3    H133044   7.573   2.324   5.179
11033TIP3    H233045   7.436   2.360   5.127
11034TIP3   OH233046   3.334   4.621   4.657
11034TIP3    H133047   3.274   4.556   4.693
11034TIP3    H233048   3.415   4.609   4.706
11035TIP3   OH233049   5.473   7.023   6.727
11035TIP3    H133050   5.472   6.942   6.676
11035TIP3    H233051   5.388   7.026   6.770
11036TIP3   OH233052   3.754   7.239   4.498
11036TIP3    H133053   3.812   7.202   4.564
11036TIP3    H233054   3.758   7.334   4.512
11037TIP3   OH233055   3.077   4.129   1.926
11037TIP3    H133056   3.130   4.190   1.978
11037TIP3    H233057   2.991   4.170   1.921
11038TIP3   OH233058   1.288   2.010   5.401
11038TIP3    H133059   1.289   1.914   5.397
11038TIP3    H233060   1.381   2.034   5.410
11039TIP3   OH233061   2.490   4.459   2.930
11039TIP3    H133062   2.423   4.497   2.872
11039TIP3    H233063   2.452   4.464   3.017
11040TIP3   OH233064   8.136   1.120   5.454
11040TIP3    H133065   8.151   1.082   5.367
11040TIP3    H233066   8.213   1.094   5.505
11041TIP3   OH233067   5.515   1.492   0.319
11041TIP3    H133068   5.593   1.513   0.369
11041TIP3    H233069   5.445   1.489   0.384
11042TIP3   OH233070   8.221   6.322   1.430
11042TIP3    H133071   8.135   6.322   1.388
11042TIP3    H233072   8.257   6.235   1.412
11043TIP3   OH233073   0.662   4.570   1.774
11043TIP3    H133074   0.668   4.487   1.820
11043TIP3    H233075   0.663   4.546   1.681
11044TIP3   OH233076   2.418   2.099   3.008
11044TIP3    H133077   2.481   2.113   2.937
11044TIP3    H233078   2.389   2.187   3.032
11045TIP3   OH233079   6.399   4.911   0.149
11045TIP3    H133080   6.312   4.927   0.186
11045TIP3    H233081   6.384   4.905   0.054
11046TIP3   OH233082   3.894   6.475   3.341
11046TIP3    H133083   3.939   6.511   3.265
11046TIP3    H233084   3.802   6.499   3.328
11047TIP3   OH233085   2.392   5.473   0.617
11047TIP3    H133086   2.357   5.560   0.600
11047TIP3    H233087   2.485   5.479   0.593
11048TIP3   OH233088   3.636   1.761   3.082
11048TIP3    H133089   3.725   1.749   3.114
11048TIP3    H233090   3.590   1.681   3.109
11049TIP3   OH233091   3.965   2.652   0.238
11049TIP3    H133092   3.985   2.704   0.161
11049TIP3    H233093   4.039   2.668   0.297
11050TIP3   OH233094   1.092   3.885   0.574
11050TIP3    H133095   1.077   3.836   0.654
11050TIP3    H233096   1.012   3.873   0.523
11051TIP3   OH233097   2.015   2.827   1.865
11051TIP3    H133098   2.079   2.811   1.796
11051TIP3    H233099   1.948   2.759   1.852
11052TIP3   OH233100   4.311   7.071   6.207
11052TIP3    H133101   4.299   7.011   6.281
11052TIP3    H233102   4.296   7.158   6.245
11053TIP3   OH233103   2.150   7.598   5.022
11053TIP3    H133104   2.160   7.522   4.965
11053TIP3    H233105   2.211   7.662   4.987
11054TIP3   OH233106   3.864   1.195   2.891
11054TIP3    H133107   3.812   1.273   2.869
11054TIP3    H233108   3.860   1.191   2.987
11055TIP3   OH233109   6.142   2.426   0.683
11055TIP3    H133110   6.079   2.473   0.628
11055TIP3    H233111   6.183   2.362   0.624
11056TIP3   OH233112   2.722   3.292   3.101
11056TIP3    H133113   2.644   3.348   3.095
11056TIP3    H233114   2.731   3.274   3.195
11057TIP3   OH233115   3.847   4.735   6.670
11057TIP3    H133116   3.895   4.777   6.741
11057TIP3    H233117   3.881   4.646   6.667
11058TIP3   OH233118   1.164   5.267   0.463
11058TIP3    H133119   1.171   5.282   0.369
11058TIP3    H233120   1.249   5.294   0.498
11059TIP3   OH233121   5.044   2.218   2.573
11059TIP3    H133122   5.097   2.142   2.596
11059TIP3    H233123   5.080   2.247   2.489
11060TIP3   OH233124   6.259   0.438   1.548
11060TIP3    H133125   6.248   0.443   1.643
11060TIP3    H233126   6.264   0.530   1.521
11061TIP3   OH233127   0.437   6.136   5.329
11061TIP3    H133128   0.479   6.209   5.284
11061TIP3    H233129   0.360   6.174   5.371
11062TIP3   OH233130   4.836   7.812   4.392
11062TIP3    H133131   4.906   7.750   4.412
11062TIP3    H233132   4.816   7.796   4.300
11063TIP3   OH233133   7.822   4.312   1.212
11063TIP3    H133134   7.893   4.260   1.248
11063TIP3    H233135   7.815   4.283   1.121
11064TIP3   OH233136   7.900   4.052   1.835
11064TIP3    H133137   7.861   4.139   1.842
11064TIP3    H233138   7.835   3.994   1.875
11065TIP3   OH233139   4.158   1.959   2.186
11065TIP3    H133140   4.085   2.018   2.166
11065TIP3    H233141   4.117   1.880   2.219
11066TIP3   OH233142   3.350   2.934   5.055
11066TIP3    H133143   3.329   2.974   4.971
11066TIP3    H233144   3.358   3.008   5.115
11067TIP3   OH233145   0.857   4.813   2.362
11067TIP3    H133146   0.813   4.873   2.422
11067TIP3    H233147   0.794   4.742   2.349
11068TIP3   OH233148   1.464   0.815   4.213
11068TIP3    H133149   1.434   0.893   4.166
11068TIP3    H233150   1.532   0.777   4.157
11069TIP3   OH233151   6.488   1.759   2.169
11069TIP3    H133152   6.496   1.692   2.102
11069TIP3    H233153   6.574   1.800   2.173
11070TIP3   OH233154   4.446   6.867   3.963
11070TIP3    H133155   4.360   6.868   4.005
11070TIP3    H233156   4.455   6.778   3.929
11071TIP3   OH233157   6.961   5.746   5.746
11071TIP3    H133158   6.869   5.736   5.722
11071TIP3    H233159   6.983   5.835   5.720
11072TIP3   OH233160   3.493   5.699   5.367
11072TIP3    H133161   3.445   5.780   5.349
11072TIP3    H233162   3.432   5.646   5.418
11073TIP3   OH233163   4.319   1.109   0.978
11073TIP3    H133164   4.331   1.057   0.899
11073TIP3    H233165   4.343   1.198   0.952
11074TIP3   OH233166   2.011   1.014   2.851
11074TIP3    H133167   1.936   0.967   2.814
11074TIP3    H233168   2.057   0.948   2.903
11075TIP3   OH233169   0.919   7.718   4.601
11075TIP3    H133170   0.867   7.789   4.638
11075TIP3    H233171   1.009   7.743   4.617
11076TIP3   OH233172   6.890   7.262   5.512
11076TIP3    H133173   6.930   7.340   5.473
11076TIP3    H233174   6.858   7.291   5.597
11077TIP3   OH233175   6.553   6.293   1.120
11077TIP3    H133176   6.625   6.239   1.085
11077TIP3    H233177   6.572   6.301   1.213
11078TIP3   OH233178   2.188   4.718   6.637
11078TIP3    H133179   2.184   4.625   6.658
11078TIP3    H233180   2.281   4.740   6.641
11079TIP3   OH233181   7.216   5.671   6.192
11079TIP3    H133182   7.241   5.763   6.201
11079TIP3    H233183   7.176   5.666   6.106
11080TIP3   OH233184   0.493   6.361   5.521
11080TIP3    H133185   0.583   6.338   5.542
11080TIP3    H233186   0.468   6.425   5.588
11081TIP3   OH233187   6.114   4.965   1.582
11081TIP3    H133188   6.120   4.921   1.667
11081TIP3    H233189   6.202   4.957   1.545
11082TIP3   OH233190   1.811   5.111   2.580
11082TIP3    H133191   1.762   5.039   2.620
11082TIP3    H233192   1.754   5.143   2.510
11083TIP3   OH233193   2.150   1.216   4.462
11083TIP3    H133194   2.055   1.215   4.472
11083TIP3    H233195   2.184   1.217   4.551
11084TIP3   OH233196   1.228   0.825   0.957
11084TIP3    H133197   1.205   0.917   0.958
11084TIP3    H233198   1.324   0.824   0.948
11085TIP3   OH233199   4.524   2.380   1.867
11085TIP3    H133200   4.582   2.366   1.792
11085TIP3    H233201   4.436   2.374   1.830
11086TIP3   OH233202   4.548   0.908   5.072
11086TIP3    H133203   4.583   0.991   5.105
11086TIP3    H233204   4.497   0.932   4.995
11087TIP3   OH233205   0.383   6.944   3.906
11087TIP3    H133206   0.407   7.037   3.916
11087TIP3    H233207   0.365   6.915   3.996
11088TIP3   OH233208   2.303   4.175   4.839
11088TIP3    H133209   2.222   4.154   4.793
11088TIP3    H233210   2.371   4.168   4.771
11089TIP3   OH233211   2.084   6.428   4.367
11089TIP3    H133212   2.061   6.377   4.290
11089TIP3    H233213   2.031   6.507   4.360
11090TIP3   OH233214   5.448   6.071   0.304
11090TIP3    H133215   5.483   6.020   0.377
11090TIP3    H233216   5.367   6.109   0.338
11091TIP3   OH233217   7.562   3.368   1.375
11091TIP3    H133218   7.577   3.457   1.405
11091TIP3    H233219   7.467   3.357   1.378
11092TIP3   OH233220   2.732   0.172   5.809
11092TIP3    H133221   2.715   0.151   5.717
11092TIP3    H233222   2.682   0.107   5.858
11093TIP3   OH233223   5.600   5.599   4.289
11093TIP3    H133224   5.508   5.597   4.316
11093TIP3    H233225   5.626   5.507   4.289
11094TIP3   OH233226   4.526   6.300   3.058
11094TIP3    H133227   4.514   6.392   3.082
11094TIP3    H233228   4.584   6.303   2.982
11095TIP3   OH233229   3.950   2.628   4.462
11095TIP3    H133230   3.946   2.687   4.537
11095TIP3    H233231   4.026   2.571   4.480
11096TIP3   OH233232   1.864   1.395   2.610
11096TIP3    H133233   1.848   1.484   2.577
11096TIP3    H233234   1.938   1.405   2.669
11097TIP3   OH233235   1.216   0.691   0.735
11097TIP3    H133236   1.128   0.658   0.718
11097TIP3    H233237   1.209   0.739   0.818
11098TIP3   OH233238   7.497   1.602   4.740
11098TIP3    H133239   7.417   1.568   4.781
11098TIP3    H233240   7.566   1.583   4.803
11099TIP3   OH233241   7.607   2.868   2.778
11099TIP3    H133242   7.582   2.891   2.868
11099TIP3    H233243   7.702   2.856   2.782
11100TIP3   OH233244   3.026   4.437   1.794
11100TIP3    H133245   2.951   4.409   1.846
11100TIP3    H233246   2.988   4.485   1.720
11101TIP3   OH233247   6.744   0.936   6.107
11101TIP3    H133248   6.739   0.846   6.076
11101TIP3    H233249   6.653   0.965   6.113
11102TIP3   OH233250   1.166   5.050   1.533
11102TIP3    H133251   1.125   5.061   1.619
11102TIP3    H233252   1.122   4.974   1.495
11103TIP3   OH233253   4.493   1.345   5.058
11103TIP3    H133254   4.555   1.384   4.997
11103TIP3    H233255   4.413   1.398   5.047
11104TIP3   OH233256   6.970   5.375   2.649
11104TIP3    H133257   7.061   5.351   2.664
11104TIP3    H233258   6.971   5.471   2.641
11105TIP3   OH233259   4.076   5.999   1.608
11105TIP3    H133260   4.143   5.969   1.669
11105TIP3    H233261   4.117   6.073   1.563
11106TIP3   OH233262   2.442   5.457   4.960
11106TIP3    H133263   2.491   5.391   4.912
11106TIP3    H233264   2.501   5.483   5.031
11107TIP3   OH233265   4.783   0.909   1.355
11107TIP3    H133266   4.773   0.819   1.323
11107TIP3    H233267   4.850   0.947   1.297
11108TIP3   OH233268   6.391   6.039   0.091
11108TIP3    H133269   6.467   6.051   0.147
11108TIP3    H233270   6.322   6.008   0.151
11109TIP3   OH233271   2.452   5.611   3.771
11109TIP3    H133272   2.391   5.538   3.786
11109TIP3    H233273   2.530   5.588   3.822
11110TIP3   OH233274   2.313   4.209   5.197
11110TIP3    H133275   2.393   4.157   5.201
11110TIP3    H233276   2.248   4.150   5.158
11111TIP3   OH233277   3.946   6.229   6.257
11111TIP3    H133278   3.955   6.187   6.171
11111TIP3    H233279   3.923   6.319   6.237
11112TIP3   OH233280   2.274   2.488   1.424
11112TIP3    H133281   2.200   2.434   1.397
11112TIP3    H233282   2.255   2.574   1.387
11113TIP3   OH233283   6.359   5.086   3.072
11113TIP3    H133284   6.450   5.097   3.044
11113TIP3    H233285   6.358   5.114   3.163
11114TIP3   OH233286   3.915   2.235   0.623
11114TIP3    H133287   3.835   2.183   0.616
11114TIP3    H233288   3.983   2.172   0.648
11115TIP3   OH233289   2.631   4.507   0.245
11115TIP3    H133290   2.680   4.532   0.167
11115TIP3    H233291   2.569   4.578   0.259
11116TIP3   OH233292   1.515   3.956   1.354
11116TIP3    H133293   1.480   3.989   1.436
11116TIP3    H233294   1.525   3.861   1.368
11117TIP3   OH233295   1.896   4.404   0.308
11117TIP3    H133296   1.943   4.328   0.341
11117TIP3    H233297   1.813   4.405   0.356
11118TIP3   OH233298   7.335   3.006   5.646
11118TIP3    H133299   7.304   2.918   5.625
11118TIP3    H233300   7.405   2.992   5.710
11119TIP3   OH233301   7.560   1.722   0.871
11119TIP3    H133302   7.541   1.634   0.840
11119TIP3    H233303   7.623   1.757   0.809
11120TIP3   OH233304   6.191   7.741   3.015
11120TIP3    H133305   6.281   7.761   3.042
11120TIP3    H233306   6.200   7.664   2.959
11121TIP3   OH233307   6.888   4.818   0.388
11121TIP3    H133308   6.910   4.896   0.439
11121TIP3    H233309   6.855   4.755   0.453
11122TIP3   OH233310   1.932   5.317   4.173
11122TIP3    H133311   2.019   5.278   4.164
11122TIP3    H233312   1.876   5.244   4.201
11123TIP3   OH233313   4.852   5.746   2.523
11123TIP3    H133314   4.849   5.713   2.433
11123TIP3    H233315   4.820   5.673   2.577
11124TIP3   OH233316   2.961   7.166   6.532
11124TIP3    H133317   3.045   7.136   6.495
11124TIP3    H233318   2.982   7.189   6.622
11125TIP3   OH233319   1.012   1.160   5.375
11125TIP3    H133320   1.086   1.164   5.437
11125TIP3    H233321   1.025   1.237   5.319
11126TIP3   OH233322   2.355   0.990   5.572
11126TIP3    H133323   2.305   0.943   5.639
11126TIP3    H233324   2.443   0.952   5.576
11127TIP3   OH233325   3.673   0.414   5.274
11127TIP3    H133326   3.699   0.375   5.358
11127TIP3    H233327   3.599   0.362   5.245
11128TIP3   OH233328   1.313   5.467   4.181
11128TIP3    H133329   1.313   5.373   4.199
11128TIP3    H233330   1.275   5.506   4.259
11129TIP3   OH233331   3.964   5.888   3.686
11129TIP3    H133332   3.928   5.801   3.672
11129TIP3    H233333   3.996   5.914   3.599
11130TIP3   OH233334   5.356   5.846   5.492
11130TIP3    H133335   5.271   5.849   5.447
11130TIP3    H233336   5.354   5.921   5.552
11131TIP3   OH233337   7.992   6.794   3.630
11131TIP3    H133338   7.967   6.886   3.622
11131TIP3    H233339   7.994   6.762   3.539
11132TIP3   OH233340   6.024   2.278   1.656
11132TIP3    H133341   5.999   2.199   1.704
11132TIP3    H233342   6.120   2.272   1.649
11133TIP3   OH233343   7.381   1.357   6.716
11133TIP3    H133344   7.372   1.365   6.811
11133TIP3    H233345   7.403   1.265   6.702
11134TIP3   OH233346   3.009   6.807   6.496
11134TIP3    H133347   3.027   6.718   6.466
11134TIP3    H233348   2.960   6.847   6.424
11135TIP3   OH233349   2.294   0.571   1.409
11135TIP3    H133350   2.382   0.533   1.416
11135TIP3    H233351   2.278   0.577   1.314
11136TIP3   OH233352   4.162   4.600   5.367
11136TIP3    H133353   4.181   4.510   5.395
11136TIP3    H233354   4.241   4.649   5.390
11137TIP3   OH233355   7.334   1.895   5.427
11137TIP3    H133356   7.252   1.943   5.433
11137TIP3    H233357   7.379   1.913   5.509
11138TIP3   OH233358   3.485   7.545   0.541
11138TIP3    H133359   3.513   7.632   0.569
11138TIP3    H233360   3.534   7.528   0.461
11139TIP3   OH233361   6.433   1.622   0.677
11139TIP3    H133362   6.403   1.558   0.741
11139TIP3    H233363   6.359   1.632   0.617
11140TIP3   OH233364   6.620   3.865   4.264
11140TIP3    H133365   6.636   3.943   4.318
11140TIP3    H233366   6.562   3.896   4.195
11141TIP3   OH233367   1.143   7.605   1.086
11141TIP3    H133368   1.178   7.526   1.128
11141TIP3    H233369   1.197   7.676   1.122
11142TIP3   OH233370   7.305   3.337   1.455
11142TIP3    H133371   7.267   3.421   1.430
11142TIP3    H233372   7.255   3.310   1.533
11143TIP3   OH233373   1.553   0.907   1.878
11143TIP3    H133374   1.518   0.946   1.798
11143TIP3    H233375   1.519   0.963   1.949
11144TIP3   OH233376   5.529   4.021   4.695
11144TIP3    H133377   5.490   4.069   4.769
11144TIP3    H233378   5.613   3.990   4.728
11145TIP3   OH233379   3.079   6.924   3.432
11145TIP3    H133380   3.036   6.982   3.369
11145TIP3    H233381   3.075   6.838   3.392
11146TIP3   OH233382   4.264   4.774   6.701
11146TIP3    H133383   4.245   4.687   6.667
11146TIP3    H233384   4.352   4.793   6.671
11147TIP3   OH233385   0.935   6.146   4.130
11147TIP3    H133386   0.872   6.182   4.192
11147TIP3    H233387   0.959   6.220   4.075
11148TIP3   OH233388   6.449   1.689   3.242
11148TIP3    H133389   6.372   1.634   3.253
11148TIP3    H233390   6.476   1.711   3.331
11149TIP3   OH233391   3.885   6.592   0.348
11149TIP3    H133392   3.919   6.547   0.425
11149TIP3    H233393   3.790   6.581   0.353
11150TIP3   OH233394   3.432   2.692   3.656
11150TIP3    H133395   3.403   2.721   3.742
11150TIP3    H233396   3.521   2.724   3.648
11151TIP3   OH233397   7.315   7.478   1.318
11151TIP3    H133398   7.239   7.440   1.363
11151TIP3    H233399   7.285   7.491   1.228
11152TIP3   OH233400   8.235   1.397   3.276
11152TIP3    H133401   8.197   1.462   3.218
11152TIP3    H233402   8.263   1.446   3.353
11153TIP3   OH233403   2.096   5.681   4.289
11153TIP3    H133404   2.060   5.632   4.215
11153TIP3    H233405   2.118   5.613   4.353
11154TIP3   OH233406   4.458   6.734   5.261
11154TIP3    H133407   4.420   6.707   5.177
11154TIP3    H233408   4.384   6.768   5.310
11155TIP3   OH233409   0.883   3.408   2.085
11155TIP3    H133410   0.863   3.427   1.993
11155TIP3    H233411   0.869   3.314   2.093
11156TIP3   OH233412   2.805   3.453   5.642
11156TIP3    H133413   2.787   3.545   5.659
11156TIP3    H233414   2.722   3.418   5.608
11157TIP3   OH233415   4.887   7.765   2.659
11157TIP3    H133416   4.935   7.751   2.577
11157TIP3    H233417   4.944   7.824   2.709
11158TIP3   OH233418   3.202   0.089   3.489
11158TIP3    H133419   3.229   0.181   3.494
11158TIP3    H233420   3.279   0.040   3.520
11159TIP3   OH233421   3.964   4.153   5.198
11159TIP3    H133422   3.873   4.144   5.170
11159TIP3    H233423   4.001   4.220   5.140
11160TIP3   OH233424   0.904   2.554   0.040
11160TIP3    H133425   0.907   2.499   0.119
11160TIP3    H233426   0.995   2.578   0.024
11161TIP3   OH233427   3.599   7.118   1.836
11161TIP3    H133428   3.657   7.149   1.767
11161TIP3    H233429   3.618   7.175   1.911
11162TIP3   OH233430   7.293   2.350   1.963
11162TIP3    H133431   7.307   2.353   2.058
11162TIP3    H233432   7.214   2.402   1.949
11163TIP3   OH233433   5.737   5.210   2.428
11163TIP3    H133434   5.721   5.213   2.333
11163TIP3    H233435   5.736   5.302   2.455
11164TIP3   OH233436   1.073   3.380   0.838
11164TIP3    H133437   1.056   3.332   0.758
11164TIP3    H233438   1.055   3.318   0.909
11165TIP3   OH233439   3.459   5.528   2.496
11165TIP3    H133440   3.384   5.473   2.475
11165TIP3    H233441   3.472   5.514   2.590
11166TIP3   OH233442   6.856   5.429   2.231
11166TIP3    H133443   6.918   5.497   2.204
11166TIP3    H233444   6.782   5.478   2.268
11167TIP3   OH233445   5.122   1.018   2.296
11167TIP3    H133446   5.192   0.960   2.265
11167TIP3    H233447   5.041   0.978   2.263
11168TIP3   OH233448   0.185   3.142   4.979
11168TIP3    H133449   0.177   3.092   4.898
11168TIP3    H233450   0.270   3.117   5.015
11169TIP3   OH233451   2.849   2.648   2.949
11169TIP3    H133452   2.819   2.667   3.038
11169TIP3    H233453   2.854   2.733   2.906
11170TIP3   OH233454   5.008   4.108   2.564
11170TIP3    H133455   5.066   4.161   2.619
11170TIP3    H233456   5.050   4.023   2.559
11171TIP3   OH233457   6.073   0.241   2.576
11171TIP3    H133458   6.121   0.163   2.547
11171TIP3    H233459   6.014   0.260   2.503
11172TIP3   OH233460   5.826   7.208   4.189
11172TIP3    H133461   5.770   7.285   4.196
11172TIP3    H233462   5.806   7.172   4.103
11173TIP3   OH233463   5.713   3.413   4.133
11173TIP3    H133464   5.786   3.459   4.175
11173TIP3    H233465   5.754   3.339   4.088
11174TIP3   OH233466   0.500   1.979   3.644
11174TIP3    H133467   0.466   1.912   3.703
11174TIP3    H233468   0.593   1.986   3.668
11175TIP3   OH233469   1.311   5.475   4.759
11175TIP3    H133470   1.241   5.535   4.733
11175TIP3    H233471   1.346   5.512   4.840
11176TIP3   OH233472   5.454   3.308   1.776
11176TIP3    H133473   5.406   3.345   1.850
11176TIP3    H233474   5.519   3.375   1.754
11177TIP3   OH233475   3.394   3.402   2.338
11177TIP3    H133476   3.479   3.410   2.294
11177TIP3    H233477   3.338   3.359   2.272
11178TIP3   OH233478   5.206   1.594   4.933
11178TIP3    H133479   5.206   1.538   4.855
11178TIP3    H233480   5.247   1.540   5.001
11179TIP3   OH233481   1.441   2.554   2.914
11179TIP3    H133482   1.396   2.474   2.887
11179TIP3    H233483   1.377   2.602   2.966
11180TIP3   OH233484   7.660   0.303   1.940
11180TIP3    H133485   7.586   0.264   1.987
11180TIP3    H233486   7.705   0.228   1.901
11181TIP3   OH233487   2.361   0.854   6.721
11181TIP3    H133488   2.442   0.887   6.682
11181TIP3    H233489   2.302   0.843   6.647
11182TIP3   OH233490   4.690   5.064   4.845
11182TIP3    H133491   4.605   5.046   4.883
11182TIP3    H233492   4.671   5.094   4.757
11183TIP3   OH233493   0.722   0.653   6.577
11183TIP3    H133494   0.628   0.663   6.592
11183TIP3    H233495   0.730   0.574   6.524
11184TIP3   OH233496   4.631   6.031   0.461
11184TIP3    H133497   4.715   5.990   0.441
11184TIP3    H233498   4.590   5.973   0.525
11185TIP3   OH233499   0.591   5.706   2.556
11185TIP3    H133500   0.659   5.731   2.494
11185TIP3    H233501   0.511   5.702   2.503
11186TIP3   OH233502   1.251   0.294   3.834
11186TIP3    H133503   1.217   0.212   3.870
11186TIP3    H233504   1.176   0.335   3.792
11187TIP3   OH233505   0.941   3.825   0.342
11187TIP3    H133506   0.919   3.739   0.307
11187TIP3    H233507   0.858   3.873   0.344
11188TIP3   OH233508   1.332   0.341   0.977
11188TIP3    H133509   1.377   0.416   1.016
11188TIP3    H233510   1.333   0.359   0.883
11189TIP3   OH233511   4.195   5.974   3.264
11189TIP3    H133512   4.135   6.045   3.290
11189TIP3    H233513   4.273   5.988   3.318
11190TIP3   OH233514   4.300   4.144   4.588
11190TIP3    H133515   4.363   4.186   4.529
11190TIP3    H233516   4.234   4.106   4.529
11191TIP3   OH233517   2.777   1.090   0.876
11191TIP3    H133518   2.841   1.038   0.827
11191TIP3    H233519   2.706   1.105   0.814
11192TIP3   OH233520   7.070   2.121   2.352
11192TIP3    H133521   7.060   2.215   2.338
11192TIP3    H233522   7.008   2.101   2.422
11193TIP3   OH233523   0.872   5.874   4.072
11193TIP3    H133524   0.965   5.864   4.093
11193TIP3    H233525   0.867   5.852   3.979
11194TIP3   OH233526   7.492   2.313   2.951
11194TIP3    H133527   7.545   2.392   2.961
11194TIP3    H233528   7.448   2.325   2.867
11195TIP3   OH233529   2.497   1.982   2.410
11195TIP3    H133530   2.575   1.948   2.453
11195TIP3    H233531   2.441   1.905   2.397
11196TIP3   OH233532   4.312   6.163   3.844
11196TIP3    H133533   4.297   6.069   3.834
11196TIP3    H233534   4.320   6.176   3.939
11197TIP3   OH233535   4.437   5.349   0.933
11197TIP3    H133536   4.360   5.320   0.982
11197TIP3    H233537   4.420   5.320   0.843
11198TIP3   OH233538   0.524   4.195   3.935
11198TIP3    H133539   0.514   4.256   4.007
11198TIP3    H233540   0.611   4.157   3.946
11199TIP3   OH233541   5.084   0.415   2.417
11199TIP3    H133542   5.099   0.398   2.510
11199TIP3    H233543   5.171   0.433   2.382
11200TIP3   OH233544   4.625   2.054   3.918
11200TIP3    H133545   4.552   1.992   3.913
11200TIP3    H233546   4.586   2.134   3.955
11201TIP3   OH233547   6.624   4.322   1.657
11201TIP3    H133548   6.618   4.406   1.703
11201TIP3    H233549   6.535   4.307   1.624
11202TIP3   OH233550   5.477   6.609   2.295
11202TIP3    H133551   5.485   6.559   2.376
11202TIP3    H233552   5.563   6.649   2.284
11203TIP3   OH233553   7.424   4.909   4.668
11203TIP3    H133554   7.382   4.924   4.753
11203TIP3    H233555   7.506   4.865   4.690
11204TIP3   OH233556   7.746   5.863   5.178
11204TIP3    H133557   7.692   5.834   5.251
11204TIP3    H233558   7.713   5.815   5.102
11205TIP3   OH233559   0.548   0.332   4.924
11205TIP3    H133560   0.456   0.308   4.912
11205TIP3    H233561   0.558   0.414   4.875
11206TIP3   OH233562   3.711   6.052   3.697
11206TIP3    H133563   3.783   6.064   3.635
11206TIP3    H233564   3.705   6.136   3.743
11207TIP3   OH233565   2.525   5.979   0.908
11207TIP3    H133566   2.497   5.933   0.987
11207TIP3    H233567   2.492   5.926   0.835
11208TIP3   OH233568   6.612   4.300   4.939
11208TIP3    H133569   6.546   4.251   4.891
11208TIP3    H233570   6.683   4.238   4.955
11209TIP3   OH233571   1.933   1.808   4.696
11209TIP3    H133572   1.934   1.749   4.620
11209TIP3    H233573   1.979   1.887   4.665
11210TIP3   OH233574   6.482   4.145   3.836
11210TIP3    H133575   6.572   4.172   3.855
11210TIP3    H233576   6.439   4.224   3.807
11211TIP3   OH233577   2.243   3.942   5.711
11211TIP3    H133578   2.320   3.890   5.734
11211TIP3    H233579   2.216   3.909   5.626
11212TIP3   OH233580   3.553   6.270   2.238
11212TIP3    H133581   3.460   6.282   2.220
11212TIP3    H233582   3.584   6.212   2.169
11213TIP3   OH233583   6.344   7.596   4.859
11213TIP3    H133584   6.265   7.597   4.805
11213TIP3    H233585   6.415   7.580   4.797
11214TIP3   OH233586   6.279   0.840   5.321
11214TIP3    H133587   6.323   0.925   5.320
11214TIP3    H233588   6.258   0.825   5.413
11215TIP3   OH233589   7.987   6.379   5.820
11215TIP3    H133590   7.953   6.294   5.790
11215TIP3    H233591   8.018   6.421   5.740
11216TIP3   OH233592   5.294   0.824   2.120
11216TIP3    H133593   5.361   0.882   2.081
11216TIP3    H233594   5.321   0.736   2.095
11217TIP3   OH233595   5.319   2.422   5.568
11217TIP3    H133596   5.264   2.382   5.501
11217TIP3    H233597   5.301   2.372   5.647
11218TIP3   OH233598   1.577   3.100   2.797
11218TIP3    H133599   1.560   3.007   2.813
11218TIP3    H233600   1.546   3.144   2.875
11219TIP3   OH233601   7.642   4.905   2.029
11219TIP3    H133602   7.610   4.899   1.939
11219TIP3    H233603   7.563   4.901   2.083
11220TIP3   OH233604   7.453   1.290   4.068
11220TIP3    H133605   7.527   1.312   4.126
11220TIP3    H233606   7.488   1.225   4.008
11221TIP3   OH233607   1.355   5.400   4.514
11221TIP3    H133608   1.357   5.405   4.610
11221TIP3    H233609   1.386   5.486   4.485
11222TIP3   OH233610   7.614   1.209   5.938
11222TIP3    H133611   7.626   1.116   5.919
11222TIP3    H233612   7.622   1.215   6.033
11223TIP3   OH233613   7.667   3.464   3.919
11223TIP3    H133614   7.624   3.548   3.934
11223TIP3    H233615   7.632   3.434   3.835
11224TIP3   OH233616   3.020   3.919   4.981
11224TIP3    H133617   3.077   3.875   4.918
11224TIP3    H233618   2.953   3.855   5.003
11225TIP3   OH233619   4.508   0.097   6.736
11225TIP3    H133620   4.483   0.188   6.724
11225TIP3    H233621   4.438   0.047   6.695
11226TIP3   OH233622   5.324   0.016   3.944
11226TIP3    H133623   5.387   0.044   4.010
11226TIP3    H233624   5.308   0.094   3.892
11227TIP3   OH233625   1.710   6.356   5.619
11227TIP3    H133626   1.757   6.414   5.558
11227TIP3    H233627   1.627   6.339   5.576
11228TIP3   OH233628   0.724   2.943   0.534
11228TIP3    H133629   0.728   3.008   0.604
11228TIP3    H233630   0.642   2.896   0.549
11229TIP3   OH233631   5.455   4.592   2.383
11229TIP3    H133632   5.439   4.507   2.342
11229TIP3    H233633   5.439   4.577   2.476
11230TIP3   OH233634   2.970   4.027   3.538
11230TIP3    H133635   2.992   4.118   3.520
11230TIP3    H233636   3.042   3.977   3.501
11231TIP3   OH233637   7.733   3.802   4.592
11231TIP3    H133638   7.694   3.724   4.632
11231TIP3    H233639   7.789   3.768   4.522
11232TIP3   OH233640   6.642   3.003   0.619
11232TIP3    H133641   6.734   2.995   0.645
11232TIP3    H233642   6.637   3.086   0.572
11233TIP3   OH233643   5.736   4.834   6.412
11233TIP3    H133644   5.747   4.746   6.375
11233TIP3    H233645   5.811   4.883   6.380
11234TIP3   OH233646   3.871   7.185   0.655
11234TIP3    H133647   3.929   7.140   0.593
11234TIP3    H233648   3.801   7.220   0.601
11235TIP3   OH233649   3.939   6.352   1.385
11235TIP3    H133650   3.920   6.439   1.421
11235TIP3    H233651   3.993   6.309   1.451
11236TIP3   OH233652   2.711   7.542   3.650
11236TIP3    H133653   2.757   7.533   3.566
11236TIP3    H233654   2.766   7.494   3.712
11237TIP3   OH233655   0.994   3.877   6.575
11237TIP3    H133656   0.975   3.848   6.665
11237TIP3    H233657   1.069   3.823   6.549
11238TIP3   OH233658   3.285   6.176   6.723
11238TIP3    H133659   3.318   6.266   6.727
11238TIP3    H233660   3.304   6.139   6.809
11239TIP3   OH233661   2.899   2.996   0.614
11239TIP3    H133662   2.927   2.909   0.643
11239TIP3    H233663   2.895   3.047   0.694
11240TIP3   OH233664   3.911   2.234   1.871
11240TIP3    H133665   3.973   2.285   1.923
11240TIP3    H233666   3.898   2.286   1.792
11241TIP3   OH233667   8.082   4.943   5.723
11241TIP3    H133668   7.993   4.951   5.756
11241TIP3    H233669   8.136   4.932   5.801
11242TIP3   OH233670   4.860   1.465   5.104
11242TIP3    H133671   4.889   1.418   5.026
11242TIP3    H233672   4.937   1.512   5.135
11243TIP3   OH233673   3.049   3.640   3.870
11243TIP3    H133674   2.987   3.635   3.797
11243TIP3    H233675   3.125   3.685   3.834
11244TIP3   OH233676   1.824   3.116   5.111
11244TIP3    H133677   1.730   3.102   5.101
11244TIP3    H233678   1.841   3.198   5.064
11245TIP3   OH233679   4.071   7.572   4.990
11245TIP3    H133680   4.078   7.557   5.084
11245TIP3    H233681   4.128   7.505   4.951
11246TIP3   OH233682   2.232   2.354   3.404
11246TIP3    H133683   2.187   2.269   3.408
11246TIP3    H233684   2.223   2.390   3.493
11247TIP3   OH233685   1.545   3.374   0.733
11247TIP3    H133686   1.592   3.295   0.707
11247TIP3    H233687   1.475   3.383   0.669
11248TIP3   OH233688   2.836   4.924   6.379
11248TIP3    H133689   2.906   4.859   6.385
11248TIP3    H233690   2.768   4.891   6.438
11249TIP3   OH233691   3.266   6.815   3.756
11249TIP3    H133692   3.297   6.856   3.675
11249TIP3    H233693   3.172   6.833   3.758
11250TIP3   OH233694   1.028   4.623   5.746
11250TIP3    H133695   1.101   4.624   5.684
11250TIP3    H233696   1.008   4.715   5.762
11251TIP3   OH233697   4.584   5.595   5.405
11251TIP3    H133698   4.611   5.507   5.379
11251TIP3    H233699   4.540   5.630   5.328
11252TIP3   OH233700   0.571   6.240   3.503
11252TIP3    H133701   0.580   6.254   3.597
11252TIP3    H233702   0.626   6.308   3.464
11253TIP3   OH233703   4.573   5.391   3.006
11253TIP3    H133704   4.599   5.469   2.957
11253TIP3    H233705   4.617   5.319   2.962
11254TIP3   OH233706   8.257   2.242   1.323
11254TIP3    H133707   8.264   2.147   1.325
11254TIP3    H233708   8.261   2.269   1.415
11255TIP3   OH233709   7.908   4.326   5.867
11255TIP3    H133710   7.815   4.347   5.878
11255TIP3    H233711   7.918   4.310   5.773
11256TIP3   OH233712   2.535   0.912   3.701
11256TIP3    H133713   2.514   0.886   3.611
11256TIP3    H233714   2.474   0.982   3.721
11257TIP3   OH233715   5.018   5.550   5.356
11257TIP3    H133716   4.964   5.629   5.360
11257TIP3    H233717   4.988   5.496   5.429
11258TIP3   OH233718   0.979   3.526   2.537
11258TIP3    H133719   1.022   3.612   2.528
11258TIP3    H233720   1.048   3.463   2.515
11259TIP3   OH233721   0.845   1.951   2.903
11259TIP3    H133722   0.893   1.868   2.897
11259TIP3    H233723   0.879   2.003   2.829
11260TIP3   OH233724   0.447   2.455   4.487
11260TIP3    H133725   0.463   2.510   4.410
11260TIP3    H233726   0.354   2.433   4.483
11261TIP3   OH233727   7.064   5.605   2.162
11261TIP3    H133728   7.059   5.643   2.074
11261TIP3    H233729   7.157   5.604   2.183
11262TIP3   OH233730   2.553   4.683   3.727
11262TIP3    H133731   2.506   4.711   3.805
11262TIP3    H233732   2.486   4.643   3.672
11263TIP3   OH233733   7.325   0.932   4.638
11263TIP3    H133734   7.394   0.917   4.574
11263TIP3    H233735   7.308   1.026   4.634
11264TIP3   OH233736   3.170   7.720   6.034
11264TIP3    H133737   3.075   7.728   6.030
11264TIP3    H233738   3.186   7.627   6.017
11265TIP3   OH233739   1.257   3.369   2.830
11265TIP3    H133740   1.200   3.298   2.799
11265TIP3    H233741   1.204   3.416   2.894
11266TIP3   OH233742   0.807   5.507   5.543
11266TIP3    H133743   0.738   5.452   5.581
11266TIP3    H233744   0.888   5.469   5.575
11267TIP3   OH233745   6.713   0.565   5.216
11267TIP3    H133746   6.678   0.533   5.132
11267TIP3    H233747   6.784   0.504   5.237
11268TIP3   OH233748   5.266   1.917   0.885
11268TIP3    H133749   5.241   1.936   0.794
11268TIP3    H233750   5.335   1.981   0.905
11269TIP3   OH233751   6.971   7.567   6.664
11269TIP3    H133752   6.987   7.507   6.591
11269TIP3    H233753   6.879   7.590   6.658
11270TIP3   OH233754   5.658   5.062   1.600
11270TIP3    H133755   5.735   5.081   1.546
11270TIP3    H233756   5.630   5.147   1.633
11271TIP3   OH233757   4.911   6.132   0.073
11271TIP3    H133758   4.894   6.135  -0.021
11271TIP3    H233759   4.825   6.143   0.113
11272TIP3   OH233760   4.471   1.386   4.315
11272TIP3    H133761   4.480   1.406   4.408
11272TIP3    H233762   4.505   1.463   4.269
11273TIP3   OH233763   1.489   5.929   5.118
11273TIP3    H133764   1.558   5.909   5.181
11273TIP3    H233765   1.409   5.927   5.170
11274TIP3   OH233766   6.366   5.890   3.133
11274TIP3    H133767   6.348   5.850   3.218
11274TIP3    H233768   6.297   5.857   3.076
11275TIP3   OH233769   2.163   2.439   2.258
11275TIP3    H133770   2.082   2.419   2.304
11275TIP3    H233771   2.222   2.474   2.325
11276TIP3   OH233772   7.167   7.325   5.686
11276TIP3    H133773   7.086   7.320   5.737
11276TIP3    H233774   7.237   7.319   5.752
11277TIP3   OH233775   8.129   7.321   3.565
11277TIP3    H133776   8.171   7.330   3.479
11277TIP3    H233777   8.036   7.335   3.547
11278TIP3   OH233778   7.318   5.925   6.163
11278TIP3    H133779   7.231   5.965   6.171
11278TIP3    H233780   7.375   5.982   6.215
11279TIP3   OH233781   3.696   5.337   0.165
11279TIP3    H133782   3.717   5.418   0.120
11279TIP3    H233783   3.763   5.330   0.233
11280TIP3   OH233784   1.486   1.720   5.732
11280TIP3    H133785   1.527   1.788   5.679
11280TIP3    H233786   1.560   1.669   5.767
11281TIP3   OH233787   8.007   3.389   2.130
11281TIP3    H133788   7.919   3.390   2.093
11281TIP3    H233789   8.001   3.442   2.209
11282TIP3   OH233790   0.081   7.731   6.587
11282TIP3    H133791   0.014   7.795   6.566
11282TIP3    H233792   0.082   7.728   6.683
11283TIP3   OH233793   1.643   2.974   2.511
11283TIP3    H133794   1.626   2.975   2.417
11283TIP3    H233795   1.632   2.882   2.537
11284TIP3   OH233796   3.157   6.742   1.701
11284TIP3    H133797   3.228   6.678   1.705
11284TIP3    H233798   3.174   6.791   1.621
11285TIP3   OH233799   6.265   3.383   5.315
11285TIP3    H133800   6.310   3.327   5.378
11285TIP3    H233801   6.206   3.325   5.269
11286TIP3   OH233802   7.664   2.624   4.749
11286TIP3    H133803   7.633   2.627   4.839
11286TIP3    H233804   7.759   2.611   4.757
11287TIP3   OH233805   8.260   1.317   2.330
11287TIP3    H133806   8.324   1.278   2.270
11287TIP3    H233807   8.313   1.342   2.406
11288TIP3   OH233808   5.419   3.593   4.829
11288TIP3    H133809   5.425   3.563   4.738
11288TIP3    H233810   5.332   3.630   4.837
11289TIP3   OH233811   1.611   3.725   6.557
11289TIP3    H133812   1.682   3.730   6.620
11289TIP3    H233813   1.536   3.692   6.607
11290TIP3   OH233814   0.785   6.677   6.283
11290TIP3    H133815   0.831   6.607   6.236
11290TIP3    H233816   0.814   6.669   6.373
11291TIP3   OH233817   2.211   2.721   6.533
11291TIP3    H133818   2.158   2.661   6.585
11291TIP3    H233819   2.265   2.767   6.598
11292TIP3   OH233820   2.211   6.095   6.431
11292TIP3    H133821   2.252   6.094   6.345
11292TIP3    H233822   2.249   6.020   6.477
11293TIP3   OH233823   4.485   7.250   4.459
11293TIP3    H133824   4.518   7.250   4.370
11293TIP3    H233825   4.411   7.312   4.457
11294TIP3   OH233826   0.316   4.077   4.602
11294TIP3    H133827   0.411   4.087   4.595
11294TIP3    H233828   0.295   4.006   4.542
11295TIP3   OH233829   0.068   4.337   6.425
11295TIP3    H133830   0.094   4.401   6.359
11295TIP3    H233831   0.141   4.274   6.429
11296TIP3   OH233832   1.509   2.745   0.798
11296TIP3    H133833   1.418   2.737   0.770
11296TIP3    H233834   1.507   2.808   0.870
11297TIP3   OH233835   6.142   5.807   2.997
11297TIP3    H133836   6.121   5.714   3.006
11297TIP3    H233837   6.176   5.816   2.908
11298TIP3   OH233838   3.060   4.585   0.151
11298TIP3    H133839   3.001   4.660   0.150
11298TIP3    H233840   3.034   4.534   0.228
11299TIP3   OH233841   6.598   2.332   1.290
11299TIP3    H133842   6.645   2.374   1.363
11299TIP3    H233843   6.619   2.239   1.299
11300TIP3   OH233844   0.571   0.736   4.294
11300TIP3    H133845   0.476   0.730   4.281
11300TIP3    H233846   0.598   0.647   4.318
11301TIP3   OH233847   5.654   4.019   3.341
11301TIP3    H133848   5.628   3.936   3.382
11301TIP3    H233849   5.682   3.994   3.253
11302TIP3   OH233850   5.538   5.311   4.265
11302TIP3    H133851   5.535   5.271   4.178
11302TIP3    H233852   5.624   5.287   4.299
11303TIP3   OH233853   1.935   6.192   2.478
11303TIP3    H133854   1.854   6.147   2.501
11303TIP3    H233855   1.906   6.262   2.419
11304TIP3   OH233856   4.757   1.482   0.825
11304TIP3    H133857   4.773   1.426   0.901
11304TIP3    H233858   4.842   1.522   0.806
11305TIP3   OH233859   6.718   3.846   6.330
11305TIP3    H133860   6.670   3.766   6.308
11305TIP3    H233861   6.656   3.916   6.313
11306TIP3   OH233862   5.390   2.249   0.221
11306TIP3    H133863   5.321   2.231   0.286
11306TIP3    H233864   5.470   2.254   0.272
11307TIP3   OH233865   4.050   0.713   4.632
11307TIP3    H133866   4.012   0.752   4.711
11307TIP3    H233867   4.011   0.625   4.627
11308TIP3   OH233868   6.175   5.773   4.292
11308TIP3    H133869   6.239   5.741   4.356
11308TIP3    H233870   6.165   5.866   4.313
11309TIP3   OH233871   7.425   7.233   5.481
11309TIP3    H133872   7.472   7.291   5.541
11309TIP3    H233873   7.349   7.284   5.452
11310TIP3   OH233874   7.339   4.809   6.210
11310TIP3    H133875   7.314   4.726   6.170
11310TIP3    H233876   7.434   4.807   6.215
11311TIP3   OH233877   7.704   7.565   4.720
11311TIP3    H133878   7.792   7.565   4.759
11311TIP3    H233879   7.710   7.502   4.648
11312TIP3   OH233880   5.059   6.843   4.275
11312TIP3    H133881   4.968   6.845   4.302
11312TIP3    H233882   5.098   6.920   4.316
11313TIP3   OH233883   0.168   5.503   0.827
11313TIP3    H133884   0.188   5.590   0.790
11313TIP3    H233885   0.113   5.521   0.902
11314TIP3   OH233886   4.583   5.125   3.937
11314TIP3    H133887   4.630   5.121   4.020
11314TIP3    H233888   4.524   5.200   3.946
11315TIP3   OH233889   3.879   7.531   4.803
11315TIP3    H133890   3.951   7.578   4.844
11315TIP3    H233891   3.875   7.448   4.850
11316TIP3   OH233892   6.837   7.746   0.275
11316TIP3    H133893   6.787   7.820   0.238
11316TIP3    H233894   6.773   7.676   0.286
11317TIP3   OH233895   3.460   0.928   4.219
11317TIP3    H133896   3.518   0.999   4.249
11317TIP3    H233897   3.502   0.848   4.252
11318TIP3   OH233898   4.251   3.461   0.117
11318TIP3    H133899   4.189   3.497   0.179
11318TIP3    H233900   4.246   3.518   0.041
11319TIP3   OH233901   4.263   4.677   2.088
11319TIP3    H133902   4.248   4.610   2.022
11319TIP3    H233903   4.197   4.744   2.070
11320TIP3   OH233904   0.512   4.538   4.747
11320TIP3    H133905   0.478   4.601   4.810
11320TIP3    H233906   0.513   4.586   4.664
11321TIP3   OH233907   4.669   1.002   3.158
11321TIP3    H133908   4.586   1.037   3.190
11321TIP3    H233909   4.659   0.998   3.063
11322TIP3   OH233910   1.927   1.132   1.001
11322TIP3    H133911   2.019   1.127   0.978
11322TIP3    H233912   1.916   1.069   1.072
11323TIP3   OH233913   0.986   7.422   3.395
11323TIP3    H133914   1.072   7.441   3.432
11323TIP3    H233915   0.979   7.480   3.320
11324TIP3   OH233916   1.387   6.473   0.356
11324TIP3    H133917   1.430   6.446   0.275
11324TIP3    H233918   1.429   6.556   0.379
11325TIP3   OH233919   1.611   7.158   1.661
11325TIP3    H133920   1.687   7.106   1.636
11325TIP3    H233921   1.603   7.145   1.755
11326TIP3   OH233922   0.730   0.611   6.054
11326TIP3    H133923   0.778   0.530   6.069
11326TIP3    H233924   0.794   0.670   6.015
11327TIP3   OH233925   7.705   0.288   1.442
11327TIP3    H133926   7.777   0.262   1.499
11327TIP3    H233927   7.636   0.318   1.502
11328TIP3   OH233928   5.836   3.813   5.539
11328TIP3    H133929   5.795   3.795   5.454
11328TIP3    H233930   5.878   3.898   5.528
11329TIP3   OH233931   8.095   6.308   0.566
11329TIP3    H133932   8.099   6.404   0.563
11329TIP3    H233933   8.146   6.284   0.643
11330TIP3   OH233934   7.941   2.155   6.290
11330TIP3    H133935   7.887   2.229   6.261
11330TIP3    H233936   8.031   2.181   6.269
11331TIP3   OH233937   6.427   2.308   6.457
11331TIP3    H133938   6.410   2.372   6.388
11331TIP3    H233939   6.519   2.285   6.447
11332TIP3   OH233940   5.447   1.014   3.223
11332TIP3    H133941   5.421   1.105   3.209
11332TIP3    H233942   5.429   0.998   3.315
11333TIP3   OH233943   1.509   4.869   4.501
11333TIP3    H133944   1.460   4.825   4.570
11333TIP3    H233945   1.496   4.963   4.519
11334TIP3   OH233946   7.510   6.679   4.935
11334TIP3    H133947   7.572   6.648   4.869
11334TIP3    H233948   7.499   6.605   4.994
11335TIP3   OH233949   1.273   1.213   0.317
11335TIP3    H133950   1.333   1.139   0.310
11335TIP3    H233951   1.312   1.270   0.383
11336TIP3   OH233952   0.267   1.472   3.272
11336TIP3    H133953   0.324   1.408   3.314
11336TIP3    H233954   0.192   1.480   3.330
11337TIP3   OH233955   7.098   1.290   4.276
11337TIP3    H133956   7.030   1.344   4.316
11337TIP3    H233957   7.089   1.304   4.182
11338TIP3   OH233958   2.759   6.771   4.438
11338TIP3    H133959   2.730   6.684   4.410
11338TIP3    H233960   2.772   6.819   4.356
11339TIP3   OH233961   4.206   4.767   1.150
11339TIP3    H133962   4.183   4.752   1.058
11339TIP3    H233963   4.133   4.729   1.199
11340TIP3   OH233964   1.215   6.311   1.839
11340TIP3    H133965   1.150   6.331   1.772
11340TIP3    H233966   1.273   6.247   1.799
11341TIP3   OH233967   3.278   1.047   6.115
11341TIP3    H133968   3.287   1.114   6.182
11341TIP3    H233969   3.189   1.012   6.127
11342TIP3   OH233970   1.206   5.049   5.944
11342TIP3    H133971   1.145   5.028   6.015
11342TIP3    H233972   1.245   4.964   5.921
11343TIP3   OH233973   2.136   6.488   4.617
11343TIP3    H133974   2.099   6.576   4.619
11343TIP3    H233975   2.136   6.464   4.524
11344TIP3   OH233976   0.728   6.646   2.546
11344TIP3    H133977   0.751   6.568   2.494
11344TIP3    H233978   0.801   6.656   2.607
11345TIP3   OH233979   1.879   7.540   5.076
11345TIP3    H133980   1.848   7.605   5.139
11345TIP3    H233981   1.954   7.581   5.034
11346TIP3   OH233982   5.462   0.103   0.173
11346TIP3    H133983   5.544   0.152   0.168
11346TIP3    H233984   5.395   0.163   0.139
11347TIP3   OH233985   3.873   6.195   3.012
11347TIP3    H133986   3.953   6.238   2.981
11347TIP3    H233987   3.802   6.239   2.966
11348TIP3   OH233988   7.209   5.652   4.296
11348TIP3    H133989   7.245   5.722   4.242
11348TIP3    H233990   7.281   5.627   4.354
11349TIP3   OH233991   5.905   2.966   2.045
11349TIP3    H133992   5.879   2.958   1.953
11349TIP3    H233993   5.839   2.915   2.093
11350TIP3   OH233994   3.007   5.205   1.159
11350TIP3    H133995   3.034   5.292   1.132
11350TIP3    H233996   2.922   5.218   1.203
11351TIP3   OH233997   5.192   4.837   5.283
11351TIP3    H133998   5.222   4.753   5.246
11351TIP3    H233999   5.098   4.838   5.268
11352TIP3   OH234000   4.928   3.388   5.496
11352TIP3    H134001   4.896   3.395   5.586
11352TIP3    H234002   5.009   3.338   5.504
11353TIP3   OH234003   4.878   4.255   3.289
11353TIP3    H134004   4.898   4.277   3.380
11353TIP3    H234005   4.960   4.271   3.242
11354TIP3   OH234006   6.889   5.476   5.494
11354TIP3    H134007   6.808   5.470   5.545
11354TIP3    H234008   6.859   5.497   5.405
11355TIP3   OH234009   3.204   2.888   3.614
11355TIP3    H134010   3.270   2.820   3.631
11355TIP3    H234011   3.247   2.970   3.639
11356TIP3   OH234012   0.620   0.351   0.259
11356TIP3    H134013   0.647   0.329   0.348
11356TIP3    H234014   0.656   0.438   0.244
11357TIP3   OH234015   2.619   2.036   3.703
11357TIP3    H134016   2.657   2.082   3.778
11357TIP3    H234017   2.694   2.014   3.648
11358TIP3   OH234018   0.735   5.282   0.502
11358TIP3    H134019   0.681   5.338   0.447
11358TIP3    H234020   0.673   5.230   0.553
11359TIP3   OH234021   2.176   0.596   5.625
11359TIP3    H134022   2.194   0.542   5.702
11359TIP3    H234023   2.263   0.624   5.595
11360TIP3   OH234024   1.419   0.327   3.005
11360TIP3    H134025   1.325   0.342   3.011
11360TIP3    H234026   1.447   0.316   3.095
11361TIP3   OH234027   1.094   0.563   0.087
11361TIP3    H134028   1.013   0.579   0.038
11361TIP3    H234029   1.130   0.484   0.047
11362TIP3   OH234030   4.521   2.120   5.622
11362TIP3    H134031   4.553   2.161   5.542
11362TIP3    H234032   4.589   2.058   5.647
11363TIP3   OH234033   4.389   6.931   0.200
11363TIP3    H134034   4.470   6.979   0.216
11363TIP3    H234035   4.370   6.886   0.282
11364TIP3   OH234036   3.843   7.193   3.039
11364TIP3    H134037   3.914   7.176   2.977
11364TIP3    H234038   3.884   7.189   3.125
11365TIP3   OH234039   2.180   6.864   2.691
11365TIP3    H134040   2.116   6.873   2.761
11365TIP3    H234041   2.241   6.936   2.705
11366TIP3   OH234042   6.513   2.026   6.056
11366TIP3    H134043   6.534   2.105   6.006
11366TIP3    H234044   6.571   2.030   6.132
11367TIP3   OH234045   2.674   3.390   4.346
11367TIP3    H134046   2.609   3.372   4.414
11367TIP3    H234047   2.738   3.447   4.388
11368TIP3   OH234048   2.945   4.004   6.006
11368TIP3    H134049   3.002   4.080   5.999
11368TIP3    H234050   2.916   4.004   6.097
11369TIP3   OH234051   6.050   0.881   0.399
11369TIP3    H134052   6.136   0.921   0.411
11369TIP3    H234053   6.019   0.914   0.315
11370TIP3   OH234054   3.575   1.700   2.797
11370TIP3    H134055   3.610   1.719   2.884
11370TIP3    H234056   3.481   1.694   2.810
11371TIP3   OH234057   5.146   3.977   5.447
11371TIP3    H134058   5.060   3.964   5.485
11371TIP3    H234059   5.129   4.004   5.357
11372TIP3   OH234060   1.508   3.843   5.788
11372TIP3    H134061   1.532   3.921   5.837
11372TIP3    H234062   1.584   3.825   5.732
11373TIP3   OH234063   3.401   4.829   2.507
11373TIP3    H134064   3.396   4.900   2.443
11373TIP3    H234065   3.455   4.762   2.465
11374TIP3   OH234066   5.998   5.832   2.157
11374TIP3    H134067   6.027   5.871   2.075
11374TIP3    H234068   6.077   5.797   2.197
11375TIP3   OH234069   8.238   5.685   1.172
11375TIP3    H134070   8.215   5.750   1.238
11375TIP3    H234071   8.157   5.671   1.123
11376TIP3   OH234072   7.549   7.515   4.368
11376TIP3    H134073   7.468   7.550   4.331
11376TIP3    H234074   7.617   7.574   4.337
11377TIP3   OH234075   7.215   4.375   5.567
11377TIP3    H134076   7.253   4.457   5.601
11377TIP3    H234077   7.241   4.309   5.632
11378TIP3   OH234078   7.021   4.364   0.456
11378TIP3    H134079   6.927   4.380   0.470
11378TIP3    H234080   7.059   4.452   0.447
11379TIP3   OH234081   0.887   6.141   3.222
11379TIP3    H134082   0.808   6.194   3.210
11379TIP3    H234083   0.930   6.181   3.298
11380TIP3   OH234084   4.152   3.347   1.616
11380TIP3    H134085   4.078   3.377   1.669
11380TIP3    H234086   4.153   3.407   1.540
11381TIP3   OH234087   7.128   4.145   6.221
11381TIP3    H134088   7.203   4.133   6.279
11381TIP3    H234089   7.059   4.092   6.259
11382TIP3   OH234090   6.249   6.343   1.757
11382TIP3    H134091   6.261   6.250   1.739
11382TIP3    H234092   6.257   6.386   1.672
11383TIP3   OH234093   6.546   1.341   5.294
11383TIP3    H134094   6.465   1.342   5.242
11383TIP3    H234095   6.612   1.381   5.237
11384TIP3   OH234096   1.205   1.206   5.606
11384TIP3    H134097   1.168   1.294   5.608
11384TIP3    H234098   1.209   1.180   5.698
11385TIP3   OH234099   5.966   4.344   4.419
11385TIP3    H134100   5.935   4.360   4.508
11385TIP3    H234101   5.890   4.363   4.364
11386TIP3   OH234102   1.980   6.665   5.153
11386TIP3    H134103   2.009   6.681   5.063
11386TIP3    H234104   1.944   6.576   5.151
11387TIP3   OH234105   1.802   2.739   4.017
11387TIP3    H134106   1.764   2.689   4.090
11387TIP3    H234107   1.783   2.687   3.939
11388TIP3   OH234108   3.576   1.671   1.994
11388TIP3    H134109   3.659   1.716   1.976
11388TIP3    H234110   3.509   1.733   1.964
11389TIP3   OH234111   6.802   1.800   3.508
11389TIP3    H134112   6.809   1.756   3.424
11389TIP3    H234113   6.707   1.807   3.524
11390TIP3   OH234114   6.064   6.692   5.417
11390TIP3    H134115   6.045   6.657   5.505
11390TIP3    H234116   6.139   6.750   5.430
11391TIP3   OH234117   7.465   5.876   2.471
11391TIP3    H134118   7.373   5.880   2.442
11391TIP3    H234119   7.472   5.792   2.516
11392TIP3   OH234120   7.687   6.506   1.257
11392TIP3    H134121   7.742   6.584   1.265
11392TIP3    H234122   7.748   6.436   1.234
11393TIP3   OH234123   2.747   1.703   2.089
11393TIP3    H134124   2.783   1.663   2.168
11393TIP3    H234125   2.728   1.628   2.031
11394TIP3   OH234126   3.817   6.302   0.399
11394TIP3    H134127   3.853   6.330   0.483
11394TIP3    H234128   3.893   6.289   0.343
11395TIP3   OH234129   6.615   4.870   2.119
11395TIP3    H134130   6.572   4.925   2.054
11395TIP3    H234131   6.661   4.803   2.068
11396TIP3   OH234132   7.169   3.569   1.430
11396TIP3    H134133   7.153   3.663   1.437
11396TIP3    H234134   7.084   3.531   1.409
11397TIP3   OH234135   2.241   3.172   5.838
11397TIP3    H134136   2.172   3.194   5.901
11397TIP3    H234137   2.319   3.163   5.892
11398TIP3   OH234138   4.528   7.574   0.005
11398TIP3    H134139   4.493   7.591   0.092
11398TIP3    H234140   4.608   7.524   0.021
11399TIP3   OH234141   6.151   6.197   6.635
11399TIP3    H134142   6.097   6.146   6.574
11399TIP3    H234143   6.232   6.213   6.587
11400TIP3   OH234144   3.800   5.633   6.236
11400TIP3    H134145   3.857   5.600   6.167
11400TIP3    H234146   3.748   5.557   6.261
11401TIP3   OH234147   5.072   1.626   5.252
11401TIP3    H134148   5.050   1.641   5.344
11401TIP3    H234149   5.152   1.676   5.238
11402TIP3   OH234150   6.150   6.768   0.585
11402TIP3    H134151   6.235   6.755   0.627
11402TIP3    H234152   6.113   6.845   0.627
11403TIP3   OH234153   3.131   4.685   6.150
11403TIP3    H134154   3.126   4.735   6.232
11403TIP3    H234155   3.179   4.742   6.090
11404TIP3   OH234156   1.604   7.428   2.013
11404TIP3    H134157   1.518   7.462   2.037
11404TIP3    H234158   1.666   7.488   2.054
11405TIP3   OH234159   0.705   6.428   3.353
11405TIP3    H134160   0.745   6.469   3.276
11405TIP3    H234161   0.732   6.483   3.427
11406TIP3   OH234162   2.554   1.278   1.511
11406TIP3    H134163   2.561   1.282   1.415
11406TIP3    H234164   2.530   1.367   1.537
11407TIP3   OH234165   5.127   5.729   2.837
11407TIP3    H134166   5.037   5.743   2.807
11407TIP3    H234167   5.156   5.652   2.789
11408TIP3   OH234168   7.479   2.033   5.019
11408TIP3    H134169   7.424   2.060   5.092
11408TIP3    H234170   7.484   2.110   4.963
11409TIP3   OH234171   2.712   1.923   1.607
11409TIP3    H134172   2.770   1.877   1.668
11409TIP3    H234173   2.692   2.006   1.651
11410TIP3   OH234174   8.031   3.764   3.044
11410TIP3    H134175   8.107   3.822   3.043
11410TIP3    H234176   7.961   3.816   3.005
11411TIP3   OH234177   3.670   2.312   2.011
11411TIP3    H134178   3.717   2.372   1.953
11411TIP3    H234179   3.679   2.351   2.098
11412TIP3   OH234180   6.340   6.313   3.650
11412TIP3    H134181   6.397   6.389   3.636
11412TIP3    H234182   6.253   6.343   3.625
11413TIP3   OH234183   7.125   4.714   4.597
11413TIP3    H134184   7.196   4.778   4.597
11413TIP3    H234185   7.146   4.656   4.671
11414TIP3   OH234186   0.665   7.522   0.687
11414TIP3    H134187   0.637   7.600   0.638
11414TIP3    H234188   0.667   7.452   0.621
11415TIP3   OH234189   3.657   2.970   0.384
11415TIP3    H134190   3.692   3.053   0.351
11415TIP3    H234191   3.567   2.969   0.352
11416TIP3   OH234192   5.474   4.996   5.785
11416TIP3    H134193   5.518   5.067   5.831
11416TIP3    H234194   5.543   4.953   5.734
11417TIP3   OH234195   8.216   6.345   1.955
11417TIP3    H134196   8.251   6.302   1.877
11417TIP3    H234197   8.274   6.315   2.026
11418TIP3   OH234198   5.669   0.079   5.855
11418TIP3    H134199   5.593   0.102   5.908
11418TIP3    H234200   5.639   0.089   5.764
11419TIP3   OH234201   2.921   7.561   3.456
11419TIP3    H134202   2.998   7.518   3.419
11419TIP3    H234203   2.915   7.644   3.409
11420TIP3   OH234204   0.829   2.006   1.626
11420TIP3    H134205   0.788   1.936   1.677
11420TIP3    H234206   0.874   2.060   1.691
11421TIP3   OH234207   6.960   1.056   0.617
11421TIP3    H134208   7.045   1.014   0.623
11421TIP3    H234209   6.979   1.150   0.611
11422TIP3   OH234210   6.381   4.942   5.240
11422TIP3    H134211   6.393   4.861   5.290
11422TIP3    H234212   6.323   4.918   5.168
11423TIP3   OH234213   8.218   2.336   2.991
11423TIP3    H134214   8.237   2.271   3.060
11423TIP3    H234215   8.219   2.420   3.037
11424TIP3   OH234216   8.028   0.567   1.255
11424TIP3    H134217   7.959   0.500   1.258
11424TIP3    H234218   8.088   0.543   1.325
11425TIP3   OH234219   0.512   2.343   0.747
11425TIP3    H134220   0.597   2.370   0.713
11425TIP3    H234221   0.501   2.393   0.828
11426TIP3   OH234222   4.738   4.291   5.149
11426TIP3    H134223   4.653   4.248   5.150
11426TIP3    H234224   4.721   4.375   5.106
11427TIP3   OH234225   5.279   1.019   3.618
11427TIP3    H134226   5.281   0.924   3.628
11427TIP3    H234227   5.258   1.052   3.706
11428TIP3   OH234228   6.211   0.743   5.581
11428TIP3    H134229   6.202   0.710   5.671
11428TIP3    H234230   6.129   0.790   5.565
11429TIP3   OH234231   3.377   6.557   2.950
11429TIP3    H134232   3.318   6.501   2.901
11429TIP3    H234233   3.390   6.633   2.894
11430TIP3   OH234234   5.688   3.379   1.561
11430TIP3    H134235   5.697   3.302   1.617
11430TIP3    H234236   5.777   3.415   1.555
11431TIP3   OH234237   3.209   6.951   0.495
11431TIP3    H134238   3.203   7.027   0.437
11431TIP3    H234239   3.190   6.987   0.582
11432TIP3   OH234240   2.171   6.281   4.005
11432TIP3    H134241   2.188   6.374   3.988
11432TIP3    H234242   2.234   6.257   4.074
11433TIP3   OH234243   1.176   4.180   0.552
11433TIP3    H134244   1.171   4.089   0.581
11433TIP3    H234245   1.233   4.222   0.616
11434TIP3   OH234246   5.225   4.614   4.425
11434TIP3    H134247   5.177   4.594   4.345
11434TIP3    H234248   5.157   4.629   4.491
11435TIP3   OH234249   1.760   1.327   4.892
11435TIP3    H134250   1.672   1.347   4.861
11435TIP3    H234251   1.754   1.332   4.987
11436TIP3   OH234252   3.029   5.116   1.774
11436TIP3    H134253   2.985   5.119   1.859
11436TIP3    H234254   2.959   5.101   1.711
11437TIP3   OH234255   7.031   0.391   2.807
11437TIP3    H134256   6.955   0.428   2.763
11437TIP3    H234257   7.106   0.418   2.753
11438TIP3   OH234258   4.878   1.120   4.146
11438TIP3    H134259   4.849   1.029   4.133
11438TIP3    H234260   4.862   1.162   4.061
11439TIP3   OH234261   1.372   5.553   2.155
11439TIP3    H134262   1.381   5.647   2.172
11439TIP3    H234263   1.414   5.541   2.069
11440TIP3   OH234264   4.767   6.376   1.151
11440TIP3    H134265   4.700   6.419   1.204
11440TIP3    H234266   4.815   6.447   1.110
11441TIP3   OH234267   7.151   7.447   3.253
11441TIP3    H134268   7.218   7.515   3.251
11441TIP3    H234269   7.097   7.465   3.176
11442TIP3   OH234270   4.338   4.696   3.452
11442TIP3    H134271   4.259   4.690   3.398
11442TIP3    H234272   4.408   4.661   3.396
11443TIP3   OH234273   7.223   6.501   5.413
11443TIP3    H134274   7.308   6.537   5.438
11443TIP3    H234275   7.203   6.543   5.330
11444TIP3   OH234276   4.676   5.674   5.685
11444TIP3    H134277   4.671   5.652   5.592
11444TIP3    H234278   4.672   5.589   5.730
11445TIP3   OH234279   6.234   1.396   0.550
11445TIP3    H134280   6.179   1.383   0.627
11445TIP3    H234281   6.310   1.339   0.564
11446TIP3   OH234282   4.372   3.307   1.341
11446TIP3    H134283   4.313   3.376   1.372
11446TIP3    H234284   4.344   3.290   1.251
11447TIP3   OH234285   2.886   4.413   0.297
11447TIP3    H134286   2.792   4.400   0.289
11447TIP3    H234287   2.921   4.325   0.312
11448TIP3   OH234288   1.151   4.608   1.128
11448TIP3    H134289   1.066   4.581   1.092
11448TIP3    H234290   1.156   4.702   1.109
11449TIP3   OH234291   3.773   6.325   0.870
11449TIP3    H134292   3.866   6.348   0.879
11449TIP3    H234293   3.731   6.364   0.946
11450TIP3   OH234294   6.642   1.491   0.590
11450TIP3    H134295   6.715   1.551   0.608
11450TIP3    H234296   6.563   1.541   0.611
11451TIP3   OH234297   4.418   4.708   2.731
11451TIP3    H134298   4.330   4.742   2.749
11451TIP3    H234299   4.441   4.745   2.647
11452TIP3   OH234300   7.764   6.120   4.654
11452TIP3    H134301   7.801   6.208   4.655
11452TIP3    H234302   7.717   6.113   4.738
11453TIP3   OH234303   1.893   2.479   6.497
11453TIP3    H134304   1.925   2.526   6.574
11453TIP3    H234305   1.811   2.438   6.525
11454TIP3   OH234306   6.279   2.713   4.795
11454TIP3    H134307   6.221   2.637   4.797
11454TIP3    H234308   6.234   2.779   4.848
11455TIP3   OH234309   6.365   2.156   4.906
11455TIP3    H134310   6.429   2.118   4.846
11455TIP3    H234311   6.363   2.249   4.883
11456TIP3   OH234312   2.178   0.178   3.761
11456TIP3    H134313   2.252   0.151   3.707
11456TIP3    H234314   2.101   0.147   3.713
11457TIP3   OH234315   2.604   3.417   4.091
11457TIP3    H134316   2.613   3.435   4.184
11457TIP3    H234317   2.690   3.436   4.054
11458TIP3   OH234318   5.067   2.370   0.766
11458TIP3    H134319   5.039   2.388   0.856
11458TIP3    H234320   5.020   2.434   0.713
11459TIP3   OH234321   5.566   1.297   4.154
11459TIP3    H134322   5.621   1.240   4.100
11459TIP3    H234323   5.488   1.313   4.102
11460TIP3   OH234324   4.877   2.542   0.662
11460TIP3    H134325   4.827   2.618   0.690
11460TIP3    H234326   4.819   2.468   0.678
11461TIP3   OH234327   2.539   7.016   4.338
11461TIP3    H134328   2.557   6.997   4.430
11461TIP3    H234329   2.533   7.112   4.334
11462TIP3   OH234330   0.380   1.186   0.601
11462TIP3    H134331   0.345   1.099   0.617
11462TIP3    H234332   0.473   1.178   0.622
11463TIP3   OH234333   0.394   7.336   0.428
11463TIP3    H134334   0.479   7.335   0.471
11463TIP3    H234335   0.335   7.377   0.491
11464TIP3   OH234336   6.550   4.907   6.147
11464TIP3    H134337   6.494   4.978   6.115
11464TIP3    H234338   6.514   4.828   6.105
11465TIP3   OH234339   6.325   7.199   1.033
11465TIP3    H134340   6.351   7.142   1.106
11465TIP3    H234341   6.379   7.278   1.044
11466TIP3   OH234342   5.578   4.074   5.935
11466TIP3    H134343   5.632   4.057   5.857
11466TIP3    H234344   5.538   4.159   5.918
11467TIP3   OH234345   6.103   1.119   0.963
11467TIP3    H134346   6.031   1.057   0.967
11467TIP3    H234347   6.163   1.090   1.032
11468TIP3   OH234348   6.098   2.933   4.030
11468TIP3    H134349   6.153   2.985   3.972
11468TIP3    H234350   6.011   2.972   4.025
11469TIP3   OH234351   4.903   6.293   0.755
11469TIP3    H134352   4.813   6.291   0.788
11469TIP3    H234353   4.902   6.360   0.687
11470TIP3   OH234354   5.767   6.426   2.121
11470TIP3    H134355   5.788   6.517   2.141
11470TIP3    H234356   5.770   6.381   2.205
11471TIP3   OH234357   5.222   6.346   5.872
11471TIP3    H134358   5.226   6.440   5.851
11471TIP3    H234359   5.221   6.343   5.967
11472TIP3   OH234360   2.912   4.158   3.841
11472TIP3    H134361   2.941   4.175   3.751
11472TIP3    H234362   2.937   4.067   3.857
11473TIP3   OH234363   1.092   7.087   2.851
11473TIP3    H134364   1.020   7.068   2.912
11473TIP3    H234365   1.096   7.182   2.847
11474TIP3   OH234366   7.386   3.416   5.976
11474TIP3    H134367   7.402   3.322   5.967
11474TIP3    H234368   7.296   3.423   6.007
11475TIP3   OH234369   2.654   4.715   2.645
11475TIP3    H134370   2.571   4.704   2.691
11475TIP3    H234371   2.629   4.744   2.557
11476TIP3   OH234372   5.234   7.630   0.155
11476TIP3    H134373   5.296   7.568   0.195
11476TIP3    H234374   5.272   7.716   0.174
11477TIP3   OH234375   7.513   0.885   1.604
11477TIP3    H134376   7.439   0.892   1.664
11477TIP3    H234377   7.580   0.942   1.641
11478TIP3   OH234378   4.615   2.367   2.322
11478TIP3    H134379   4.650   2.455   2.311
11478TIP3    H234380   4.674   2.326   2.386
11479TIP3   OH234381   1.161   0.927   2.723
11479TIP3    H134382   1.248   0.906   2.689
11479TIP3    H234383   1.177   0.991   2.792
11480TIP3   OH234384   2.576   5.963   2.060
11480TIP3    H134385   2.578   5.934   1.969
11480TIP3    H234386   2.490   6.002   2.071
11481TIP3   OH234387   2.818   5.250   4.106
11481TIP3    H134388   2.888   5.200   4.149
11481TIP3    H234389   2.789   5.195   4.034
11482TIP3   OH234390   5.470   4.393   2.573
11482TIP3    H134391   5.559   4.406   2.540
11482TIP3    H234392   5.461   4.298   2.581
11483TIP3   OH234393   1.062   5.104   2.196
11483TIP3    H134394   0.977   5.113   2.239
11483TIP3    H234395   1.119   5.067   2.263
11484TIP3   OH234396   3.851   0.207   1.638
11484TIP3    H134397   3.781   0.271   1.645
11484TIP3    H234398   3.812   0.125   1.668
11485TIP3   OH234399   3.243   2.427   2.243
11485TIP3    H134400   3.258   2.390   2.156
11485TIP3    H234401   3.330   2.433   2.283
11486TIP3   OH234402   0.792   7.175   5.582
11486TIP3    H134403   0.783   7.236   5.509
11486TIP3    H234404   0.738   7.100   5.558
11487TIP3   OH234405   5.336   2.792   2.237
11487TIP3    H134406   5.335   2.861   2.304
11487TIP3    H234407   5.374   2.835   2.160
11488TIP3   OH234408   0.913   0.313   3.275
11488TIP3    H134409   0.873   0.335   3.191
11488TIP3    H234410   0.904   0.392   3.328
11489TIP3   OH234411   3.978   4.466   1.133
11489TIP3    H134412   4.014   4.450   1.220
11489TIP3    H234413   4.005   4.390   1.082
11490TIP3   OH234414   0.414   6.691   1.406
11490TIP3    H134415   0.474   6.740   1.351
11490TIP3    H234416   0.403   6.607   1.362
11491TIP3   OH234417   0.949   2.208   5.587
11491TIP3    H134418   0.896   2.280   5.621
11491TIP3    H234419   1.034   2.218   5.630
11492TIP3   OH234420   2.465   2.891   5.339
11492TIP3    H134421   2.533   2.957   5.356
11492TIP3    H234422   2.409   2.894   5.416
11493TIP3   OH234423   0.744   4.966   2.562
11493TIP3    H134424   0.649   4.958   2.569
11493TIP3    H234425   0.766   5.043   2.614
11494TIP3   OH234426   3.293   5.117   6.300
11494TIP3    H134427   3.309   5.060   6.375
11494TIP3    H234428   3.269   5.201   6.338
11495TIP3   OH234429   3.991   5.272   1.678
11495TIP3    H134430   3.926   5.204   1.660
11495TIP3    H234431   4.065   5.225   1.716
11496TIP3   OH234432   2.252   7.352   4.381
11496TIP3    H134433   2.283   7.441   4.363
11496TIP3    H234434   2.324   7.310   4.428
11497TIP3   OH234435   1.272   3.907   3.995
11497TIP3    H134436   1.339   3.844   3.970
11497TIP3    H234437   1.279   3.977   3.930
11498TIP3   OH234438   0.132   1.321   2.596
11498TIP3    H134439   0.041   1.308   2.622
11498TIP3    H234440   0.177   1.242   2.624
11499TIP3   OH234441   3.944   1.034   3.270
11499TIP3    H134442   3.940   0.972   3.197
11499TIP3    H234443   4.010   0.998   3.329
11500TIP3   OH234444   7.148   2.815   0.045
11500TIP3    H134445   7.208   2.854   0.108
11500TIP3    H234446   7.136   2.883  -0.022
11501TIP3   OH234447   6.901   6.395   0.956
11501TIP3    H134448   6.911   6.353   0.870
11501TIP3    H234449   6.945   6.336   1.017
11502TIP3   OH234450   3.458   6.828   2.967
11502TIP3    H134451   3.401   6.860   3.038
11502TIP3    H234452   3.544   6.864   2.988
11503TIP3   OH234453   4.591   6.654   0.921
11503TIP3    H134454   4.677   6.612   0.913
11503TIP3    H234455   4.539   6.593   0.973
11504TIP3   OH234456   4.262   1.663   3.563
11504TIP3    H134457   4.219   1.583   3.532
11504TIP3    H234458   4.349   1.660   3.524
11505TIP3   OH234459   7.837   4.898   3.278
11505TIP3    H134460   7.774   4.937   3.339
11505TIP3    H234461   7.885   4.835   3.332
11506TIP3   OH234462   6.335   5.450   5.008
11506TIP3    H134463   6.257   5.483   5.053
11506TIP3    H234464   6.403   5.513   5.028
11507TIP3   OH234465   3.213   5.762   0.814
11507TIP3    H134466   3.142   5.731   0.757
11507TIP3    H234467   3.175   5.764   0.901
11508TIP3   OH234468   4.170   2.107   6.172
11508TIP3    H134469   4.216   2.190   6.158
11508TIP3    H234470   4.233   2.053   6.220
11509TIP3   OH234471   6.758   1.228   0.125
11509TIP3    H134472   6.672   1.269   0.120
11509TIP3    H234473   6.767   1.203   0.217
11510TIP3   OH234474   4.508   0.137   2.501
11510TIP3    H134475   4.470   0.059   2.542
11510TIP3    H234476   4.599   0.139   2.531
11511TIP3   OH234477   2.538   5.938   1.708
11511TIP3    H134478   2.460   5.991   1.728
11511TIP3    H234479   2.608   6.002   1.696
11512TIP3   OH234480   7.924   7.215   1.882
11512TIP3    H134481   7.928   7.129   1.923
11512TIP3    H234482   7.972   7.272   1.942
11513TIP3   OH234483   2.839   1.313   0.243
11513TIP3    H134484   2.890   1.393   0.230
11513TIP3    H234485   2.886   1.247   0.192
11514TIP3   OH234486   4.481   2.587   5.328
11514TIP3    H134487   4.462   2.680   5.314
11514TIP3    H234488   4.397   2.543   5.322
11515TIP3   OH234489   5.252   2.733   3.144
11515TIP3    H134490   5.179   2.739   3.205
11515TIP3    H234491   5.314   2.799   3.174
11516TIP3   OH234492   1.701   0.330   0.980
11516TIP3    H134493   1.775   0.352   1.037
11516TIP3    H234494   1.684   0.411   0.931
11517TIP3   OH234495   2.772   5.652   0.994
11517TIP3    H134496   2.704   5.645   0.927
11517TIP3    H234497   2.852   5.622   0.950
11518TIP3   OH234498   3.039   4.968   4.419
11518TIP3    H134499   3.091   4.976   4.499
11518TIP3    H234500   3.037   4.874   4.402
11519TIP3   OH234501   2.168   0.232   1.390
11519TIP3    H134502   2.229   0.298   1.358
11519TIP3    H234503   2.099   0.230   1.324
11520TIP3   OH234504   5.078   6.305   1.749
11520TIP3    H134505   5.071   6.363   1.673
11520TIP3    H234506   5.130   6.231   1.718
11521TIP3   OH234507   2.959   6.444   2.690
11521TIP3    H134508   2.933   6.519   2.743
11521TIP3    H234509   2.950   6.473   2.600
11522TIP3   OH234510   1.515   2.276   4.842
11522TIP3    H134511   1.586   2.280   4.778
11522TIP3    H234512   1.539   2.203   4.900
11523TIP3   OH234513   1.275   6.611   2.261
11523TIP3    H134514   1.259   6.561   2.181
11523TIP3    H234515   1.363   6.585   2.289
11524TIP3   OH234516   0.529   2.723   5.213
11524TIP3    H134517   0.560   2.692   5.128
11524TIP3    H234518   0.599   2.779   5.246
11525TIP3   OH234519   0.422   4.116   0.103
11525TIP3    H134520   0.359   4.045   0.091
11525TIP3    H234521   0.375   4.182   0.152
11526TIP3   OH234522   5.403   3.550   3.944
11526TIP3    H134523   5.476   3.555   3.883
11526TIP3    H234524   5.339   3.612   3.910
11527TIP3   OH234525   8.074   7.791   0.447
11527TIP3    H134526   8.130   7.840   0.386
11527TIP3    H234527   7.995   7.772   0.397
11528TIP3   OH234528   6.098   3.170   5.247
11528TIP3    H134529   6.144   3.090   5.270
11528TIP3    H234530   6.015   3.164   5.294
11529TIP3   OH234531   5.919   0.274   3.314
11529TIP3    H134532   6.003   0.312   3.339
11529TIP3    H234533   5.907   0.200   3.374
11530TIP3   OH234534   0.617   6.791   1.259
11530TIP3    H134535   0.575   6.762   1.178
11530TIP3    H234536   0.648   6.879   1.239
11531TIP3   OH234537   7.647   6.818   0.193
11531TIP3    H134538   7.631   6.857   0.107
11531TIP3    H234539   7.560   6.802   0.229
11532TIP3   OH234540   7.223   6.401   1.042
11532TIP3    H134541   7.232   6.496   1.048
11532TIP3    H234542   7.309   6.367   1.069
11533TIP3   OH234543   7.183   5.418   3.655
11533TIP3    H134544   7.165   5.329   3.625
11533TIP3    H234545   7.271   5.413   3.692
11534TIP3   OH234546   2.253   5.013   5.560
11534TIP3    H134547   2.312   4.944   5.529
11534TIP3    H234548   2.201   5.037   5.483
11535TIP3   OH234549   2.667   4.168   2.323
11535TIP3    H134550   2.743   4.226   2.325
11535TIP3    H234551   2.620   4.192   2.243
11536TIP3   OH234552   0.479   4.936   2.394
11536TIP3    H134553   0.491   4.923   2.489
11536TIP3    H234554   0.567   4.929   2.358
11537TIP3   OH234555   5.592   3.059   5.472
11537TIP3    H134556   5.550   3.111   5.405
11537TIP3    H234557   5.571   2.968   5.449
11538TIP3   OH234558   0.825   6.556   1.231
11538TIP3    H134559   0.871   6.518   1.156
11538TIP3    H234560   0.856   6.647   1.234
11539TIP3   OH234561   1.232   3.146   1.041
11539TIP3    H134562   1.286   3.214   1.081
11539TIP3    H234563   1.143   3.180   1.047
11540TIP3   OH234564   0.787   4.146   3.727
11540TIP3    H134565   0.730   4.069   3.730
11540TIP3    H234566   0.756   4.196   3.651
11541TIP3   OH234567   2.853   5.194   5.067
11541TIP3    H134568   2.902   5.137   5.008
11541TIP3    H234569   2.903   5.194   5.149
11542TIP3   OH234570   7.205   0.149   0.868
11542TIP3    H134571   7.190   0.111   0.781
11542TIP3    H234572   7.144   0.103   0.925
11543TIP3   OH234573   3.124   5.498   0.433
11543TIP3    H134574   3.175   5.418   0.441
11543TIP3    H234575   3.154   5.539   0.352
11544TIP3   OH234576   2.957   3.022   5.964
11544TIP3    H134577   2.933   3.074   6.041
11544TIP3    H234578   3.042   3.057   5.937
11545TIP3   OH234579   2.278   3.176   4.681
11545TIP3    H134580   2.232   3.200   4.600
11545TIP3    H234581   2.214   3.127   4.732
11546TIP3   OH234582   3.165   1.864   4.330
11546TIP3    H134583   3.208   1.918   4.263
11546TIP3    H234584   3.139   1.784   4.285
11547TIP3   OH234585   0.476   6.466   4.938
11547TIP3    H134586   0.478   6.442   4.845
11547TIP3    H234587   0.432   6.552   4.939
11548TIP3   OH234588   0.735   3.428   0.500
11548TIP3    H134589   0.747   3.460   0.590
11548TIP3    H234590   0.723   3.508   0.448
11549TIP3   OH234591   6.699   1.908   2.283
11549TIP3    H134592   6.709   1.988   2.231
11549TIP3    H234593   6.690   1.939   2.373
11550TIP3   OH234594   3.293   7.267   4.937
11550TIP3    H134595   3.306   7.280   5.030
11550TIP3    H234596   3.348   7.192   4.915
11551TIP3   OH234597   0.194   5.822   5.358
11551TIP3    H134598   0.170   5.881   5.287
11551TIP3    H234599   0.121   5.760   5.363
11552TIP3   OH234600   1.603   7.436   0.789
11552TIP3    H134601   1.511   7.413   0.779
11552TIP3    H234602   1.607   7.480   0.874
11553TIP3   OH234603   2.384   4.280   2.638
11553TIP3    H134604   2.468   4.313   2.606
11553TIP3    H234605   2.400   4.187   2.656
11554TIP3   OH234606   3.588   3.160   3.624
11554TIP3    H134607   3.678   3.133   3.642
11554TIP3    H234608   3.593   3.208   3.541
11555TIP3   OH234609   7.123   2.138   4.030
11555TIP3    H134610   7.164   2.145   4.116
11555TIP3    H234611   7.082   2.224   4.016
11556TIP3   OH234612   6.145   3.505   2.403
11556TIP3    H134613   6.125   3.550   2.320
11556TIP3    H234614   6.060   3.476   2.435
11557TIP3   OH234615   0.840   3.029   3.173
11557TIP3    H134616   0.747   3.020   3.194
11557TIP3    H234617   0.859   2.953   3.118
11558TIP3   OH234618   4.492   6.264   0.481
11558TIP3    H134619   4.550   6.189   0.467
11558TIP3    H234620   4.473   6.297   0.394
11559TIP3   OH234621   2.076   3.400   1.215
11559TIP3    H134622   2.159   3.398   1.261
11559TIP3    H234623   2.071   3.489   1.179
11560TIP3   OH234624   7.889   5.968   4.466
11560TIP3    H134625   7.876   5.884   4.510
11560TIP3    H234626   7.833   6.029   4.513
11561TIP3   OH234627   1.494   2.867   1.412
11561TIP3    H134628   1.559   2.818   1.363
11561TIP3    H234629   1.442   2.913   1.346
11562TIP3   OH234630   6.179   3.132   3.836
11562TIP3    H134631   6.262   3.128   3.884
11562TIP3    H234632   6.167   3.225   3.817
11563TIP3   OH234633   5.581   0.664   5.253
11563TIP3    H134634   5.569   0.625   5.339
11563TIP3    H234635   5.557   0.595   5.191
11564TIP3   OH234636   3.124   5.572   5.189
11564TIP3    H134637   3.121   5.664   5.213
11564TIP3    H234638   3.058   5.562   5.120
11565TIP3   OH234639   6.891   7.704   2.362
11565TIP3    H134640   6.978   7.689   2.400
11565TIP3    H234641   6.892   7.797   2.337
11566TIP3   OH234642   7.825   6.294   2.210
11566TIP3    H134643   7.808   6.359   2.142
11566TIP3    H234644   7.881   6.229   2.167
11567TIP3   OH234645   6.653   6.970   0.091
11567TIP3    H134646   6.562   6.974   0.121
11567TIP3    H234647   6.673   6.876   0.088
11568TIP3   OH234648   6.313   2.481   6.245
11568TIP3    H134649   6.380   2.518   6.187
11568TIP3    H234650   6.293   2.395   6.208
11569TIP3   OH234651   3.036   1.451   6.038
11569TIP3    H134652   3.127   1.426   6.021
11569TIP3    H234653   2.988   1.418   5.962
11570TIP3   OH234654   4.138   7.802   3.199
11570TIP3    H134655   4.206   7.796   3.132
11570TIP3    H234656   4.056   7.788   3.152
11571TIP3   OH234657   3.064   1.637   5.073
11571TIP3    H134658   3.084   1.571   5.007
11571TIP3    H234659   3.146   1.686   5.083
11572TIP3   OH234660   4.780   2.614   6.375
11572TIP3    H134661   4.824   2.618   6.291
11572TIP3    H234662   4.822   2.540   6.420
11573TIP3   OH234663   5.942   2.744   3.863
11573TIP3    H134664   6.025   2.706   3.835
11573TIP3    H234665   5.950   2.837   3.839
11574TIP3   OH234666   5.739   6.502   5.724
11574TIP3    H134667   5.819   6.504   5.671
11574TIP3    H234668   5.764   6.544   5.806
11575TIP3   OH234669   5.884   0.246   2.375
11575TIP3    H134670   5.839   0.218   2.454
11575TIP3    H234671   5.876   0.171   2.316
11576TIP3   OH234672   3.244   5.456   2.705
11576TIP3    H134673   3.181   5.399   2.662
11576TIP3    H234674   3.211   5.545   2.688
11577TIP3   OH234675   0.641   4.597   5.953
11577TIP3    H134676   0.580   4.626   6.021
11577TIP3    H234677   0.585   4.568   5.881
11578TIP3   OH234678   1.806   0.356   4.102
11578TIP3    H134679   1.818   0.432   4.160
11578TIP3    H234680   1.892   0.314   4.099
11579TIP3   OH234681   5.417   1.963   0.372
11579TIP3    H134682   5.490   2.018   0.347
11579TIP3    H234683   5.418   1.891   0.309
11580TIP3   OH234684   5.259   2.322   4.594
11580TIP3    H134685   5.180   2.351   4.548
11580TIP3    H234686   5.301   2.261   4.534
11581TIP3   OH234687   6.225   4.560   1.676
11581TIP3    H134688   6.280   4.615   1.731
11581TIP3    H234689   6.262   4.472   1.686
11582TIP3   OH234690   3.920   2.069   5.416
11582TIP3    H134691   3.929   2.017   5.496
11582TIP3    H234692   3.886   2.008   5.351
11583TIP3   OH234693   4.568   3.558   5.428
11583TIP3    H134694   4.596   3.538   5.517
11583TIP3    H234695   4.634   3.517   5.371
11584TIP3   OH234696   5.808   0.377   2.098
11584TIP3    H134697   5.798   0.295   2.049
11584TIP3    H234698   5.818   0.348   2.189
11585TIP3   OH234699   1.614   0.167   5.317
11585TIP3    H134700   1.661   0.171   5.234
11585TIP3    H234701   1.527   0.134   5.294
11586TIP3   OH234702   2.600   5.545   1.413
11586TIP3    H134703   2.625   5.580   1.498
11586TIP3    H234704   2.672   5.568   1.355
11587TIP3   OH234705   0.380   4.369   3.149
11587TIP3    H134706   0.358   4.444   3.094
11587TIP3    H234707   0.342   4.294   3.103
11588TIP3   OH234708   4.171   1.008   2.673
11588TIP3    H134709   4.090   1.007   2.725
11588TIP3    H234710   4.196   1.101   2.671
11589TIP3   OH234711   1.218   0.161   1.764
11589TIP3    H134712   1.123   0.161   1.763
11589TIP3    H234713   1.243   0.070   1.751
11590TIP3   OH234714   3.721   4.308   0.717
11590TIP3    H134715   3.658   4.373   0.686
11590TIP3    H234716   3.755   4.344   0.799
11591TIP3   OH234717   3.756   5.345   0.917
11591TIP3    H134718   3.760   5.330   0.823
11591TIP3    H234719   3.712   5.268   0.952
11592TIP3   OH234720   2.234   0.238   0.116
11592TIP3    H134721   2.288   0.197   0.049
11592TIP3    H234722   2.145   0.207   0.097
11593TIP3   OH234723   6.222   2.917   1.785
11593TIP3    H134724   6.142   2.878   1.750
11593TIP3    H234725   6.260   2.963   1.710
11594TIP3   OH234726   7.156   7.807   1.936
11594TIP3    H134727   7.139   7.729   1.989
11594TIP3    H234728   7.180   7.773   1.850
11595TIP3   OH234729   7.301   1.328   2.798
11595TIP3    H134730   7.388   1.289   2.813
11595TIP3    H234731   7.242   1.253   2.792
11596TIP3   OH234732   8.192   5.394   4.185
11596TIP3    H134733   8.213   5.485   4.203
11596TIP3    H234734   8.267   5.360   4.137
11597TIP3   OH234735   4.134   2.255   1.594
11597TIP3    H134736   4.198   2.207   1.542
11597TIP3    H234737   4.049   2.228   1.559
11598TIP3   OH234738   6.037   7.136   4.657
11598TIP3    H134739   6.117   7.189   4.660
11598TIP3    H234740   5.990   7.169   4.580
11599TIP3   OH234741   6.013   7.048   1.539
11599TIP3    H134742   6.032   7.105   1.465
11599TIP3    H234743   5.945   6.988   1.508
11600TIP3   OH234744   7.877   4.688   2.270
11600TIP3    H134745   7.813   4.751   2.302
11600TIP3    H234746   7.824   4.617   2.232
11601TIP3   OH234747   2.679   6.670   6.232
11601TIP3    H134748   2.645   6.747   6.278
11601TIP3    H234749   2.707   6.704   6.147
11602TIP3   OH234750   3.577   4.181   5.404
11602TIP3    H134751   3.584   4.263   5.354
11602TIP3    H234752   3.484   4.158   5.398
11603TIP3   OH234753   7.942   6.987   5.970
11603TIP3    H134754   8.007   7.003   6.038
11603TIP3    H234755   7.963   6.900   5.937
11604TIP3   OH234756   6.880   4.068   1.051
11604TIP3    H134757   6.820   4.027   0.990
11604TIP3    H234758   6.921   4.139   1.001
11605TIP3   OH234759   4.537   5.920   2.759
11605TIP3    H134760   4.484   5.923   2.839
11605TIP3    H234761   4.531   6.008   2.722
11606TIP3   OH234762   7.517   6.459   2.633
11606TIP3    H134763   7.535   6.484   2.542
11606TIP3    H234764   7.578   6.388   2.650
11607TIP3   OH234765   2.667   3.578   0.119
11607TIP3    H134766   2.696   3.499   0.164
11607TIP3    H234767   2.744   3.635   0.119
11608TIP3   OH234768   1.693   4.730   6.567
11608TIP3    H134769   1.641   4.807   6.548
11608TIP3    H234770   1.757   4.726   6.496
11609TIP3   OH234771   5.680   1.840   2.199
11609TIP3    H134772   5.632   1.772   2.246
11609TIP3    H234773   5.612   1.902   2.173
11610TIP3   OH234774   0.390   7.281   0.155
11610TIP3    H134775   0.301   7.258   0.128
11610TIP3    H234776   0.387   7.282   0.251
11611TIP3   OH234777   4.207   6.878   1.729
11611TIP3    H134778   4.168   6.921   1.805
11611TIP3    H234779   4.173   6.926   1.654
11612TIP3   OH234780   2.263   3.551   2.239
11612TIP3    H134781   2.305   3.611   2.178
11612TIP3    H234782   2.205   3.497   2.185
11613TIP3   OH234783   6.609   0.342   0.192
11613TIP3    H134784   6.666   0.341   0.269
11613TIP3    H234785   6.525   0.310   0.224
11614TIP3   OH234786   4.196   0.336   5.992
11614TIP3    H134787   4.257   0.276   6.033
11614TIP3    H234788   4.126   0.348   6.057
11615TIP3   OH234789   7.602   0.637   0.879
11615TIP3    H134790   7.583   0.715   0.932
11615TIP3    H234791   7.659   0.583   0.935
11616TIP3   OH234792   3.548   0.155   2.698
11616TIP3    H134793   3.529   0.111   2.781
11616TIP3    H234794   3.501   0.238   2.703
11617TIP3   OH234795   1.773   4.914   4.048
11617TIP3    H134796   1.777   5.006   4.075
11617TIP3    H234797   1.760   4.866   4.130
11618TIP3   OH234798   7.562   1.117   0.027
11618TIP3    H134799   7.497   1.050   0.048
11618TIP3    H234800   7.646   1.077   0.051
11619TIP3   OH234801   1.947   1.707   1.632
11619TIP3    H134802   2.031   1.729   1.590
11619TIP3    H234803   1.957   1.616   1.659
11620TIP3   OH234804   7.112   6.554   2.492
11620TIP3    H134805   7.190   6.524   2.445
11620TIP3    H234806   7.045   6.488   2.473
11621TIP3   OH234807   7.256   3.665   0.564
11621TIP3    H134808   7.196   3.708   0.625
11621TIP3    H234809   7.235   3.572   0.572
11622TIP3   OH234810   2.393   5.585   1.233
11622TIP3    H134811   2.436   5.602   1.149
11622TIP3    H234812   2.464   5.555   1.290
11623TIP3   OH234813   8.008   5.811   3.717
11623TIP3    H134814   8.047   5.797   3.803
11623TIP3    H234815   7.917   5.784   3.728
11624TIP3   OH234816   1.448   1.079   1.114
11624TIP3    H134817   1.387   1.132   1.063
11624TIP3    H234818   1.512   1.048   1.050
11625TIP3   OH234819   1.261   2.381   2.828
11625TIP3    H134820   1.178   2.424   2.811
11625TIP3    H234821   1.252   2.294   2.790
11626TIP3   OH234822   5.726   1.041   5.741
11626TIP3    H134823   5.660   0.994   5.792
11626TIP3    H234824   5.752   1.114   5.798
11627TIP3   OH234825   0.590   2.527   3.012
11627TIP3    H134826   0.562   2.594   3.074
11627TIP3    H234827   0.535   2.452   3.031
11628TIP3   OH234828   6.547   3.590   3.849
11628TIP3    H134829   6.579   3.680   3.837
11628TIP3    H234830   6.521   3.585   3.940
11629TIP3   OH234831   5.373   7.034   2.536
11629TIP3    H134832   5.310   7.003   2.601
11629TIP3    H234833   5.360   6.976   2.461
11630TIP3   OH234834   7.321   0.335   0.427
11630TIP3    H134835   7.271   0.303   0.352
11630TIP3    H234836   7.257   0.379   0.483
11631TIP3   OH234837   4.287   5.923   4.136
11631TIP3    H134838   4.291   6.014   4.110
11631TIP3    H234839   4.218   5.885   4.081
11632TIP3   OH234840   6.199   5.375   4.738
11632TIP3    H134841   6.176   5.426   4.815
11632TIP3    H234842   6.116   5.357   4.694
11633TIP3   OH234843   2.469   5.196   4.673
11633TIP3    H134844   2.536   5.212   4.739
11633TIP3    H234845   2.486   5.260   4.604
11634TIP3   OH234846   1.204   2.707   1.225
11634TIP3    H134847   1.294   2.677   1.212
11634TIP3    H234848   1.208   2.802   1.211
11635TIP3   OH234849   5.892   3.596   4.001
11635TIP3    H134850   5.938   3.513   4.015
11635TIP3    H234851   5.873   3.628   4.090
11636TIP3   OH234852   5.913   1.967   3.479
11636TIP3    H134853   5.938   2.040   3.422
11636TIP3    H234854   5.963   1.982   3.559
11637TIP3   OH234855   1.848   0.806   1.466
11637TIP3    H134856   1.810   0.869   1.404
11637TIP3    H234857   1.820   0.837   1.552
11638TIP3   OH234858   8.095   6.529   4.001
11638TIP3    H134859   8.056   6.516   3.915
11638TIP3    H234860   8.179   6.483   3.997
11639TIP3   OH234861   7.043   4.289   0.955
11639TIP3    H134862   6.948   4.288   0.959
11639TIP3    H234863   7.065   4.380   0.936
11640TIP3   OH234864   5.443   2.328   3.708
11640TIP3    H134865   5.467   2.236   3.701
11640TIP3    H234866   5.517   2.375   3.669
11641TIP3   OH234867   6.039   7.431   0.180
11641TIP3    H134868   5.968   7.489   0.153
11641TIP3    H234869   6.049   7.370   0.107
11642TIP3   OH234870   2.939   2.094   1.046
11642TIP3    H134871   2.880   2.037   1.096
11642TIP3    H234872   2.922   2.073   0.955
11643TIP3   OH234873   6.640   4.525   6.768
11643TIP3    H134874   6.565   4.575   6.802
11643TIP3    H234875   6.697   4.592   6.728
11644TIP3   OH234876   1.731   3.605   5.492
11644TIP3    H134877   1.659   3.633   5.436
11644TIP3    H234878   1.736   3.672   5.561
11645TIP3   OH234879   3.721   4.388   5.914
11645TIP3    H134880   3.682   4.374   5.828
11645TIP3    H234881   3.777   4.465   5.903
11646TIP3   OH234882   4.828   3.674   1.327
11646TIP3    H134883   4.765   3.602   1.318
11646TIP3    H234884   4.793   3.729   1.396
11647TIP3   OH234885   1.946   5.760   3.115
11647TIP3    H134886   1.860   5.744   3.155
11647TIP3    H234887   1.962   5.684   3.060
11648TIP3   OH234888   5.076   4.622   2.599
11648TIP3    H134889   5.049   4.607   2.509
11648TIP3    H234890   5.073   4.718   2.609
11649TIP3   OH234891   6.063   1.932   1.454
11649TIP3    H134892   6.083   1.982   1.374
11649TIP3    H234893   6.148   1.913   1.492
11650TIP3   OH234894   3.428   6.360   0.090
11650TIP3    H134895   3.352   6.304   0.074
11650TIP3    H234896   3.409   6.440   0.041
11651TIP3   OH234897   5.925   0.135   5.218
11651TIP3    H134898   5.932   0.201   5.286
11651TIP3    H234899   5.945   0.181   5.137
11652TIP3   OH234900   3.764   4.236   2.244
11652TIP3    H134901   3.855   4.238   2.273
11652TIP3    H234902   3.714   4.211   2.321
11653TIP3   OH234903   3.216   4.685   0.538
11653TIP3    H134904   3.225   4.615   0.473
11653TIP3    H234905   3.279   4.751   0.510
11654TIP3   OH234906   3.546   0.400   3.735
11654TIP3    H134907   3.549   0.476   3.794
11654TIP3    H234908   3.615   0.342   3.768
11655TIP3   OH234909   6.662   5.193   1.059
11655TIP3    H134910   6.688   5.105   1.034
11655TIP3    H234911   6.711   5.251   1.000
11656TIP3   OH234912   6.224   3.418   3.797
11656TIP3    H134913   6.218   3.512   3.784
11656TIP3    H234914   6.310   3.394   3.764
11657TIP3   OH234915   7.081   4.352   1.446
11657TIP3    H134916   6.998   4.325   1.407
11657TIP3    H234917   7.081   4.314   1.533
11658TIP3   OH234918   5.602   3.135   1.932
11658TIP3    H134919   5.676   3.167   1.881
11658TIP3    H234920   5.525   3.173   1.890
11659TIP3   OH234921   4.204   0.888   4.490
11659TIP3    H134922   4.180   0.805   4.531
11659TIP3    H234923   4.121   0.933   4.476
11660TIP3   OH234924   6.391   5.903   1.053
11660TIP3    H134925   6.306   5.900   1.095
11660TIP3    H234926   6.385   5.841   0.980
11661TIP3   OH234927   2.983   2.478   1.820
11661TIP3    H134928   2.998   2.557   1.768
11661TIP3    H234929   3.023   2.497   1.904
11662TIP3   OH234930   8.269   1.901   0.155
11662TIP3    H134931   8.315   1.835   0.208
11662TIP3    H234932   8.337   1.935   0.096
11663TIP3   OH234933   0.903   2.686   5.476
11663TIP3    H134934   0.890   2.621   5.406
11663TIP3    H234935   0.992   2.670   5.508
11664TIP3   OH234936   5.345   2.921   4.884
11664TIP3    H134937   5.410   2.900   4.952
11664TIP3    H234938   5.346   3.016   4.879
11665TIP3   OH234939   0.590   4.145   4.583
11665TIP3    H134940   0.662   4.095   4.545
11665TIP3    H234941   0.632   4.212   4.637
11666TIP3   OH234942   6.225   6.875   4.780
11666TIP3    H134943   6.238   6.962   4.820
11666TIP3    H234944   6.228   6.891   4.686
11667TIP3   OH234945   6.298   2.054   4.348
11667TIP3    H134946   6.391   2.035   4.363
11667TIP3    H234947   6.293   2.076   4.255
11668TIP3   OH234948   0.490   7.431   5.292
11668TIP3    H134949   0.459   7.459   5.206
11668TIP3    H234950   0.452   7.495   5.353
11669TIP3   OH234951   5.306   0.218   5.683
11669TIP3    H134952   5.247   0.143   5.682
11669TIP3    H234953   5.288   0.260   5.767
11670TIP3   OH234954   2.583   3.415   1.683
11670TIP3    H134955   2.634   3.420   1.601
11670TIP3    H234956   2.493   3.405   1.654
11671TIP3   OH234957   2.167   7.790   5.338
11671TIP3    H134958   2.125   7.826   5.260
11671TIP3    H234959   2.146   7.697   5.337
11672TIP3   OH234960   7.723   4.060   3.457
11672TIP3    H134961   7.643   4.104   3.486
11672TIP3    H234962   7.693   3.999   3.389
11673TIP3   OH234963   7.686   3.864   2.388
11673TIP3    H134964   7.658   3.939   2.334
11673TIP3    H234965   7.663   3.888   2.477
11674TIP3   OH234966   7.801   3.780   3.551
11674TIP3    H134967   7.846   3.699   3.526
11674TIP3    H234968   7.805   3.835   3.472
11675TIP3   OH234969   1.893   1.581   6.464
11675TIP3    H134970   1.884   1.495   6.421
11675TIP3    H234971   1.916   1.641   6.393
11676TIP3   OH234972   7.002   0.692   3.978
11676TIP3    H134973   6.950   0.765   4.010
11676TIP3    H234974   6.939   0.621   3.966
11677TIP3   OH234975   0.353   4.072   3.288
11677TIP3    H134976   0.311   4.060   3.202
11677TIP3    H234977   0.367   3.983   3.321
11678TIP3   OH234978   1.870   1.510   3.805
11678TIP3    H134979   1.919   1.581   3.763
11678TIP3    H234980   1.783   1.514   3.765
11679TIP3   OH234981   7.542   7.789   0.567
11679TIP3    H134982   7.604   7.839   0.514
11679TIP3    H234983   7.486   7.745   0.503
11680TIP3   OH234984   5.874   0.059   1.131
11680TIP3    H134985   5.827   0.127   1.083
11680TIP3    H234986   5.966   0.087   1.128
11681TIP3   OH234987   4.812   0.298   6.744
11681TIP3    H134988   4.782   0.228   6.686
11681TIP3    H234989   4.907   0.289   6.746
11682TIP3   OH234990   0.381   6.876   2.385
11682TIP3    H134991   0.303   6.831   2.416
11682TIP3    H234992   0.431   6.894   2.464
11683TIP3   OH234993   8.256   3.351   3.454
11683TIP3    H134994   8.332   3.402   3.426
11683TIP3    H234995   8.260   3.352   3.549
11684TIP3   OH234996   6.105   1.421   2.717
11684TIP3    H134997   6.188   1.440   2.760
11684TIP3    H234998   6.096   1.490   2.651
11685TIP3   OH234999   7.428   7.434   0.515
11685TIP3    H135000   7.351   7.489   0.524
11685TIP3    H235001   7.459   7.421   0.605
11686TIP3   OH235002   1.730   0.402   3.504
11686TIP3    H135003   1.643   0.391   3.467
11686TIP3    H235004   1.725   0.485   3.553
11687TIP3   OH235005   2.203   4.181   1.201
11687TIP3    H135006   2.196   4.139   1.115
11687TIP3    H235007   2.245   4.116   1.256
11688TIP3   OH235008   0.086   1.273   1.204
11688TIP3    H135009   0.075   1.328   1.126
11688TIP3    H235010   0.121   1.191   1.171
11689TIP3   OH235011   3.228   0.592   3.754
11689TIP3    H135012   3.139   0.602   3.788
11689TIP3    H235013   3.237   0.498   3.738
11690TIP3   OH235014   6.915   2.838   6.427
11690TIP3    H135015   6.949   2.814   6.341
11690TIP3    H235016   6.987   2.822   6.487
11691TIP3   OH235017   2.890   6.113   1.009
11691TIP3    H135018   2.985   6.108   0.998
11691TIP3    H235019   2.875   6.192   1.061
11692TIP3   OH235020   5.463   2.785   4.652
11692TIP3    H135021   5.393   2.825   4.704
11692TIP3    H235022   5.423   2.707   4.614
11693TIP3   OH235023   0.274   0.368   1.414
11693TIP3    H135024   0.220   0.439   1.380
11693TIP3    H235025   0.212   0.295   1.425
11694TIP3   OH235026   2.698   4.843   3.119
11694TIP3    H135027   2.775   4.838   3.176
11694TIP3    H235028   2.732   4.819   3.033
11695TIP3   OH235029   6.683   7.504   1.462
11695TIP3    H135030   6.642   7.524   1.546
11695TIP3    H235031   6.625   7.439   1.422
11696TIP3   OH235032   8.074   3.018   4.289
11696TIP3    H135033   8.151   2.981   4.245
11696TIP3    H235034   8.023   3.057   4.218
11697TIP3   OH235035   3.864   4.550   3.073
11697TIP3    H135036   3.920   4.604   3.129
11697TIP3    H235037   3.832   4.610   3.006
11698TIP3   OH235038   3.380   4.034   2.067
11698TIP3    H135039   3.316   3.993   2.125
11698TIP3    H235040   3.396   4.120   2.106
11699TIP3   OH235041   1.367   7.281   1.735
11699TIP3    H135042   1.325   7.233   1.805
11699TIP3    H235043   1.441   7.225   1.708
11700TIP3   OH235044   7.131   2.486   1.776
11700TIP3    H135045   7.112   2.439   1.695
11700TIP3    H235046   7.226   2.498   1.775
11701TIP3   OH235047   5.828   1.518   2.628
11701TIP3    H135048   5.875   1.459   2.569
11701TIP3    H235049   5.893   1.545   2.693
11702TIP3   OH235050   3.522   1.642   6.543
11702TIP3    H135051   3.615   1.643   6.569
11702TIP3    H235052   3.488   1.726   6.573
11703TIP3   OH235053   2.154   7.568   2.916
11703TIP3    H135054   2.230   7.511   2.931
11703TIP3    H235055   2.083   7.526   2.964
11704TIP3   OH235056   6.117   2.462   3.502
11704TIP3    H135057   6.092   2.438   3.413
11704TIP3    H235058   6.033   2.469   3.549
11705TIP3   OH235059   7.107   3.053   5.317
11705TIP3    H135060   7.133   3.114   5.386
11705TIP3    H235061   7.167   2.979   5.327
11706TIP3   OH235062   6.867   4.624   6.030
11706TIP3    H135063   6.941   4.566   6.047
11706TIP3    H235064   6.856   4.622   5.935
11707TIP3   OH235065   3.988   1.985   1.817
11707TIP3    H135066   3.954   2.061   1.865
11707TIP3    H235067   4.081   1.982   1.839
11708TIP3   OH235068   8.150   0.503   5.821
11708TIP3    H135069   8.178   0.418   5.786
11708TIP3    H235070   8.227   0.535   5.868
11709TIP3   OH235071   3.639   1.627   1.616
11709TIP3    H135072   3.637   1.545   1.567
11709TIP3    H235073   3.676   1.604   1.701
11710TIP3   OH235074   6.528   5.596   1.673
11710TIP3    H135075   6.532   5.676   1.726
11710TIP3    H235076   6.434   5.575   1.668
11711TIP3   OH235077   2.209   1.099   2.372
11711TIP3    H135078   2.203   1.194   2.372
11711TIP3    H235079   2.268   1.079   2.299
11712TIP3   OH235080   7.139   0.161   5.284
11712TIP3    H135081   7.105   0.204   5.205
11712TIP3    H235082   7.159   0.072   5.256
11713TIP3   OH235083   6.166   1.582   2.498
11713TIP3    H135084   6.200   1.659   2.454
11713TIP3    H235085   6.112   1.538   2.432
11714TIP3   OH235086   5.271   3.336   4.053
11714TIP3    H135087   5.345   3.303   4.103
11714TIP3    H235088   5.311   3.380   3.978
11715TIP3   OH235089   3.982   6.681   5.910
11715TIP3    H135090   4.068   6.710   5.940
11715TIP3    H235091   3.995   6.657   5.819
11716TIP3   OH235092   3.347   6.681   3.241
11716TIP3    H135093   3.343   6.622   3.165
11716TIP3    H235094   3.280   6.747   3.223
11717TIP3   OH235095   8.277   6.497   5.017
11717TIP3    H135096   8.279   6.546   4.934
11717TIP3    H235097   8.288   6.565   5.084
11718TIP3   OH235098   5.551   7.469   2.486
11718TIP3    H135099   5.543   7.546   2.430
11718TIP3    H235100   5.634   7.429   2.461
11719TIP3   OH235101   6.133   2.287   5.013
11719TIP3    H135102   6.072   2.242   5.072
11719TIP3    H235103   6.210   2.230   5.011
11720TIP3   OH235104   0.070   5.218   0.749
11720TIP3    H135105   0.142   5.281   0.743
11720TIP3    H235106   0.095   5.158   0.819
11721TIP3   OH235107   7.134   1.884   3.185
11721TIP3    H135108   7.156   1.938   3.261
11721TIP3    H235109   7.158   1.938   3.110
11722TIP3   OH235110   2.113   2.763   5.570
11722TIP3    H135111   2.095   2.850   5.606
11722TIP3    H235112   2.064   2.703   5.626
11723TIP3   OH235113   6.030   7.311   6.344
11723TIP3    H135114   6.026   7.228   6.297
11723TIP3    H235115   6.122   7.319   6.372
11724TIP3   OH235116   1.977   0.899   1.896
11724TIP3    H135117   1.935   0.903   1.982
11724TIP3    H235118   2.063   0.939   1.909
11725TIP3   OH235119   5.101   7.745   1.259
11725TIP3    H135120   5.167   7.698   1.311
11725TIP3    H235121   5.146   7.764   1.177
11726TIP3   OH235122   7.945   4.215   6.265
11726TIP3    H135123   7.873   4.238   6.207
11726TIP3    H235124   7.905   4.209   6.352
11727TIP3   OH235125   1.534   7.412   5.177
11727TIP3    H135126   1.503   7.329   5.214
11727TIP3    H235127   1.559   7.390   5.087
11728TIP3   OH235128   6.929   6.009   3.384
11728TIP3    H135129   6.971   5.944   3.440
11728TIP3    H235130   6.894   6.074   3.445
11729TIP3   OH235131   4.093   2.567   6.773
11729TIP3    H135132   4.139   2.579   6.690
11729TIP3    H235133   4.006   2.602   6.758
11730TIP3   OH235134   4.875   4.547   5.987
11730TIP3    H135135   4.871   4.620   6.049
11730TIP3    H235136   4.891   4.470   6.042
11731TIP3   OH235137   2.882   1.754   1.753
11731TIP3    H135138   2.978   1.754   1.761
11731TIP3    H235139   2.852   1.700   1.826
11732TIP3   OH235140   7.081   6.033   6.228
11732TIP3    H135141   7.065   6.115   6.275
11732TIP3    H235142   7.011   5.975   6.257
11733TIP3   OH235143   7.883   5.446   3.574
11733TIP3    H135144   7.975   5.455   3.550
11733TIP3    H235145   7.859   5.357   3.547
11734TIP3   OH235146   6.816   1.236   5.120
11734TIP3    H135147   6.896   1.214   5.169
11734TIP3    H235148   6.801   1.328   5.140
11735TIP3   OH235149   0.820   0.055   3.292
11735TIP3    H135150   0.849   0.140   3.325
11735TIP3    H235151   0.883   0.034   3.223
11736TIP3   OH235152   3.509   2.557   5.066
11736TIP3    H135153   3.567   2.481   5.055
11736TIP3    H235154   3.568   2.632   5.067
11737TIP3   OH235155   8.232   5.942   1.289
11737TIP3    H135156   8.266   5.985   1.210
11737TIP3    H235157   8.275   5.988   1.361
11738TIP3   OH235158   7.543   3.141   1.939
11738TIP3    H135159   7.582   3.058   1.964
11738TIP3    H235160   7.498   3.123   1.857
11739TIP3   OH235161   3.335   1.785   0.432
11739TIP3    H135162   3.275   1.804   0.503
11739TIP3    H235163   3.397   1.858   0.433
11740TIP3   OH235164   8.121   4.788   4.550
11740TIP3    H135165   8.182   4.734   4.500
11740TIP3    H235166   8.167   4.808   4.631
11741TIP3   OH235167   1.325   3.100   3.562
11741TIP3    H135168   1.250   3.063   3.608
11741TIP3    H235169   1.287   3.143   3.485
11742TIP3   OH235170   5.269   7.770   3.724
11742TIP3    H135171   5.263   7.756   3.630
11742TIP3    H235172   5.317   7.694   3.756
11743TIP3   OH235173   7.390   7.073   6.519
11743TIP3    H135174   7.397   7.057   6.425
11743TIP3    H235175   7.471   7.119   6.541
11744TIP3   OH235176   3.812   1.461   1.961
11744TIP3    H135177   3.888   1.468   2.018
11744TIP3    H235178   3.737   1.476   2.019
11745TIP3   OH235179   6.453   1.548   2.496
11745TIP3    H135180   6.383   1.545   2.561
11745TIP3    H235181   6.454   1.638   2.465
11746TIP3   OH235182   0.835   6.229   2.744
11746TIP3    H135183   0.783   6.280   2.806
11746TIP3    H235184   0.813   6.266   2.658
11747TIP3   OH235185   7.113   4.884   4.956
11747TIP3    H135186   7.060   4.855   4.882
11747TIP3    H235187   7.059   4.951   4.999
11748TIP3   OH235188   0.751   6.966   2.830
11748TIP3    H135189   0.759   6.935   2.921
11748TIP3    H235190   0.719   7.056   2.838
11749TIP3   OH235191   7.881   3.557   3.419
11749TIP3    H135192   7.834   3.479   3.389
11749TIP3    H235193   7.957   3.562   3.361
11750TIP3   OH235194   0.456   5.511   1.120
11750TIP3    H135195   0.467   5.483   1.028
11750TIP3    H235196   0.393   5.582   1.116
11751TIP3   OH235197   7.879   1.290   4.151
11751TIP3    H135198   7.866   1.248   4.066
11751TIP3    H235199   7.791   1.310   4.182
11752TIP3   OH235200   7.190   0.994   1.167
11752TIP3    H135201   7.185   0.924   1.232
11752TIP3    H235202   7.257   0.965   1.106
11753TIP3   OH235203   4.657   4.671   2.478
11753TIP3    H135204   4.595   4.599   2.482
11753TIP3    H235205   4.610   4.741   2.432
11754TIP3   OH235206   5.110   4.181   0.185
11754TIP3    H135207   5.143   4.092   0.173
11754TIP3    H235208   5.053   4.175   0.262
11755TIP3   OH235209   3.629   2.031   2.187
11755TIP3    H135210   3.575   2.015   2.110
11755TIP3    H235211   3.566   2.052   2.256
11756TIP3   OH235212   5.049   6.382   3.878
11756TIP3    H135213   5.088   6.408   3.795
11756TIP3    H235214   5.122   6.342   3.926
11757TIP3   OH235215   4.075   7.783   4.510
11757TIP3    H135216   4.096   7.809   4.600
11757TIP3    H235217   4.093   7.689   4.508
11758TIP3   OH235218   1.253   0.576   2.481
11758TIP3    H135219   1.237   0.621   2.397
11758TIP3    H235220   1.278   0.487   2.456
11759TIP3   OH235221   5.084   1.598   0.575
11759TIP3    H135222   5.069   1.677   0.522
11759TIP3    H235223   5.030   1.612   0.653
11760TIP3   OH235224   7.665   3.173   0.109
11760TIP3    H135225   7.634   3.173   0.199
11760TIP3    H235226   7.633   3.255   0.072
11761TIP3   OH235227   6.895   1.962   5.021
11761TIP3    H135228   6.873   1.933   4.933
11761TIP3    H235229   6.823   1.931   5.076
11762TIP3   OH235230   0.030   2.039   1.625
11762TIP3    H135231   0.098   2.063   1.687
11762TIP3    H235232  -0.032   1.986   1.675
11763TIP3   OH235233   3.229   0.376   3.364
11763TIP3    H135234   3.281   0.300   3.338
11763TIP3    H235235   3.254   0.444   3.301
11764TIP3   OH235236   8.153   5.770   3.192
11764TIP3    H135237   8.112   5.824   3.260
11764TIP3    H235238   8.143   5.822   3.112
11765TIP3   OH235239   8.112   4.263   1.123
11765TIP3    H135240   8.142   4.173   1.137
11765TIP3    H235241   8.165   4.316   1.182
11766TIP3   OH235242   3.667   6.570   1.813
11766TIP3    H135243   3.650   6.663   1.798
11766TIP3    H235244   3.762   6.562   1.803
11767TIP3   OH235245   6.718   0.183   0.003
11767TIP3    H135246   6.668   0.229   0.070
11767TIP3    H235247   6.675   0.207  -0.079
11768TIP3   OH235248   0.452   1.472   3.060
11768TIP3    H135249   0.534   1.432   3.088
11768TIP3    H235250   0.408   1.496   3.141
11769TIP3   OH235251   5.449   5.872   4.626
11769TIP3    H135252   5.368   5.822   4.638
11769TIP3    H235253   5.439   5.948   4.684
11770TIP3   OH235254   3.961   5.025   2.820
11770TIP3    H135255   3.991   5.085   2.889
11770TIP3    H235256   4.040   4.977   2.794
11771TIP3   OH235257   5.213   7.088   4.866
11771TIP3    H135258   5.141   7.137   4.827
11771TIP3    H235259   5.247   7.034   4.795
11772TIP3   OH235260   2.144   4.395   4.644
11772TIP3    H135261   2.202   4.464   4.612
11772TIP3    H235262   2.112   4.352   4.565
11773TIP3   OH235263   5.523   1.935   4.677
11773TIP3    H135264   5.518   2.023   4.715
11773TIP3    H235265   5.617   1.919   4.665
11774TIP3   OH235266   4.129   3.812   0.935
11774TIP3    H135267   4.201   3.769   0.981
11774TIP3    H235268   4.163   3.897   0.910
11775TIP3   OH235269   7.801   7.002   4.351
11775TIP3    H135270   7.714   7.028   4.384
11775TIP3    H235271   7.790   6.999   4.256
11776TIP3   OH235272   0.667   0.575   4.822
11776TIP3    H135273   0.637   0.661   4.791
11776TIP3    H235274   0.747   0.595   4.872
11777TIP3   OH235275   2.112   5.039   3.404
11777TIP3    H135276   2.094   5.029   3.497
11777TIP3    H235277   2.032   5.013   3.360
11778TIP3   OH235278   2.870   6.961   0.841
11778TIP3    H135279   2.794   6.990   0.892
11778TIP3    H235280   2.903   6.884   0.888
11779TIP3   OH235281   5.230   5.018   5.909
11779TIP3    H135282   5.312   5.010   5.861
11779TIP3    H235283   5.253   5.065   5.989
11780TIP3   OH235284   0.608   1.380   3.289
11780TIP3    H135285   0.593   1.448   3.354
11780TIP3    H235286   0.601   1.298   3.338
11781TIP3   OH235287   7.064   4.963   0.918
11781TIP3    H135288   7.015   4.882   0.930
11781TIP3    H235289   7.073   4.999   1.007
11782TIP3   OH235290   8.005   6.097   1.694
11782TIP3    H135291   8.037   6.008   1.681
11782TIP3    H235292   8.080   6.144   1.730
11783TIP3   OH235293   2.823   3.241   3.662
11783TIP3    H135294   2.894   3.229   3.726
11783TIP3    H235295   2.744   3.248   3.716
11784TIP3   OH235296   0.449   3.401   6.397
11784TIP3    H135297   0.454   3.461   6.322
11784TIP3    H235298   0.429   3.316   6.358
11785TIP3   OH235299   5.088   0.264   0.381
11785TIP3    H135300   5.078   0.283   0.287
11785TIP3    H235301   5.027   0.324   0.423
11786TIP3   OH235302   1.612   4.285   1.569
11786TIP3    H135303   1.630   4.257   1.479
11786TIP3    H235304   1.681   4.349   1.589
11787TIP3   OH235305   3.989   5.432   6.137
11787TIP3    H135306   4.024   5.364   6.080
11787TIP3    H235307   3.993   5.394   6.225
11788TIP3   OH235308   6.731   3.588   4.545
11788TIP3    H135309   6.641   3.603   4.516
11788TIP3    H235310   6.733   3.495   4.569
11789TIP3   OH235311   3.567   2.273   3.493
11789TIP3    H135312   3.482   2.291   3.534
11789TIP3    H235313   3.557   2.306   3.403
11790TIP3   OH235314   1.840   6.462   4.664
11790TIP3    H135315   1.932   6.446   4.684
11790TIP3    H235316   1.805   6.375   4.644
11791TIP3   OH235317   8.245   2.142   0.905
11791TIP3    H135318   8.327   2.093   0.908
11791TIP3    H235319   8.245   2.183   0.819
11792TIP3   OH235320   1.778   3.569   0.206
11792TIP3    H135321   1.808   3.616   0.284
11792TIP3    H235322   1.841   3.592   0.138
11793TIP3   OH235323   8.083   1.724   0.975
11793TIP3    H135324   8.155   1.693   1.031
11793TIP3    H235325   8.004   1.698   1.021
11794TIP3   OH235326   0.110   0.449   1.766
11794TIP3    H135327   0.132   0.477   1.855
11794TIP3    H235328   0.192   0.458   1.717
11795TIP3   OH235329   7.678   3.021   4.838
11795TIP3    H135330   7.734   3.089   4.798
11795TIP3    H235331   7.664   2.958   4.767
11796TIP3   OH235332   2.040   3.872   0.866
11796TIP3    H135333   2.000   3.870   0.780
11796TIP3    H235334   1.966   3.865   0.927
11797TIP3   OH235335   3.140   3.000   0.896
11797TIP3    H135336   3.054   3.037   0.918
11797TIP3    H235337   3.178   3.063   0.835
11798TIP3   OH235338   1.939   6.023   4.343
11798TIP3    H135339   1.891   5.940   4.350
11798TIP3    H235340   2.025   5.998   4.308
11799TIP3   OH235341   5.470   2.799   5.101
11799TIP3    H135342   5.449   2.755   5.183
11799TIP3    H235343   5.555   2.839   5.116
11800TIP3   OH235344   4.366   3.737   5.744
11800TIP3    H135345   4.359   3.826   5.708
11800TIP3    H235346   4.400   3.750   5.832
11801TIP3   OH235347   5.646   4.333   3.792
11801TIP3    H135348   5.676   4.343   3.882
11801TIP3    H235349   5.690   4.254   3.761
11802TIP3   OH235350   2.648   6.415   5.278
11802TIP3    H135351   2.626   6.335   5.231
11802TIP3    H235352   2.606   6.485   5.228
11803TIP3   OH235353   0.397   3.075   5.736
11803TIP3    H135354   0.421   3.010   5.669
11803TIP3    H235355   0.302   3.081   5.730
11804TIP3   OH235356   1.785   6.841   0.880
11804TIP3    H135357   1.802   6.796   0.797
11804TIP3    H235358   1.858   6.903   0.889
11805TIP3   OH235359   6.268   4.144   2.879
11805TIP3    H135360   6.174   4.139   2.894
11805TIP3    H235361   6.307   4.120   2.963
11806TIP3   OH235362   0.134   6.004   5.176
11806TIP3    H135363   0.214   6.022   5.126
11806TIP3    H235364   0.067   5.987   5.111
11807TIP3   OH235365   6.331   2.672   2.841
11807TIP3    H135366   6.417   2.663   2.800
11807TIP3    H235367   6.346   2.644   2.932
11808TIP3   OH235368   3.302   6.110   0.002
11808TIP3    H135369   3.315   6.041   0.067
11808TIP3    H235370   3.376   6.101  -0.058
11809TIP3   OH235371   4.677   2.398   1.184
11809TIP3    H135372   4.599   2.360   1.143
11809TIP3    H235373   4.681   2.487   1.149
11810TIP3   OH235374   1.008   3.203   3.475
11810TIP3    H135375   1.090   3.231   3.434
11810TIP3    H235376   0.942   3.215   3.407
11811TIP3   OH235377   2.870   4.825   1.192
11811TIP3    H135378   2.903   4.872   1.116
11811TIP3    H235379   2.849   4.894   1.255
11812TIP3   OH235380   1.607   6.524   3.137
11812TIP3    H135381   1.560   6.444   3.117
11812TIP3    H235382   1.575   6.587   3.072
11813TIP3   OH235383   3.717   7.532   5.720
11813TIP3    H135384   3.721   7.615   5.768
11813TIP3    H235385   3.738   7.556   5.630
11814TIP3   OH235386   7.142   0.491   2.222
11814TIP3    H135387   7.054   0.476   2.185
11814TIP3    H235388   7.157   0.415   2.278
11815TIP3   OH235389   6.843   6.949   3.650
11815TIP3    H135390   6.781   7.021   3.639
11815TIP3    H235391   6.808   6.879   3.594
11816TIP3   OH235392   7.175   5.331   4.979
11816TIP3    H135393   7.188   5.279   4.900
11816TIP3    H235394   7.262   5.341   5.016
11817TIP3   OH235395   2.326   0.474   5.179
11817TIP3    H135396   2.328   0.383   5.210
11817TIP3    H235397   2.275   0.521   5.244
11818TIP3   OH235398   4.714   4.720   2.036
11818TIP3    H135399   4.620   4.708   2.025
11818TIP3    H235400   4.723   4.808   2.071
11819TIP3   OH235401   0.615   5.563   3.783
11819TIP3    H135402   0.666   5.632   3.741
11819TIP3    H235403   0.550   5.609   3.836
11820TIP3   OH235404   4.943   2.413   6.499
11820TIP3    H135405   4.937   2.358   6.578
11820TIP3    H235406   5.024   2.463   6.511
11821TIP3   OH235407   4.774   4.659   6.221
11821TIP3    H135408   4.697   4.604   6.206
11821TIP3    H235409   4.746   4.723   6.287
11822TIP3   OH235410   4.231   4.355   1.575
11822TIP3    H135411   4.141   4.328   1.596
11822TIP3    H235412   4.265   4.389   1.657
11823TIP3   OH235413   4.719   0.091   5.486
11823TIP3    H135414   4.737   0.047   5.569
11823TIP3    H235415   4.799   0.082   5.436
11824TIP3   OH235416   4.335   5.563   0.630
11824TIP3    H135417   4.274   5.527   0.694
11824TIP3    H235418   4.417   5.517   0.645
11825TIP3   OH235419   6.641   0.567   0.491
11825TIP3    H135420   6.692   0.496   0.452
11825TIP3    H235421   6.550   0.540   0.479
11826TIP3   OH235422   0.906   6.453   1.983
11826TIP3    H135423   0.970   6.399   1.937
11826TIP3    H235424   0.943   6.541   1.983
11827TIP3   OH235425   7.368   1.926   0.930
11827TIP3    H135426   7.432   1.988   0.895
11827TIP3    H235427   7.389   1.842   0.889
11828TIP3   OH235428   6.102   0.982   3.005
11828TIP3    H135429   6.086   0.965   2.912
11828TIP3    H235430   6.027   1.034   3.033
11829TIP3   OH235431   1.920   3.048   4.420
11829TIP3    H135432   1.844   2.990   4.425
11829TIP3    H235433   1.912   3.091   4.335
11830TIP3   OH235434   5.660   5.618   0.194
11830TIP3    H135435   5.589   5.629   0.131
11830TIP3    H235436   5.702   5.536   0.168
11831TIP3   OH235437   0.816   0.851   5.077
11831TIP3    H135438   0.762   0.775   5.101
11831TIP3    H235439   0.901   0.834   5.117
11832TIP3   OH235440   5.880   3.107   3.971
11832TIP3    H135441   5.804   3.106   4.028
11832TIP3    H235442   5.852   3.155   3.893
11833TIP3   OH235443   5.851   2.212   0.523
11833TIP3    H135444   5.861   2.149   0.595
11833TIP3    H235445   5.932   2.203   0.473
11834TIP3   OH235446   1.005   2.334   0.966
11834TIP3    H135447   1.022   2.401   1.032
11834TIP3    H235448   1.081   2.276   0.970
11835TIP3   OH235449   2.144   7.101   4.648
11835TIP3    H135450   2.156   7.108   4.743
11835TIP3    H235451   2.230   7.124   4.612
11836TIP3   OH235452   5.408   5.039   1.478
11836TIP3    H135453   5.356   5.052   1.557
11836TIP3    H235454   5.496   5.022   1.510
11837TIP3   OH235455   6.376   0.791   4.784
11837TIP3    H135456   6.359   0.842   4.863
11837TIP3    H235457   6.470   0.804   4.767
11838TIP3   OH235458   7.388   5.592   6.400
11838TIP3    H135459   7.312   5.605   6.343
11838TIP3    H235460   7.432   5.515   6.364
11839TIP3   OH235461   6.525   1.160   3.641
11839TIP3    H135462   6.614   1.186   3.615
11839TIP3    H235463   6.492   1.110   3.566
11840TIP3   OH235464   6.059   7.009   2.880
11840TIP3    H135465   6.020   6.921   2.879
11840TIP3    H235466   5.989   7.066   2.912
11841TIP3   OH235467   0.194   3.952   1.482
11841TIP3    H135468   0.248   3.986   1.554
11841TIP3    H235469   0.241   3.874   1.452
11842TIP3   OH235470   3.163   2.262   4.454
11842TIP3    H135471   3.089   2.256   4.394
11842TIP3    H235472   3.144   2.198   4.522
11843TIP3   OH235473   2.037   2.988   4.139
11843TIP3    H135474   2.129   3.002   4.120
11843TIP3    H235475   2.035   2.908   4.190
11844TIP3   OH235476   4.367   1.196   6.137
11844TIP3    H135477   4.331   1.265   6.082
11844TIP3    H235478   4.366   1.118   6.082
11845TIP3   OH235479   2.822   6.497   5.619
11845TIP3    H135480   2.875   6.550   5.679
11845TIP3    H235481   2.734   6.498   5.658
11846TIP3   OH235482   3.068   7.413   5.993
11846TIP3    H135483   3.026   7.328   5.983
11846TIP3    H235484   3.024   7.469   5.929
11847TIP3   OH235485   6.757   4.945   0.918
11847TIP3    H135486   6.705   4.885   0.972
11847TIP3    H235487   6.758   4.904   0.831
11848TIP3   OH235488   5.760   6.735   6.766
11848TIP3    H135489   5.683   6.752   6.819
11848TIP3    H235490   5.730   6.674   6.698
11849TIP3   OH235491   2.124   5.971   3.644
11849TIP3    H135492   2.210   5.956   3.683
11849TIP3    H235493   2.073   5.893   3.668
11850TIP3   OH235494   3.776   1.246   5.894
11850TIP3    H135495   3.744   1.324   5.941
11850TIP3    H235496   3.741   1.255   5.805
11851TIP3   OH235497   7.056   3.848   1.447
11851TIP3    H135498   7.119   3.843   1.376
11851TIP3    H235499   7.000   3.922   1.423
11852TIP3   OH235500   3.436   0.203   3.298
11852TIP3    H135501   3.491   0.224   3.374
11852TIP3    H235502   3.462   0.114   3.273
11853TIP3   OH235503   0.696   3.242   0.317
11853TIP3    H135504   0.743   3.296   0.380
11853TIP3    H235505   0.729   3.270   0.232
11854TIP3   OH235506   6.494   1.574   5.030
11854TIP3    H135507   6.468   1.631   5.103
11854TIP3    H235508   6.431   1.502   5.032
11855TIP3   OH235509   1.087   1.859   5.833
11855TIP3    H135510   1.123   1.773   5.855
11855TIP3    H235511   1.120   1.877   5.745
11856TIP3   OH235512   7.461   2.407   3.601
11856TIP3    H135513   7.524   2.339   3.577
11856TIP3    H235514   7.514   2.480   3.631
11857TIP3   OH235515   4.357   1.076   0.298
11857TIP3    H135516   4.385   1.024   0.223
11857TIP3    H235517   4.402   1.036   0.373
11858TIP3   OH235518   5.925   6.988   2.585
11858TIP3    H135519   5.955   6.985   2.676
11858TIP3    H235520   5.832   7.009   2.591
11859TIP3   OH235521   3.358   1.539   0.804
11859TIP3    H135522   3.333   1.581   0.886
11859TIP3    H235523   3.298   1.578   0.739
11860TIP3   OH235524   5.581   2.938   3.068
11860TIP3    H135525   5.604   2.854   3.029
11860TIP3    H235526   5.601   3.002   3.000
11861TIP3   OH235527   7.007   0.095   2.532
11861TIP3    H135528   6.974   0.010   2.501
11861TIP3    H235529   6.952   0.115   2.608
11862TIP3   OH235530   7.730   3.835   1.622
11862TIP3    H135531   7.788   3.818   1.695
11862TIP3    H235532   7.701   3.926   1.635
11863TIP3   OH235533   4.333   4.086   1.609
11863TIP3    H135534   4.277   4.039   1.547
11863TIP3    H235535   4.283   4.163   1.634
11864TIP3   OH235536   1.241   2.728   0.711
11864TIP3    H135537   1.161   2.680   0.690
11864TIP3    H235538   1.212   2.818   0.726
11865TIP3   OH235539   0.139   5.750   6.171
11865TIP3    H135540   0.108   5.738   6.081
11865TIP3    H235541   0.234   5.756   6.164
11866TIP3   OH235542   1.526   0.139   1.016
11866TIP3    H135543   1.452   0.197   1.001
11866TIP3    H235544   1.603   0.195   1.008
11867TIP3   OH235545   6.987   0.420   1.229
11867TIP3    H135546   7.006   0.484   1.298
11867TIP3    H235547   7.070   0.407   1.185
11868TIP3   OH235548   7.308   5.403   5.570
11868TIP3    H135549   7.370   5.469   5.598
11868TIP3    H235550   7.229   5.421   5.621
11869TIP3   OH235551   6.077   2.187   0.349
11869TIP3    H135552   6.116   2.117   0.297
11869TIP3    H235553   6.151   2.227   0.395
11870TIP3   OH235554   6.664   3.848   2.317
11870TIP3    H135555   6.715   3.885   2.389
11870TIP3    H235556   6.683   3.905   2.242
11871TIP3   OH235557   1.460   5.896   1.714
11871TIP3    H135558   1.553   5.873   1.712
11871TIP3    H235559   1.417   5.819   1.751
11872TIP3   OH235560   6.626   2.758   0.399
11872TIP3    H135561   6.720   2.750   0.416
11872TIP3    H235562   6.603   2.845   0.431
11873TIP3   OH235563   7.849   1.158   5.444
11873TIP3    H135564   7.941   1.136   5.461
11873TIP3    H235565   7.804   1.139   5.526
11874TIP3   OH235566   7.746   6.446   3.962
11874TIP3    H135567   7.758   6.508   3.890
11874TIP3    H235568   7.768   6.497   4.041
11875TIP3   OH235569   4.866   4.088   6.241
11875TIP3    H135570   4.924   4.020   6.274
11875TIP3    H235571   4.794   4.092   6.304
11876TIP3   OH235572   5.967   2.288   4.111
11876TIP3    H135573   5.995   2.205   4.149
11876TIP3    H235574   6.030   2.306   4.041
11877TIP3   OH235575   6.274   7.288   6.479
11877TIP3    H135576   6.335   7.319   6.545
11877TIP3    H235577   6.319   7.215   6.436
11878TIP3   OH235578   4.961   0.385   6.128
11878TIP3    H135579   5.014   0.306   6.115
11878TIP3    H235580   4.915   0.398   6.045
11879TIP3   OH235581   2.859   2.581   3.584
11879TIP3    H135582   2.949   2.589   3.614
11879TIP3    H235583   2.809   2.640   3.641
11880TIP3   OH235584   3.640   1.926   6.163
11880TIP3    H135585   3.679   1.934   6.250
11880TIP3    H235586   3.704   1.965   6.104
11881TIP3   OH235587   4.526   3.007   4.765
11881TIP3    H135588   4.475   2.926   4.757
11881TIP3    H235589   4.566   3.001   4.852
11882TIP3   OH235590   0.185   0.885   3.086
11882TIP3    H135591   0.153   0.899   3.175
11882TIP3    H235592   0.132   0.812   3.053
11883TIP3   OH235593   1.038   6.732   4.108
11883TIP3    H135594   0.999   6.646   4.122
11883TIP3    H235595   1.055   6.735   4.014
11884TIP3   OH235596   0.147   1.847   4.166
11884TIP3    H135597   0.052   1.837   4.166
11884TIP3    H235598   0.179   1.770   4.118
11885TIP3   OH235599   7.181   1.963   1.634
11885TIP3    H135600   7.217   2.006   1.556
11885TIP3    H235601   7.225   2.006   1.707
11886TIP3   OH235602   5.547   0.324   2.977
11886TIP3    H135603   5.600   0.381   2.922
11886TIP3    H235604   5.610   0.278   3.032
11887TIP3   OH235605   2.079   0.996   0.618
11887TIP3    H135606   2.137   1.072   0.620
11887TIP3    H235607   2.082   0.961   0.707
11888TIP3   OH235608   1.702   7.699   0.422
11888TIP3    H135609   1.759   7.705   0.345
11888TIP3    H235610   1.691   7.790   0.450
11889TIP3   OH235611   6.011   5.989   1.855
11889TIP3    H135612   6.050   6.072   1.883
11889TIP3    H235613   5.985   6.004   1.764
11890TIP3   OH235614   3.385   0.847   3.978
11890TIP3    H135615   3.387   0.752   3.988
11890TIP3    H235616   3.409   0.880   4.064
11891TIP3   OH235617   2.990   5.390   1.447
11891TIP3    H135618   3.076   5.367   1.483
11891TIP3    H235619   2.989   5.350   1.360
11892TIP3   OH235620   2.371   1.267   6.460
11892TIP3    H135621   2.428   1.256   6.536
11892TIP3    H235622   2.316   1.342   6.481
11893TIP3   OH235623   2.788   1.442   3.626
11893TIP3    H135624   2.766   1.399   3.709
11893TIP3    H235625   2.877   1.413   3.607
11894TIP3   OH235626   7.595   0.954   1.337
11894TIP3    H135627   7.559   0.913   1.415
11894TIP3    H235628   7.539   1.029   1.321
11895TIP3   OH235629   8.201   6.325   3.142
11895TIP3    H135630   8.265   6.303   3.074
11895TIP3    H235631   8.254   6.359   3.215
11896TIP3   OH235632   7.485   1.981   5.670
11896TIP3    H135633   7.487   2.073   5.698
11896TIP3    H235634   7.577   1.959   5.654
11897TIP3   OH235635   7.407   2.245   1.676
11897TIP3    H135636   7.404   2.195   1.594
11897TIP3    H235637   7.407   2.178   1.745
11898TIP3   OH235638   2.688   5.874   2.906
11898TIP3    H135639   2.618   5.916   2.955
11898TIP3    H235640   2.651   5.791   2.877
11899TIP3   OH235641   5.472   1.796   3.148
11899TIP3    H135642   5.437   1.877   3.110
11899TIP3    H235643   5.399   1.735   3.146
11900TIP3   OH235644   4.584   6.519   3.646
11900TIP3    H135645   4.674   6.551   3.643
11900TIP3    H235646   4.581   6.452   3.578
11901TIP3   OH235647   2.395   7.547   1.614
11901TIP3    H135648   2.456   7.620   1.627
11901TIP3    H235649   2.435   7.494   1.545
11902TIP3   OH235650   7.885   2.846   2.672
11902TIP3    H135651   7.906   2.889   2.755
11902TIP3    H235652   7.929   2.899   2.606
11903TIP3   OH235653   1.926   6.314   0.684
11903TIP3    H135654   1.902   6.222   0.679
11903TIP3    H235655   2.020   6.314   0.704
11904TIP3   OH235656   1.935   7.436   3.019
11904TIP3    H135657   1.885   7.361   3.050
11904TIP3    H235658   1.896   7.511   3.064
11905TIP3   OH235659   6.561   3.410   1.173
11905TIP3    H135660   6.614   3.468   1.227
11905TIP3    H235661   6.601   3.324   1.183
11906TIP3   OH235662   2.146   6.219   0.048
11906TIP3    H135663   2.194   6.216   0.130
11906TIP3    H235664   2.054   6.220   0.074
11907TIP3   OH235665   3.469   3.921   4.952
11907TIP3    H135666   3.554   3.909   4.910
11907TIP3    H235667   3.413   3.956   4.883
11908TIP3   OH235668   3.392   1.684   4.451
11908TIP3    H135669   3.334   1.754   4.422
11908TIP3    H235670   3.463   1.683   4.386
11909TIP3   OH235671   5.114   7.083   4.411
11909TIP3    H135672   5.031   7.123   4.436
11909TIP3    H235673   5.153   7.146   4.350
11910TIP3   OH235674   4.560   6.211   1.970
11910TIP3    H135675   4.486   6.241   2.023
11910TIP3    H235676   4.623   6.177   2.034
11911TIP3   OH235677   1.950   0.484   1.063
11911TIP3    H135678   1.988   0.409   1.110
11911TIP3    H235679   1.926   0.546   1.133
11912TIP3   OH235680   1.048   1.388   2.693
11912TIP3    H135681   1.049   1.312   2.635
11912TIP3    H235682   1.038   1.463   2.635
11913TIP3   OH235683   0.095   3.430   2.890
11913TIP3    H135684   0.188   3.410   2.892
11913TIP3    H235685   0.071   3.426   2.797
11914TIP3   OH235686   6.109   7.067   3.812
11914TIP3    H135687   6.062   7.150   3.821
11914TIP3    H235688   6.040   7.001   3.811
11915TIP3   OH235689   6.462   4.201   1.475
11915TIP3    H135690   6.459   4.235   1.385
11915TIP3    H235691   6.517   4.122   1.468
11916TIP3   OH235692   2.083   2.699   1.363
11916TIP3    H135693   2.051   2.666   1.279
11916TIP3    H235694   2.132   2.778   1.341
11917TIP3   OH235695   6.214   7.380   3.860
11917TIP3    H135696   6.122   7.354   3.860
11917TIP3    H235697   6.221   7.442   3.788
11918TIP3   OH235698   7.544   2.892   0.934
11918TIP3    H135699   7.535   2.821   0.998
11918TIP3    H235700   7.501   2.967   0.974
11919TIP3   OH235701   7.056   4.322   4.245
11919TIP3    H135702   7.037   4.295   4.334
11919TIP3    H235703   6.985   4.284   4.193
11920TIP3   OH235704   3.804   2.154   3.990
11920TIP3    H135705   3.840   2.160   3.901
11920TIP3    H235706   3.824   2.065   4.018
11921TIP3   OH235707   7.482   2.950   1.503
11921TIP3    H135708   7.465   3.041   1.476
11921TIP3    H235709   7.562   2.956   1.554
11922TIP3   OH235710   4.929   7.507   1.078
11922TIP3    H135711   4.886   7.546   1.002
11922TIP3    H235712   5.005   7.563   1.094
11923TIP3   OH235713   6.507   1.816   2.630
11923TIP3    H135714   6.543   1.760   2.699
11923TIP3    H235715   6.578   1.875   2.606
11924TIP3   OH235716   4.630   2.708   2.501
11924TIP3    H135717   4.677   2.686   2.421
11924TIP3    H235718   4.538   2.701   2.478
11925TIP3   OH235719   3.503   1.277   5.328
11925TIP3    H135720   3.510   1.364   5.289
11925TIP3    H235721   3.450   1.291   5.407
11926TIP3   OH235722   3.757   2.381   6.181
11926TIP3    H135723   3.700   2.374   6.104
11926TIP3    H235724   3.700   2.358   6.255
11927TIP3   OH235725   2.379   6.386   1.800
11927TIP3    H135726   2.419   6.447   1.738
11927TIP3    H235727   2.436   6.388   1.877
11928TIP3   OH235728   3.951   3.455   2.612
11928TIP3    H135729   3.990   3.520   2.671
11928TIP3    H235730   3.867   3.492   2.588
11929TIP3   OH235731   6.266   3.402   2.934
11929TIP3    H135732   6.359   3.424   2.934
11929TIP3    H235733   6.261   3.317   2.977
11930TIP3   OH235734   0.866   0.841   1.806
11930TIP3    H135735   0.867   0.844   1.710
11930TIP3    H235736   0.797   0.903   1.830
11931TIP3   OH235737   2.324   4.507   0.951
11931TIP3    H135738   2.264   4.468   1.015
11931TIP3    H235739   2.409   4.509   0.996
11932TIP3   OH235740   1.130   6.677   1.406
11932TIP3    H135741   1.091   6.677   1.494
11932TIP3    H235742   1.108   6.763   1.371
11933TIP3   OH235743   0.011   0.167   6.036
11933TIP3    H135744  -0.022   0.167   6.126
11933TIP3    H235745   0.095   0.212   6.042
11934TIP3   OH235746   3.033   2.070   2.646
11934TIP3    H135747   3.093   2.104   2.712
11934TIP3    H235748   2.986   2.000   2.691
11935TIP3   OH235749   3.557   6.537   3.744
11935TIP3    H135750   3.530   6.519   3.654
11935TIP3    H235751   3.637   6.589   3.735
11936TIP3   OH235752   5.697   5.951   1.457
11936TIP3    H135753   5.637   5.924   1.526
11936TIP3    H235754   5.749   5.873   1.439
11937TIP3   OH235755   4.654   3.441   3.551
11937TIP3    H135756   4.640   3.447   3.456
11937TIP3    H235757   4.680   3.529   3.578
11938TIP3   OH235758   6.471   4.529   2.329
11938TIP3    H135759   6.553   4.578   2.331
11938TIP3    H235760   6.494   4.446   2.287
11939TIP3   OH235761   1.145   5.627   3.882
11939TIP3    H135762   1.114   5.548   3.926
11939TIP3    H235763   1.241   5.618   3.883
11940TIP3   OH235764   7.438   0.605   1.995
11940TIP3    H135765   7.443   0.536   2.061
11940TIP3    H235766   7.521   0.600   1.948
11941TIP3   OH235767   7.392   5.153   1.758
11941TIP3    H135768   7.380   5.211   1.834
11941TIP3    H235769   7.444   5.204   1.696
11942TIP3   OH235770   7.044   6.241   2.364
11942TIP3    H135771   6.984   6.316   2.356
11942TIP3    H235772   7.100   6.248   2.287
11943TIP3   OH235773   7.981   6.580   5.583
11943TIP3    H135774   7.887   6.588   5.602
11943TIP3    H235775   8.015   6.669   5.590
11944TIP3   OH235776   0.799   2.366   4.991
11944TIP3    H135777   0.892   2.362   5.011
11944TIP3    H235778   0.795   2.387   4.898
11945TIP3   OH235779   5.795   6.014   4.513
11945TIP3    H135780   5.792   5.977   4.425
11945TIP3    H235781   5.726   6.080   4.514
11946TIP3   OH235782   0.190   1.003   0.719
11946TIP3    H135783   0.139   0.948   0.778
11946TIP3    H235784   0.148   1.089   0.724
11947TIP3   OH235785   3.049   4.104   5.339
11947TIP3    H135786   3.101   4.147   5.407
11947TIP3    H235787   2.964   4.090   5.379
11948TIP3   OH235788   3.206   7.709   4.538
11948TIP3    H135789   3.127   7.748   4.575
11948TIP3    H235790   3.185   7.617   4.527
11949TIP3   OH235791   4.344   3.318   1.064
11949TIP3    H135792   4.256   3.330   1.030
11949TIP3    H235793   4.393   3.393   1.031
11950TIP3   OH235794   5.792   1.109   4.042
11950TIP3    H135795   5.872   1.085   3.995
11950TIP3    H235796   5.814   1.099   4.135
11951TIP3   OH235797   7.805   3.457   2.570
11951TIP3    H135798   7.889   3.456   2.524
11951TIP3    H235799   7.740   3.455   2.500
11952TIP3   OH235800   1.538   0.743   3.787
11952TIP3    H135801   1.459   0.707   3.826
11952TIP3    H235802   1.603   0.740   3.858
11953TIP3   OH235803   0.188   4.721   6.209
11953TIP3    H135804   0.182   4.733   6.114
11953TIP3    H235805   0.161   4.631   6.224
11954TIP3   OH235806   3.171   6.755   2.898
11954TIP3    H135807   3.230   6.701   2.845
11954TIP3    H235808   3.164   6.837   2.849
11955TIP3   OH235809   1.782   2.718   6.203
11955TIP3    H135810   1.708   2.693   6.258
11955TIP3    H235811   1.858   2.709   6.260
11956TIP3   OH235812   0.737   4.076   3.124
11956TIP3    H135813   0.659   4.117   3.161
11956TIP3    H235814   0.810   4.120   3.168
11957TIP3   OH235815   0.180   4.375   5.087
11957TIP3    H135816   0.254   4.339   5.038
11957TIP3    H235817   0.207   4.368   5.179
11958TIP3   OH235818   3.607   1.227   4.753
11958TIP3    H135819   3.576   1.316   4.734
11958TIP3    H235820   3.654   1.236   4.836
11959TIP3   OH235821   6.663   5.967   6.106
11959TIP3    H135822   6.577   5.935   6.132
11959TIP3    H235823   6.657   6.062   6.111
11960TIP3   OH235824   5.418   1.381   3.609
11960TIP3    H135825   5.463   1.405   3.528
11960TIP3    H235826   5.327   1.408   3.595
11961TIP3   OH235827   7.605   3.013   1.262
11961TIP3    H135828   7.512   3.034   1.266
11961TIP3    H235829   7.611   2.942   1.197
11962TIP3   OH235830   8.175   4.465   4.747
11962TIP3    H135831   8.112   4.408   4.702
11962TIP3    H235832   8.142   4.470   4.837
11963TIP3   OH235833   0.468   6.151   1.368
11963TIP3    H135834   0.542   6.111   1.321
11963TIP3    H235835   0.399   6.084   1.365
11964TIP3   OH235836   0.114   6.223   4.323
11964TIP3    H135837   0.037   6.215   4.267
11964TIP3    H235838   0.094   6.170   4.400
11965TIP3   OH235839   0.695   4.661   4.300
11965TIP3    H135840   0.606   4.684   4.326
11965TIP3    H235841   0.727   4.737   4.251
11966TIP3   OH235842   8.151   5.942   5.939
11966TIP3    H135843   8.113   5.858   5.965
11966TIP3    H235844   8.207   5.967   6.013
11967TIP3   OH235845   8.086   4.574   1.107
11967TIP3    H135846   8.055   4.484   1.109
11967TIP3    H235847   8.022   4.621   1.053
11968TIP3   OH235848   2.683   5.718   1.616
11968TIP3    H135849   2.617   5.773   1.660
11968TIP3    H235850   2.718   5.774   1.546
11969TIP3   OH235851   2.060   6.071   4.621
11969TIP3    H135852   2.013   6.011   4.678
11969TIP3    H235853   2.020   6.058   4.535
11970TIP3   OH235854   2.240   0.228   6.316
11970TIP3    H135855   2.177   0.160   6.342
11970TIP3    H235856   2.192   0.310   6.326
11971TIP3   OH235857   5.160   2.542   6.613
11971TIP3    H135858   5.144   2.621   6.666
11971TIP3    H235859   5.225   2.493   6.663
11972TIP3   OH235860   5.181   1.427   5.840
11972TIP3    H135861   5.139   1.369   5.777
11972TIP3    H235862   5.262   1.381   5.865
11973TIP3   OH235863   4.534   2.247   3.561
11973TIP3    H135864   4.567   2.158   3.548
11973TIP3    H235865   4.443   2.243   3.533
11974TIP3   OH235866   7.583   4.944   1.761
11974TIP3    H135867   7.657   4.983   1.714
11974TIP3    H235868   7.511   5.006   1.749
11975TIP3   OH235869   4.695   2.764   0.656
11975TIP3    H135870   4.690   2.789   0.748
11975TIP3    H235871   4.630   2.695   0.646
11976TIP3   OH235872   1.783   0.026   2.333
11976TIP3    H135873   1.858   0.030   2.273
11976TIP3    H235874   1.820   0.043   2.419
11977TIP3   OH235875   7.317   7.058   2.763
11977TIP3    H135876   7.256   7.046   2.836
11977TIP3    H235877   7.388   6.995   2.780
11978TIP3   OH235878   0.701   3.338   6.189
11978TIP3    H135879   0.732   3.347   6.279
11978TIP3    H235880   0.619   3.387   6.187
11979TIP3   OH235881   7.120   7.017   3.661
11979TIP3    H135882   7.193   6.984   3.715
11979TIP3    H235883   7.047   6.958   3.681
11980TIP3   OH235884   3.635   4.622   2.494
11980TIP3    H135885   3.655   4.662   2.409
11980TIP3    H235886   3.684   4.674   2.557
11981TIP3   OH235887   4.726   3.256   1.977
11981TIP3    H135888   4.793   3.248   2.046
11981TIP3    H235889   4.774   3.291   1.902
11982TIP3   OH235890   3.437   6.820   0.425
11982TIP3    H135891   3.446   6.903   0.472
11982TIP3    H235892   3.350   6.823   0.386
11983TIP3   OH235893   7.138   7.754   5.596
11983TIP3    H135894   7.078   7.737   5.524
11983TIP3    H235895   7.111   7.839   5.630
11984TIP3   OH235896   7.448   0.332   3.214
11984TIP3    H135897   7.435   0.281   3.134
11984TIP3    H235898   7.374   0.309   3.269
11985TIP3   OH235899   0.191   4.069   2.771
11985TIP3    H135900   0.217   4.147   2.721
11985TIP3    H235901   0.201   3.997   2.709
11986TIP3   OH235902   3.109   0.461   6.508
11986TIP3    H135903   3.030   0.497   6.468
11986TIP3    H235904   3.114   0.371   6.474
11987TIP3   OH235905   4.857   7.044   2.759
11987TIP3    H135906   4.876   7.092   2.678
11987TIP3    H235907   4.767   7.013   2.747
11988TIP3   OH235908   1.799   7.193   4.760
11988TIP3    H135909   1.767   7.112   4.721
11988TIP3    H235910   1.730   7.257   4.743
11989TIP3   OH235911   5.473   4.675   4.100
11989TIP3    H135912   5.488   4.658   4.007
11989TIP3    H235913   5.390   4.631   4.119
11990TIP3   OH235914   0.062   3.790   3.017
11990TIP3    H135915   0.057   3.753   3.105
11990TIP3    H235916   0.155   3.795   2.998
11991TIP3   OH235917   1.008   5.033   0.048
11991TIP3    H135918   0.928   5.086   0.044
11991TIP3    H235919   1.032   5.033   0.141
11992TIP3   OH235920   8.285   0.608   2.147
11992TIP3    H135921   8.268   0.543   2.214
11992TIP3    H235922   8.365   0.578   2.103
11993TIP3   OH235923   3.208   5.852   0.019
11993TIP3    H135924   3.131   5.795   0.009
11993TIP3    H235925   3.235   5.870  -0.071
11994TIP3   OH235926   6.653   2.984   6.679
11994TIP3    H135927   6.675   3.049   6.612
11994TIP3    H235928   6.737   2.960   6.718
11995TIP3   OH235929   5.738   5.908   4.271
11995TIP3    H135930   5.702   5.825   4.303
11995TIP3    H235931   5.671   5.943   4.213
11996TIP3   OH235932   2.569   1.509   4.948
11996TIP3    H135933   2.636   1.487   4.883
11996TIP3    H235934   2.568   1.605   4.950
11997TIP3   OH235935   7.069   5.183   0.756
11997TIP3    H135936   7.029   5.236   0.824
11997TIP3    H235937   7.075   5.096   0.794
11998TIP3   OH235938   0.337   2.141   5.761
11998TIP3    H135939   0.423   2.181   5.759
11998TIP3    H235940   0.309   2.137   5.670
11999TIP3   OH235941   1.678   7.430   4.170
11999TIP3    H135942   1.740   7.368   4.209
11999TIP3    H235943   1.658   7.392   4.084
12000TIP3   OH235944   0.012   7.450   4.720
12000TIP3    H135945   0.079   7.382   4.706
12000TIP3    H235946  -0.065   7.418   4.673
12001TIP3   OH235947   0.808   6.982   2.045
12001TIP3    H135948   0.723   7.018   2.073
12001TIP3    H235949   0.792   6.889   2.031
12002TIP3   OH235950   8.221   7.236   1.566
12002TIP3    H135951   8.156   7.169   1.587
12002TIP3    H235952   8.175   7.319   1.577
12003TIP3   OH235953   6.093   3.524   5.958
12003TIP3    H135954   6.032   3.581   5.911
12003TIP3    H235955   6.037   3.458   5.999
12004TIP3   OH235956   3.265   1.331   5.070
12004TIP3    H135957   3.178   1.341   5.109
12004TIP3    H235958   3.322   1.387   5.123
12005TIP3   OH235959   1.706   1.436   5.563
12005TIP3    H135960   1.789   1.400   5.531
12005TIP3    H235961   1.674   1.490   5.490
12006TIP3   OH235962   6.821   6.169   5.296
12006TIP3    H135963   6.878   6.177   5.373
12006TIP3    H235964   6.746   6.226   5.317
12007TIP3   OH235965   5.651   1.382   2.794
12007TIP3    H135966   5.714   1.312   2.775
12007TIP3    H235967   5.664   1.446   2.724
12008TIP3   OH235968   2.602   2.852   5.660
12008TIP3    H135969   2.688   2.886   5.683
12008TIP3    H235970   2.553   2.927   5.626
12009TIP3   OH235971   2.368   1.398   6.723
12009TIP3    H135972   2.419   1.476   6.704
12009TIP3    H235973   2.331   1.414   6.810
12010TIP3   OH235974   0.337   0.999   5.880
12010TIP3    H135975   0.409   0.959   5.832
12010TIP3    H235976   0.307   1.071   5.824
12011TIP3   OH235977   7.543   2.501   2.541
12011TIP3    H135978   7.577   2.442   2.474
12011TIP3    H235979   7.620   2.535   2.586
12012TIP3   OH235980   5.273   2.791   2.690
12012TIP3    H135981   5.348   2.734   2.671
12012TIP3    H235982   5.226   2.746   2.760
12013TIP3   OH235983   0.568   3.619   2.188
12013TIP3    H135984   0.638   3.566   2.225
12013TIP3    H235985   0.510   3.557   2.145
12014TIP3   OH235986   1.063   2.395   0.218
12014TIP3    H135987   1.022   2.346   0.289
12014TIP3    H235988   1.144   2.430   0.257
12015TIP3   OH235989   8.210   4.380   3.197
12015TIP3    H135990   8.250   4.372   3.110
12015TIP3    H235991   8.121   4.346   3.185
12016TIP3   OH235992   5.991   4.425   2.748
12016TIP3    H135993   6.072   4.392   2.708
12016TIP3    H235994   5.988   4.517   2.722
12017TIP3   OH235995   4.492   1.390   0.546
12017TIP3    H135996   4.510   1.449   0.619
12017TIP3    H235997   4.502   1.302   0.583
12018TIP3   OH235998   0.431   4.637   4.437
12018TIP3    H135999   0.422   4.542   4.446
12018TIP3    H236000   0.351   4.664   4.391
12019TIP3   OH236001   4.480   2.878   1.448
12019TIP3    H136002   4.490   2.954   1.391
12019TIP3    H236003   4.560   2.827   1.434
12020TIP3   OH236004   4.261   5.853   2.611
12020TIP3    H136005   4.303   5.784   2.662
12020TIP3    H236006   4.262   5.929   2.668
12021TIP3   OH236007   4.338   0.500   3.068
12021TIP3    H136008   4.358   0.439   2.997
12021TIP3    H236009   4.414   0.494   3.126
12022TIP3   OH236010   6.090   5.531   3.013
12022TIP3    H136011   6.037   5.464   2.969
12022TIP3    H236012   6.133   5.484   3.085
12023TIP3   OH236013   4.130   1.942   5.964
12023TIP3    H136014   4.104   1.995   6.040
12023TIP3    H236015   4.217   1.975   5.942
12024TIP3   OH236016   6.934   2.407   0.854
12024TIP3    H136017   6.957   2.374   0.767
12024TIP3    H236018   6.859   2.354   0.881
12025TIP3   OH236019   1.955   4.415   2.202
12025TIP3    H136020   2.023   4.474   2.234
12025TIP3    H236021   1.940   4.354   2.274
12026TIP3   OH236022   0.682   4.397   3.086
12026TIP3    H136023   0.763   4.373   3.132
12026TIP3    H236024   0.684   4.345   3.006
12027TIP3   OH236025   3.661   7.731   6.502
12027TIP3    H136026   3.682   7.718   6.594
12027TIP3    H236027   3.745   7.742   6.459
12028TIP3   OH236028   4.458   2.265   2.110
12028TIP3    H136029   4.484   2.281   2.020
12028TIP3    H236030   4.526   2.309   2.163
12029TIP3   OH236031   6.971   3.214   4.265
12029TIP3    H136032   6.983   3.225   4.359
12029TIP3    H236033   6.925   3.130   4.256
12030TIP3   OH236034   8.028   0.046   1.504
12030TIP3    H136035   8.024   0.141   1.518
12030TIP3    H236036   8.062   0.012   1.587
12031TIP3   OH236037   5.483   7.750   1.356
12031TIP3    H136038   5.394   7.783   1.365
12031TIP3    H236039   5.498   7.698   1.436
12032TIP3   OH236040   0.925   0.724   6.371
12032TIP3    H136041   0.872   0.705   6.448
12032TIP3    H236042   0.876   0.792   6.324
12033TIP3   OH236043   3.939   5.421   5.085
12033TIP3    H136044   3.875   5.450   5.019
12033TIP3    H236045   4.019   5.406   5.035
12034TIP3   OH236046   2.068   7.797   5.733
12034TIP3    H136047   2.076   7.769   5.824
12034TIP3    H236048   2.078   7.717   5.682
12035TIP3   OH236049   3.443   5.958   2.084
12035TIP3    H136050   3.440   5.999   2.171
12035TIP3    H236051   3.416   5.867   2.101
12036TIP3   OH236052   2.404   5.840   0.705
12036TIP3    H136053   2.331   5.800   0.752
12036TIP3    H236054   2.389   5.819   0.613
12037TIP3   OH236055   0.382   3.729   0.089
12037TIP3    H136056   0.425   3.784   0.155
12037TIP3    H236057   0.342   3.658   0.140
12038TIP3   OH236058   3.559   5.921   2.346
12038TIP3    H136059   3.635   5.951   2.297
12038TIP3    H236060   3.595   5.887   2.428
12039TIP3   OH236061   3.265   4.355   2.681
12039TIP3    H136062   3.221   4.300   2.745
12039TIP3    H236063   3.233   4.443   2.699
12040TIP3   OH236064   3.994   0.828   3.938
12040TIP3    H136065   3.915   0.849   3.988
12040TIP3    H236066   4.038   0.761   3.990
12041TIP3   OH236067   2.987   1.304   5.814
12041TIP3    H136068   3.008   1.339   5.727
12041TIP3    H236069   2.925   1.233   5.797
12042TIP3   OH236070   7.115   3.223   6.225
12042TIP3    H136071   7.194   3.171   6.209
12042TIP3    H236072   7.073   3.230   6.140
12043TIP3   OH236073   4.710   4.269   5.967
12043TIP3    H136074   4.654   4.302   6.036
12043TIP3    H236075   4.799   4.284   5.999
12044TIP3   OH236076   2.921   2.639   5.501
12044TIP3    H136077   2.861   2.600   5.565
12044TIP3    H236078   2.946   2.723   5.539
12045TIP3   OH236079   6.876   3.937   5.588
12045TIP3    H136080   6.852   3.987   5.510
12045TIP3    H236081   6.948   3.881   5.559
12046TIP3   OH236082   6.341   0.256   0.256
12046TIP3    H136083   6.343   0.328   0.320
12046TIP3    H236084   6.321   0.178   0.308
12047TIP3   OH236085   4.667   2.072   1.851
12047TIP3    H136086   4.643   1.994   1.902
12047TIP3    H236087   4.724   2.038   1.781
12048TIP3   OH236088   1.778   0.730   1.103
12048TIP3    H136089   1.756   0.810   1.150
12048TIP3    H236090   1.840   0.685   1.161
12049TIP3   OH236091   6.277   0.400   2.124
12049TIP3    H136092   6.186   0.427   2.110
12049TIP3    H236093   6.287   0.398   2.219
12050TIP3   OH236094   6.038   1.707   2.778
12050TIP3    H136095   6.105   1.709   2.847
12050TIP3    H236096   6.054   1.786   2.727
12051TIP3   OH236097   2.631   4.446   4.871
12051TIP3    H136098   2.617   4.541   4.866
12051TIP3    H236099   2.560   4.414   4.927
12052TIP3   OH236100   8.070   7.719   2.728
12052TIP3    H136101   8.137   7.679   2.783
12052TIP3    H236102   7.987   7.687   2.764
12053TIP3   OH236103   0.807   0.693   5.368
12053TIP3    H136104   0.806   0.789   5.369
12053TIP3    H236105   0.898   0.669   5.383
12054TIP3   OH236106   0.166   3.846   4.199
12054TIP3    H136107   0.182   3.758   4.167
12054TIP3    H236108   0.214   3.903   4.140
12055TIP3   OH236109   5.445   2.567   3.026
12055TIP3    H136110   5.413   2.484   3.063
12055TIP3    H236111   5.382   2.632   3.058
12056TIP3   OH236112   6.837   2.958   1.604
12056TIP3    H136113   6.783   2.907   1.545
12056TIP3    H236114   6.777   3.022   1.643
12057TIP3   OH236115   1.232   5.096   3.622
12057TIP3    H136116   1.201   5.140   3.542
12057TIP3    H236117   1.257   5.168   3.680
12058TIP3   OH236118   2.546   2.361   5.218
12058TIP3    H136119   2.550   2.454   5.242
12058TIP3    H236120   2.516   2.317   5.298
12059TIP3   OH236121   4.194   7.729   5.621
12059TIP3    H136122   4.142   7.668   5.673
12059TIP3    H236123   4.130   7.784   5.577
12060TIP3   OH236124   3.487   0.190   3.580
12060TIP3    H136125   3.488   0.262   3.643
12060TIP3    H236126   3.525   0.116   3.628
12061TIP3   OH236127   1.479   5.434   1.941
12061TIP3    H136128   1.429   5.375   1.884
12061TIP3    H236129   1.565   5.393   1.949
12062TIP3   OH236130   7.728   1.398   5.784
12062TIP3    H136131   7.703   1.350   5.863
12062TIP3    H236132   7.669   1.473   5.781
12063TIP3   OH236133   2.523   3.574   2.890
12063TIP3    H136134   2.517   3.485   2.854
12063TIP3    H236135   2.461   3.624   2.838
12064TIP3   OH236136   0.975   4.962   6.522
12064TIP3    H136137   0.960   4.918   6.439
12064TIP3    H236138   0.888   4.991   6.550
12065TIP3   OH236139   0.647   4.626   2.677
12065TIP3    H136140   0.610   4.708   2.644
12065TIP3    H236141   0.582   4.594   2.739
12066TIP3   OH236142   2.679   0.878   2.594
12066TIP3    H136143   2.739   0.944   2.560
12066TIP3    H236144   2.736   0.809   2.627
12067TIP3   OH236145   2.269   5.089   6.493
12067TIP3    H136146   2.304   5.056   6.410
12067TIP3    H236147   2.347   5.117   6.541
12068TIP3   OH236148   3.578   6.980   3.753
12068TIP3    H136149   3.525   6.908   3.719
12068TIP3    H236150   3.514   7.048   3.774
12069TIP3   OH236151   1.784   7.367   1.294
12069TIP3    H136152   1.870   7.333   1.267
12069TIP3    H236153   1.798   7.400   1.382
12070TIP3   OH236154   3.134   5.890   1.933
12070TIP3    H136155   3.197   5.828   1.895
12070TIP3    H236156   3.053   5.874   1.884
12071TIP3   OH236157   1.533   3.903   5.037
12071TIP3    H136158   1.515   3.966   4.967
12071TIP3    H236159   1.612   3.937   5.079
12072TIP3   OH236160   4.309   4.195   3.631
12072TIP3    H136161   4.343   4.260   3.569
12072TIP3    H236162   4.309   4.113   3.581
12073TIP3   OH236163   1.224   7.788   0.412
12073TIP3    H136164   1.281   7.755   0.343
12073TIP3    H236165   1.277   7.782   0.492
12074TIP3   OH236166   6.986   1.641   3.931
12074TIP3    H136167   7.065   1.605   3.891
12074TIP3    H236168   6.995   1.735   3.921
12075TIP3   OH236169   0.843   6.564   3.551
12075TIP3    H136170   0.931   6.601   3.540
12075TIP3    H236171   0.859   6.481   3.596
12076TIP3   OH236172   3.926   2.915   1.266
12076TIP3    H136173   3.839   2.899   1.303
12076TIP3    H236174   3.930   3.010   1.255
12077TIP3   OH236175   3.250   7.354   6.454
12077TIP3    H136176   3.327   7.393   6.495
12077TIP3    H236177   3.257   7.261   6.473
12078TIP3   OH236178   4.807   4.427   6.751
12078TIP3    H136179   4.891   4.438   6.707
12078TIP3    H236180   4.824   4.449   6.842
12079TIP3   OH236181   7.539   5.013   1.485
12079TIP3    H136182   7.514   5.100   1.516
12079TIP3    H236183   7.460   4.960   1.496
12080TIP3   OH236184   2.917   7.603   6.665
12080TIP3    H136185   2.953   7.542   6.601
12080TIP3    H236186   2.984   7.608   6.734
12081TIP3   OH236187   6.005   2.704   5.202
12081TIP3    H136188   6.034   2.762   5.273
12081TIP3    H236189   5.999   2.618   5.242
12082TIP3   OH236190   5.532   0.742   2.480
12082TIP3    H136191   5.583   0.662   2.499
12082TIP3    H236192   5.549   0.759   2.387
12083TIP3   OH236193   8.285   3.033   6.462
12083TIP3    H136194   8.338   2.967   6.506
12083TIP3    H236195   8.196   3.021   6.496
12084TIP3   OH236196   5.680   7.555   2.063
12084TIP3    H136197   5.766   7.550   2.023
12084TIP3    H236198   5.657   7.465   2.082
12085TIP3   OH236199   5.871   6.810   0.528
12085TIP3    H136200   5.890   6.904   0.518
12085TIP3    H236201   5.947   6.775   0.573
12086TIP3   OH236202   3.588   4.082   4.007
12086TIP3    H136203   3.592   4.156   3.945
12086TIP3    H236204   3.640   4.111   4.082
12087TIP3   OH236205   2.950   2.200   2.212
12087TIP3    H136206   2.904   2.284   2.208
12087TIP3    H236207   3.036   2.218   2.174
12088TIP3   OH236208   2.611   0.422   2.134
12088TIP3    H136209   2.664   0.424   2.214
12088TIP3    H236210   2.521   0.410   2.164
12089TIP3   OH236211   0.373   2.979   0.719
12089TIP3    H136212   0.297   2.980   0.777
12089TIP3    H236213   0.416   2.895   0.738
12090TIP3   OH236214   0.444   5.607   4.442
12090TIP3    H136215   0.392   5.546   4.495
12090TIP3    H236216   0.400   5.610   4.358
12091TIP3   OH236217   0.992   7.252   0.272
12091TIP3    H136218   1.069   7.291   0.313
12091TIP3    H236219   0.964   7.184   0.332
12092TIP3   OH236220   3.247   7.633   0.936
12092TIP3    H136221   3.198   7.617   1.016
12092TIP3    H236222   3.329   7.672   0.965
12093TIP3   OH236223   0.999   1.198   4.091
12093TIP3    H136224   1.020   1.202   4.184
12093TIP3    H236225   1.061   1.134   4.055
12094TIP3   OH236226   5.611   0.989   6.124
12094TIP3    H136227   5.528   0.953   6.155
12094TIP3    H236228   5.600   1.084   6.133
12095TIP3   OH236229   0.848   5.241   1.040
12095TIP3    H136230   0.756   5.218   1.049
12095TIP3    H236231   0.853   5.286   0.956
12096TIP3   OH236232   1.455   7.633   0.291
12096TIP3    H136233   1.483   7.610   0.203
12096TIP3    H236234   1.537   7.637   0.341
12097TIP3   OH236235   5.416   3.092   3.850
12097TIP3    H136236   5.443   3.167   3.796
12097TIP3    H236237   5.482   3.025   3.832
12098TIP3   OH236238   0.124   2.448   6.562
12098TIP3    H136239   0.162   2.515   6.619
12098TIP3    H236240   0.200   2.399   6.529
12099TIP3   OH236241   1.389   0.983   3.493
12099TIP3    H136242   1.450   1.002   3.563
12099TIP3    H236243   1.430   0.911   3.445
12100TIP3   OH236244   7.576   5.305   5.725
12100TIP3    H136245   7.523   5.384   5.732
12100TIP3    H236246   7.520   5.242   5.680
12101TIP3   OH236247   7.316   4.619   5.693
12101TIP3    H136248   7.317   4.704   5.650
12101TIP3    H236249   7.253   4.629   5.764
12102TIP3   OH236250   3.469   1.879   6.691
12102TIP3    H136251   3.456   1.940   6.618
12102TIP3    H236252   3.543   1.916   6.739
12103TIP3   OH236253   2.026   1.614   3.430
12103TIP3    H136254   2.072   1.540   3.391
12103TIP3    H236255   2.086   1.688   3.417
12104TIP3   OH236256   5.747   3.290   3.826
12104TIP3    H136257   5.708   3.377   3.841
12104TIP3    H236258   5.691   3.250   3.760
12105TIP3   OH236259   1.493   3.369   2.707
12105TIP3    H136260   1.406   3.349   2.741
12105TIP3    H236261   1.546   3.386   2.785
12106TIP3   OH236262   0.610   6.263   3.850
12106TIP3    H136263   0.524   6.259   3.808
12106TIP3    H236264   0.621   6.177   3.889
12107TIP3   OH236265   2.386   5.949   3.459
12107TIP3    H136266   2.385   5.937   3.554
12107TIP3    H236267   2.470   5.911   3.431
12108TIP3   OH236268   6.360   5.409   2.765
12108TIP3    H136269   6.405   5.417   2.849
12108TIP3    H236270   6.280   5.360   2.785
12109TIP3   OH236271   4.240   5.204   2.407
12109TIP3    H136272   4.148   5.183   2.394
12109TIP3    H236273   4.283   5.120   2.420
12110TIP3   OH236274   7.967   3.107   2.050
12110TIP3    H136275   8.043   3.109   2.109
12110TIP3    H236276   7.914   3.181   2.077
12111TIP3   OH236277   0.308   0.923   0.208
12111TIP3    H136278   0.358   0.971   0.142
12111TIP3    H236279   0.280   0.990   0.270
12112TIP3   OH236280   7.912   1.396   1.171
12112TIP3    H136281   7.818   1.385   1.184
12112TIP3    H236282   7.947   1.409   1.260
12113TIP3   OH236283   0.408   6.439   6.069
12113TIP3    H136284   0.323   6.478   6.049
12113TIP3    H236285   0.420   6.371   6.002
12114TIP3   OH236286   2.888   5.034   0.993
12114TIP3    H136287   2.829   5.072   0.928
12114TIP3    H236288   2.963   5.094   0.994
12115TIP3   OH236289   5.851   7.339   1.376
12115TIP3    H136290   5.939   7.341   1.338
12115TIP3    H236291   5.860   7.381   1.462
12116TIP3   OH236292   2.357   1.791   4.391
12116TIP3    H136293   2.385   1.830   4.473
12116TIP3    H236294   2.285   1.733   4.415
12117TIP3   OH236295   2.159   5.620   1.420
12117TIP3    H136296   2.129   5.710   1.430
12117TIP3    H236297   2.237   5.627   1.365
12118TIP3   OH236298   8.215   3.712   2.797
12118TIP3    H136299   8.260   3.746   2.874
12118TIP3    H236300   8.268   3.639   2.768
12119TIP3   OH236301   6.444   2.756   4.586
12119TIP3    H136302   6.389   2.736   4.661
12119TIP3    H236303   6.457   2.671   4.543
12120TIP3   OH236304   8.122   7.070   5.630
12120TIP3    H136305   8.057   7.126   5.672
12120TIP3    H236306   8.198   7.075   5.687
12121TIP3   OH236307   6.421   0.072   2.552
12121TIP3    H136308   6.337   0.055   2.510
12121TIP3    H236309   6.469  -0.011   2.546
12122TIP3   OH236310   6.387   1.589   6.439
12122TIP3    H136311   6.296   1.605   6.462
12122TIP3    H236312   6.393   1.494   6.428
12123TIP3   OH236313   2.351   1.732   6.321
12123TIP3    H136314   2.349   1.807   6.380
12123TIP3    H236315   2.444   1.719   6.302
12124TIP3   OH236316   0.890   5.832   4.499
12124TIP3    H136317   0.799   5.812   4.520
12124TIP3    H236318   0.934   5.747   4.497
12125TIP3   OH236319   1.796   7.279   0.990
12125TIP3    H136320   1.794   7.238   0.904
12125TIP3    H236321   1.809   7.372   0.972
12126TIP3   OH236322   5.489   6.283   1.924
12126TIP3    H136323   5.574   6.248   1.950
12126TIP3    H236324   5.425   6.217   1.953
12127TIP3   OH236325   2.733   2.434   2.357
12127TIP3    H136326   2.683   2.373   2.303
12127TIP3    H236327   2.810   2.456   2.305
12128TIP3   OH236328   2.767   3.243   6.671
12128TIP3    H136329   2.803   3.320   6.716
12128TIP3    H236330   2.673   3.262   6.663
12129TIP3   OH236331   3.896   6.599   5.286
12129TIP3    H136332   3.898   6.695   5.293
12129TIP3    H236333   3.984   6.576   5.258
12130TIP3   OH236334   7.731   7.374   0.515
12130TIP3    H136335   7.718   7.317   0.440
12130TIP3    H236336   7.826   7.381   0.524
12131TIP3   OH236337   2.783   1.432   5.401
12131TIP3    H136338   2.770   1.469   5.488
12131TIP3    H236339   2.845   1.492   5.358
12132TIP3   OH236340   0.944   7.768   4.309
12132TIP3    H136341   0.916   7.736   4.394
12132TIP3    H236342   1.006   7.702   4.277
12133TIP3   OH236343   6.689   4.051   1.741
12133TIP3    H136344   6.661   4.137   1.710
12133TIP3    H236345   6.637   3.989   1.689
12134TIP3   OH236346   7.333   1.466   2.214
12134TIP3    H136347   7.299   1.551   2.185
12134TIP3    H236348   7.418   1.459   2.171
12135TIP3   OH236349   4.378   4.362   5.666
12135TIP3    H136350   4.428   4.410   5.731
12135TIP3    H236351   4.444   4.324   5.608
12136TIP3   OH236352   1.733   2.406   2.564
12136TIP3    H136353   1.660   2.357   2.601
12136TIP3    H236354   1.698   2.446   2.484
12137TIP3   OH236355   1.138   0.251   3.562
12137TIP3    H136356   1.187   0.191   3.618
12137TIP3    H236357   1.065   0.198   3.530
12138TIP3   OH236358   7.065   1.716   2.980
12138TIP3    H136359   7.091   1.785   3.041
12138TIP3    H236360   7.045   1.762   2.898
12139TIP3   OH236361   7.179   5.777   4.610
12139TIP3    H136362   7.182   5.683   4.631
12139TIP3    H236363   7.228   5.818   4.681
12140TIP3   OH236364   3.664   7.752   0.646
12140TIP3    H136365   3.731   7.722   0.585
12140TIP3    H236366   3.673   7.694   0.721
12141TIP3   OH236367   4.249   0.907   1.322
12141TIP3    H136368   4.214   0.968   1.386
12141TIP3    H236369   4.192   0.916   1.246
12142TIP3   OH236370   3.253   2.779   5.401
12142TIP3    H136371   3.264   2.775   5.496
12142TIP3    H236372   3.296   2.861   5.376
12143TIP3   OH236373   3.514   0.194   4.128
12143TIP3    H136374   3.506   0.101   4.108
12143TIP3    H236375   3.520   0.198   4.223
12144TIP3   OH236376   6.289   3.136   2.299
12144TIP3    H136377   6.240   3.219   2.299
12144TIP3    H236378   6.247   3.084   2.230
12145TIP3   OH236379   2.774   4.219   1.642
12145TIP3    H136380   2.870   4.210   1.641
12145TIP3    H236381   2.743   4.131   1.665
12146TIP3   OH236382   6.676   6.852   5.372
12146TIP3    H136383   6.674   6.868   5.467
12146TIP3    H236384   6.767   6.867   5.347
12147TIP3   OH236385   3.775   7.127   4.205
12147TIP3    H136386   3.785   7.194   4.273
12147TIP3    H236387   3.685   7.097   4.213
12148TIP3   OH236388   4.908   4.644   5.035
12148TIP3    H136389   4.891   4.715   5.097
12148TIP3    H236390   4.822   4.622   4.999
12149TIP3   OH236391   5.472   7.737   0.464
12149TIP3    H136392   5.448   7.647   0.441
12149TIP3    H236393   5.393   7.787   0.448
12150TIP3   OH236394   6.580   0.276   1.292
12150TIP3    H136395   6.662   0.272   1.243
12150TIP3    H236396   6.512   0.266   1.225
12151TIP3   OH236397   0.569   3.272   1.150
12151TIP3    H136398   0.601   3.340   1.090
12151TIP3    H236399   0.600   3.300   1.236
12152TIP3   OH236400   5.623   3.778   2.730
12152TIP3    H136401   5.608   3.868   2.759
12152TIP3    H236402   5.660   3.734   2.806
12153TIP3   OH236403   7.681   4.093   1.516
12153TIP3    H136404   7.676   4.189   1.509
12153TIP3    H236405   7.707   4.065   1.428
12154TIP3   OH236406   3.944   2.834   5.212
12154TIP3    H136407   3.964   2.801   5.299
12154TIP3    H236408   4.026   2.826   5.164
12155TIP3   OH236409   4.814   2.448   1.932
12155TIP3    H136410   4.736   2.414   1.887
12155TIP3    H236411   4.815   2.541   1.912
12156TIP3   OH236412   2.757   4.517   6.100
12156TIP3    H136413   2.843   4.483   6.125
12156TIP3    H236414   2.729   4.571   6.174
12157TIP3   OH236415   1.262   7.080   1.894
12157TIP3    H136416   1.246   6.986   1.905
12157TIP3    H236417   1.274   7.112   1.983
12158TIP3   OH236418   6.178   3.955   1.857
12158TIP3    H136419   6.231   3.997   1.925
12158TIP3    H236420   6.098   3.928   1.901
12159TIP3   OH236421   3.697   5.353   4.874
12159TIP3    H136422   3.622   5.300   4.901
12159TIP3    H236423   3.666   5.444   4.884
12160TIP3   OH236424   4.117   7.762   5.252
12160TIP3    H136425   4.207   7.736   5.271
12160TIP3    H236426   4.095   7.824   5.322
12161TIP3   OH236427   4.940   6.692   2.023
12161TIP3    H136428   4.985   6.776   2.037
12161TIP3    H236429   4.986   6.652   1.950
12162TIP3   OH236430   5.325   0.116   4.638
12162TIP3    H136431   5.360   0.086   4.721
12162TIP3    H236432   5.401   0.117   4.579
12163TIP3   OH236433   7.532   2.219   3.838
12163TIP3    H136434   7.533   2.215   3.934
12163TIP3    H236435   7.548   2.311   3.818
12164TIP3   OH236436   2.044   6.786   5.923
12164TIP3    H136437   2.023   6.710   5.869
12164TIP3    H236438   1.990   6.775   6.002
12165TIP3   OH236439   7.428   0.188   2.057
12165TIP3    H136440   7.334   0.173   2.043
12165TIP3    H236441   7.448   0.142   2.139
12166TIP3   OH236442   7.804   2.617   1.273
12166TIP3    H136443   7.765   2.587   1.354
12166TIP3    H236444   7.889   2.573   1.270
12167TIP3   OH236445   2.816   1.730   5.148
12167TIP3    H136446   2.843   1.812   5.189
12167TIP3    H236447   2.897   1.691   5.115
12168TIP3   OH236448   6.868   2.251   6.065
12168TIP3    H136449   6.944   2.247   6.007
12168TIP3    H236450   6.794   2.230   6.009
12169TIP3   OH236451   4.326   6.329   3.536
12169TIP3    H136452   4.397   6.273   3.504
12169TIP3    H236453   4.348   6.417   3.505
12170TIP3   OH236454   1.379   6.545   3.905
12170TIP3    H136455   1.449   6.483   3.885
12170TIP3    H236456   1.409   6.589   3.985
12171TIP3   OH236457   1.660   2.727   3.587
12171TIP3    H136458   1.721   2.738   3.514
12171TIP3    H236459   1.634   2.816   3.610
12172TIP3   OH236460   5.600   3.282   5.647
12172TIP3    H136461   5.566   3.345   5.583
12172TIP3    H236462   5.602   3.199   5.600
12173TIP3   OH236463   2.931   2.251   2.954
12173TIP3    H136464   2.856   2.290   3.000
12173TIP3    H236465   2.919   2.275   2.863
12174TIP3   OH236466   6.326   1.133   3.087
12174TIP3    H136467   6.246   1.128   3.036
12174TIP3    H236468   6.306   1.087   3.169
12175TIP3   OH236469   1.256   1.000   4.436
12175TIP3    H136470   1.222   0.939   4.502
12175TIP3    H236471   1.350   1.001   4.450
12176TIP3   OH236472   2.665   6.611   4.245
12176TIP3    H136473   2.571   6.616   4.260
12176TIP3    H236474   2.678   6.529   4.198
12177TIP3   OH236475   1.323   3.716   5.120
12177TIP3    H136476   1.247   3.758   5.080
12177TIP3    H236477   1.398   3.754   5.074
12178TIP3   OH236478   1.340   5.113   3.189
12178TIP3    H136479   1.322   5.136   3.281
12178TIP3    H236480   1.255   5.085   3.155
12179TIP3   OH236481   7.649   5.707   6.146
12179TIP3    H136482   7.727   5.739   6.101
12179TIP3    H236483   7.631   5.773   6.212
12180TIP3   OH236484   4.154   4.570   6.553
12180TIP3    H136485   4.208   4.495   6.526
12180TIP3    H236486   4.166   4.634   6.483
12181TIP3   OH236487   0.423   2.036   3.375
12181TIP3    H136488   0.502   2.004   3.333
12181TIP3    H236489   0.416   1.985   3.456
12182TIP3   OH236490   1.769   6.063   5.797
12182TIP3    H136491   1.740   6.085   5.708
12182TIP3    H236492   1.714   5.989   5.823
12183TIP3   OH236493   0.242   5.591   2.221
12183TIP3    H136494   0.150   5.565   2.220
12183TIP3    H236495   0.278   5.547   2.297
12184TIP3   OH236496   1.082   5.293   4.822
12184TIP3    H136497   1.035   5.276   4.741
12184TIP3    H236498   1.164   5.335   4.795
12185TIP3   OH236499   4.459   4.716   4.998
12185TIP3    H136500   4.449   4.725   5.092
12185TIP3    H236501   4.453   4.806   4.964
12186TIP3   OH236502   4.199   3.939   3.874
12186TIP3    H136503   4.214   4.028   3.907
12186TIP3    H236504   4.126   3.949   3.812
12187TIP3   OH236505   0.150   6.286   6.765
12187TIP3    H136506   0.212   6.347   6.805
12187TIP3    H236507   0.179   6.199   6.794
12188TIP3   OH236508   2.640   7.028   5.726
12188TIP3    H136509   2.666   7.120   5.721
12188TIP3    H236510   2.554   7.030   5.768
12189TIP3   OH236511   2.687   6.409   1.912
12189TIP3    H136512   2.754   6.407   1.981
12189TIP3    H236513   2.734   6.390   1.831
12190TIP3   OH236514   0.293   5.833   6.510
12190TIP3    H136515   0.330   5.848   6.597
12190TIP3    H236516   0.337   5.896   6.454
12191TIP3   OH236517   4.380   2.577   1.625
12191TIP3    H136518   4.373   2.503   1.566
12191TIP3    H236519   4.469   2.572   1.661
12192TIP3   OH236520   3.042   7.106   3.219
12192TIP3    H136521   3.051   7.140   3.130
12192TIP3    H236522   2.970   7.155   3.258
12193TIP3   OH236523   1.499   0.361   6.265
12193TIP3    H136524   1.554   0.359   6.186
12193TIP3    H236525   1.419   0.404   6.237
12194TIP3   OH236526   4.110   4.463   4.374
12194TIP3    H136527   4.152   4.474   4.460
12194TIP3    H236528   4.167   4.403   4.327
12195TIP3   OH236529   6.919   0.099   2.272
12195TIP3    H136530   6.829   0.077   2.299
12195TIP3    H236531   6.970   0.092   2.352
12196TIP3   OH236532   2.294   2.634   3.217
12196TIP3    H136533   2.218   2.664   3.167
12196TIP3    H236534   2.258   2.608   3.302
12197TIP3   OH236535   1.354   7.533   2.815
12197TIP3    H136536   1.307   7.602   2.861
12197TIP3    H236537   1.443   7.567   2.806
12198TIP3   OH236538   3.133   3.033   3.270
12198TIP3    H136539   3.194   3.094   3.312
12198TIP3    H236540   3.078   3.088   3.215
12199TIP3   OH236541   6.140   4.920   0.198
12199TIP3    H136542   6.110   4.852   0.138
12199TIP3    H236543   6.060   4.965   0.225
12200TIP3   OH236544   6.247   4.919   5.741
12200TIP3    H136545   6.250   4.830   5.777
12200TIP3    H236546   6.237   4.906   5.647
12201TIP3   OH236547   2.257   1.462   1.377
12201TIP3    H136548   2.285   1.423   1.459
12201TIP3    H236549   2.289   1.552   1.381
12202TIP3   OH236550   4.059   1.131   5.504
12202TIP3    H136551   3.968   1.159   5.498
12202TIP3    H236552   4.087   1.122   5.413
12203TIP3   OH236553   5.305   2.763   3.873
12203TIP3    H136554   5.259   2.765   3.789
12203TIP3    H236555   5.305   2.671   3.898
12204TIP3   OH236556   6.775   3.774   1.485
12204TIP3    H136557   6.815   3.809   1.564
12204TIP3    H236558   6.848   3.764   1.424
12205TIP3   OH236559   3.899   5.193   5.781
12205TIP3    H136560   3.810   5.186   5.817
12205TIP3    H236561   3.908   5.286   5.757
12206TIP3   OH236562   2.167   1.050   4.237
12206TIP3    H136563   2.189   1.114   4.305
12206TIP3    H236564   2.117   0.983   4.283
12207TIP3   OH236565   3.304   6.834   6.562
12207TIP3    H136566   3.395   6.807   6.573
12207TIP3    H236567   3.273   6.851   6.651
12208TIP3   OH236568   7.247   5.495   3.020
12208TIP3    H136569   7.271   5.582   2.988
12208TIP3    H236570   7.230   5.508   3.113
12209TIP3   OH236571   7.098   4.023   4.244
12209TIP3    H136572   7.174   3.969   4.223
12209TIP3    H236573   7.132   4.112   4.246
12210TIP3   OH236574   0.530   1.759   5.176
12210TIP3    H136575   0.606   1.792   5.129
12210TIP3    H236576   0.458   1.766   5.113
12211TIP3   OH236577   4.054   0.692   1.442
12211TIP3    H136578   4.127   0.661   1.389
12211TIP3    H236579   3.988   0.720   1.378
12212TIP3   OH236580   3.165   1.597   4.215
12212TIP3    H136581   3.097   1.562   4.273
12212TIP3    H236582   3.242   1.542   4.232
12213TIP3   OH236583   1.378   0.370   0.270
12213TIP3    H136584   1.437   0.366   0.345
12213TIP3    H236585   1.434   0.395   0.197
12214TIP3   OH236586   0.445   3.221   0.638
12214TIP3    H136587   0.540   3.211   0.624
12214TIP3    H236588   0.416   3.133   0.662
12215TIP3   OH236589   7.331   4.513   6.199
12215TIP3    H136590   7.267   4.489   6.267
12215TIP3    H236591   7.343   4.433   6.148
12216TIP3   OH236592   6.224   6.445   1.002
12216TIP3    H136593   6.243   6.353   0.982
12216TIP3    H236594   6.310   6.486   1.006
12217TIP3   OH236595   3.894   2.393   0.182
12217TIP3    H136596   3.899   2.329   0.252
12217TIP3    H236597   3.923   2.475   0.222
12218TIP3   OH236598   7.716   5.665   0.095
12218TIP3    H136599   7.728   5.644   0.188
12218TIP3    H236600   7.805   5.678   0.062
12219TIP3   OH236601   1.520   3.271   0.325
12219TIP3    H136602   1.534   3.257   0.231
12219TIP3    H236603   1.512   3.366   0.333
12220TIP3   OH236604   5.867   3.395   1.199
12220TIP3    H136605   5.904   3.451   1.131
12220TIP3    H236606   5.939   3.338   1.226
12221TIP3   OH236607   3.989   4.208   0.999
12221TIP3    H136608   3.952   4.201   0.912
12221TIP3    H236609   3.914   4.207   1.058
12222TIP3   OH236610   2.493   3.613   2.077
12222TIP3    H136611   2.528   3.595   2.164
12222TIP3    H236612   2.566   3.598   2.018
12223TIP3   OH236613   0.115   1.325   5.835
12223TIP3    H136614   0.184   1.278   5.788
12223TIP3    H236615   0.035   1.278   5.813
12224TIP3   OH236616   3.798   2.876   2.244
12224TIP3    H136617   3.880   2.905   2.284
12224TIP3    H236618   3.791   2.927   2.164
12225TIP3   OH236619   0.804   7.770   3.702
12225TIP3    H136620   0.850   7.778   3.618
12225TIP3    H236621   0.722   7.726   3.680
12226TIP3   OH236622   1.914   0.510   5.609
12226TIP3    H136623   1.902   0.431   5.662
12226TIP3    H236624   2.004   0.537   5.627
12227TIP3   OH236625   2.213   3.829   4.688
12227TIP3    H136626   2.275   3.856   4.620
12227TIP3    H236627   2.253   3.751   4.727
12228TIP3   OH236628   6.189   1.083   6.151
12228TIP3    H136629   6.143   1.115   6.228
12228TIP3    H236630   6.130   1.019   6.113
12229TIP3   OH236631   5.773   4.424   0.956
12229TIP3    H136632   5.682   4.395   0.954
12229TIP3    H236633   5.806   4.406   0.868
12230TIP3   OH236634   1.044   2.996   0.161
12230TIP3    H136635   0.998   2.926   0.207
12230TIP3    H236636   1.105   3.031   0.226
12231TIP3   OH236637   7.946   1.535   4.941
12231TIP3    H136638   7.986   1.561   5.023
12231TIP3    H236639   8.019   1.532   4.878
12232TIP3   OH236640   7.455   3.476   6.570
12232TIP3    H136641   7.427   3.386   6.553
12232TIP3    H236642   7.442   3.522   6.487
12233TIP3   OH236643   7.349   6.344   5.979
12233TIP3    H136644   7.279   6.364   6.041
12233TIP3    H236645   7.320   6.264   5.935
12234TIP3   OH236646   3.547   5.176   2.909
12234TIP3    H136647   3.561   5.182   2.814
12234TIP3    H236648   3.504   5.258   2.932
12235TIP3   OH236649   3.346   5.376   1.341
12235TIP3    H136650   3.414   5.421   1.291
12235TIP3    H236651   3.340   5.424   1.423
12236TIP3   OH236652   1.371   4.642   1.416
12236TIP3    H136653   1.296   4.701   1.415
12236TIP3    H236654   1.444   4.696   1.385
12237TIP3   OH236655   1.630   1.771   1.929
12237TIP3    H136656   1.609   1.740   2.017
12237TIP3    H236657   1.726   1.772   1.926
12238TIP3   OH236658   2.918   2.973   3.447
12238TIP3    H136659   2.944   2.918   3.521
12238TIP3    H236660   2.971   2.941   3.373
12239TIP3   OH236661   4.141   6.548   6.620
12239TIP3    H136662   4.156   6.624   6.676
12239TIP3    H236663   4.061   6.569   6.572
12240TIP3   OH236664   6.038   0.189   2.982
12240TIP3    H136665   6.094   0.142   2.920
12240TIP3    H236666   6.098   0.227   3.046
12241TIP3   OH236667   0.654   2.179   2.862
12241TIP3    H136668   0.707   2.100   2.870
12241TIP3    H236669   0.566   2.151   2.887
12242TIP3   OH236670   3.241   0.777   1.683
12242TIP3    H136671   3.234   0.711   1.752
12242TIP3    H236672   3.335   0.796   1.678
12243TIP3   OH236673   3.068   7.546   0.033
12243TIP3    H136674   3.055   7.624   0.086
12243TIP3    H236675   3.082   7.578  -0.056
12244TIP3   OH236676   2.370   4.398   4.980
12244TIP3    H136677   2.326   4.370   4.900
12244TIP3    H236678   2.337   4.338   5.047
12245TIP3   OH236679   6.095   7.534   2.714
12245TIP3    H136680   6.028   7.578   2.662
12245TIP3    H236681   6.175   7.582   2.696
12246TIP3   OH236682   4.333   1.752   4.366
12246TIP3    H136683   4.367   1.765   4.455
12246TIP3    H236684   4.408   1.769   4.309
12247TIP3   OH236685   6.087   5.879   3.405
12247TIP3    H136686   6.158   5.931   3.442
12247TIP3    H236687   6.129   5.800   3.372
12248TIP3   OH236688   7.546   3.635   3.461
12248TIP3    H136689   7.630   3.623   3.504
12248TIP3    H236690   7.489   3.671   3.529
12249TIP3   OH236691   5.039   1.546   0.042
12249TIP3    H136692   4.978   1.607   0.083
12249TIP3    H236693   5.126   1.582   0.060
12250TIP3   OH236694   2.298   2.707   1.946
12250TIP3    H136695   2.348   2.759   1.883
12250TIP3    H236696   2.364   2.658   1.994
12251TIP3   OH236697   5.566   2.081   3.070
12251TIP3    H136698   5.536   2.129   3.148
12251TIP3    H236699   5.598   2.149   3.011
12252TIP3   OH236700   5.981   0.224   4.508
12252TIP3    H136701   5.914   0.217   4.576
12252TIP3    H236702   5.932   0.220   4.426
12253TIP3   OH236703   1.912   5.592   1.305
12253TIP3    H136704   2.001   5.597   1.339
12253TIP3    H236705   1.883   5.683   1.301
12254TIP3   OH236706   0.403   4.071   6.699
12254TIP3    H136707   0.472   4.082   6.764
12254TIP3    H236708   0.450   4.059   6.616
12255TIP3   OH236709   4.038   2.770   6.021
12255TIP3    H136710   3.981   2.708   6.067
12255TIP3    H236711   4.034   2.850   6.074
12256TIP3   OH236712   6.384   0.873   4.526
12256TIP3    H136713   6.389   0.811   4.453
12256TIP3    H236714   6.387   0.818   4.604
12257TIP3   OH236715   6.471   7.363   4.369
12257TIP3    H136716   6.478   7.294   4.303
12257TIP3    H236717   6.408   7.425   4.332
12258TIP3   OH236718   1.535   5.347   3.435
12258TIP3    H136719   1.441   5.364   3.447
12258TIP3    H236720   1.574   5.434   3.432
12259TIP3   OH236721   2.509   6.571   1.304
12259TIP3    H136722   2.561   6.575   1.385
12259TIP3    H236723   2.564   6.615   1.239
12260TIP3   OH236724   7.365   4.762   0.416
12260TIP3    H136725   7.357   4.807   0.332
12260TIP3    H236726   7.418   4.684   0.396
12261TIP3   OH236727   6.297   7.489   0.244
12261TIP3    H136728   6.307   7.447   0.329
12261TIP3    H236729   6.204   7.479   0.223
12262TIP3   OH236730   5.060   5.758   5.658
12262TIP3    H136731   5.069   5.812   5.579
12262TIP3    H236732   4.991   5.801   5.708
12263TIP3   OH236733   4.014   0.918   0.141
12263TIP3    H136734   3.956   0.865   0.195
12263TIP3    H236735   3.977   1.006   0.146
12264TIP3   OH236736   6.788   6.922   0.386
12264TIP3    H136737   6.789   6.853   0.453
12264TIP3    H236738   6.791   6.874   0.303
12265TIP3   OH236739   7.407   5.413   6.660
12265TIP3    H136740   7.320   5.381   6.637
12265TIP3    H236741   7.424   5.483   6.598
12266TIP3   OH236742   2.675   4.352   2.544
12266TIP3    H136743   2.737   4.310   2.605
12266TIP3    H236744   2.726   4.368   2.465
12267TIP3   OH236745   4.697   2.969   5.432
12267TIP3    H136746   4.752   2.955   5.509
12267TIP3    H236747   4.759   2.975   5.359
12268TIP3   OH236748   6.348   2.307   0.407
12268TIP3    H136749   6.420   2.288   0.347
12268TIP3    H236750   6.367   2.396   0.440
12269TIP3   OH236751   3.345   3.623   1.378
12269TIP3    H136752   3.412   3.606   1.312
12269TIP3    H236753   3.337   3.719   1.380
12270TIP3   OH236754   7.100   6.066   4.950
12270TIP3    H136755   7.063   6.125   5.016
12270TIP3    H236756   7.173   6.116   4.912
12271TIP3   OH236757   6.610   4.364   3.486
12271TIP3    H136758   6.574   4.277   3.499
12271TIP3    H236759   6.555   4.421   3.540
12272TIP3   OH236760   3.778   1.471   3.281
12272TIP3    H136761   3.817   1.557   3.267
12272TIP3    H236762   3.683   1.487   3.285
12273TIP3   OH236763   0.069   4.203   5.383
12273TIP3    H136764   0.071   4.108   5.395
12273TIP3    H236765   0.147   4.235   5.430
12274TIP3   OH236766   6.174   6.318   2.381
12274TIP3    H136767   6.199   6.410   2.386
12274TIP3    H236768   6.250   6.271   2.416
12275TIP3   OH236769   5.635   7.425   4.214
12275TIP3    H136770   5.641   7.521   4.209
12275TIP3    H236771   5.553   7.408   4.260
12276TIP3   OH236772   4.297   5.875   2.333
12276TIP3    H136773   4.351   5.796   2.334
12276TIP3    H236774   4.275   5.891   2.424
12277TIP3   OH236775   2.973   0.601   3.914
12277TIP3    H136776   2.891   0.579   3.870
12277TIP3    H236777   2.996   0.522   3.963
12278TIP3   OH236778   5.380   3.590   6.618
12278TIP3    H136779   5.295   3.549   6.601
12278TIP3    H236780   5.444   3.520   6.601
12279TIP3   OH236781   4.676   5.986   5.224
12279TIP3    H136782   4.732   6.058   5.194
12279TIP3    H236783   4.602   5.986   5.163
12280TIP3   OH236784   1.077   7.618   0.160
12280TIP3    H136785   1.090   7.578   0.074
12280TIP3    H236786   1.124   7.562   0.221
12281TIP3   OH236787   1.303   4.269  -0.002
12281TIP3    H136788   1.379   4.214   0.018
12281TIP3    H236789   1.253   4.270   0.080
12282TIP3   OH236790   2.446   4.149   0.976
12282TIP3    H136791   2.458   4.204   1.054
12282TIP3    H236792   2.534   4.125   0.950
12283TIP3   OH236793   6.387   6.794   2.168
12283TIP3    H136794   6.451   6.805   2.238
12283TIP3    H236795   6.417   6.854   2.099
12284TIP3   OH236796   3.990   1.929   4.905
12284TIP3    H136797   3.922   1.976   4.858
12284TIP3    H236798   4.071   1.974   4.883
12285TIP3   OH236799   7.720   6.609   5.709
12285TIP3    H136800   7.645   6.583   5.763
12285TIP3    H236801   7.682   6.662   5.639
12286TIP3   OH236802   4.174   4.532   0.247
12286TIP3    H136803   4.160   4.440   0.272
12286TIP3    H236804   4.265   4.550   0.273
12287TIP3   OH236805   2.178   7.766   3.321
12287TIP3    H136806   2.240   7.813   3.376
12287TIP3    H236807   2.110   7.831   3.301
12288TIP3   OH236808   3.386   4.148   0.535
12288TIP3    H136809   3.444   4.126   0.462
12288TIP3    H236810   3.309   4.187   0.494
12289TIP3   OH236811   7.352   6.381   4.629
12289TIP3    H136812   7.408   6.413   4.558
12289TIP3    H236813   7.285   6.448   4.640
12290TIP3   OH236814   2.624   2.666   3.737
12290TIP3    H136815   2.643   2.752   3.775
12290TIP3    H236816   2.552   2.682   3.676
12291TIP3   OH236817   4.613   6.512   5.297
12291TIP3    H136818   4.561   6.499   5.376
12291TIP3    H236819   4.595   6.602   5.271
12292TIP3   OH236820   0.518   2.006   3.017
12292TIP3    H136821   0.486   1.918   2.994
12292TIP3    H236822   0.561   1.994   3.101
12293TIP3   OH236823   6.145   6.758   3.084
12293TIP3    H136824   6.101   6.817   3.146
12293TIP3    H236825   6.141   6.672   3.126
12294TIP3   OH236826   5.383   0.704   2.704
12294TIP3    H136827   5.419   0.713   2.616
12294TIP3    H236828   5.379   0.793   2.738
12295TIP3   OH236829   1.468   6.685   6.168
12295TIP3    H136830   1.466   6.771   6.210
12295TIP3    H236831   1.559   6.657   6.178
12296TIP3   OH236832   0.813   1.346   6.473
12296TIP3    H136833   0.727   1.336   6.514
12296TIP3    H236834   0.875   1.337   6.545
12297TIP3   OH236835   5.287   3.733   1.223
12297TIP3    H136836   5.227   3.689   1.283
12297TIP3    H236837   5.237   3.746   1.143
12298TIP3   OH236838   3.471   1.192   2.210
12298TIP3    H136839   3.428   1.110   2.234
12298TIP3    H236840   3.551   1.194   2.263
12299TIP3   OH236841   4.976   6.405   0.116
12299TIP3    H136842   5.052   6.403   0.058
12299TIP3    H236843   4.948   6.314   0.124
12300TIP3   OH236844   1.790   5.361   1.363
12300TIP3    H136845   1.750   5.414   1.432
12300TIP3    H236846   1.863   5.413   1.331
12301TIP3   OH236847   0.960   7.406   1.315
12301TIP3    H136848   0.888   7.376   1.370
12301TIP3    H236849   1.038   7.364   1.353
12302TIP3   OH236850   7.351   6.318   0.768
12302TIP3    H136851   7.387   6.396   0.810
12302TIP3    H236852   7.269   6.301   0.815
12303TIP3   OH236853   1.157   0.569   3.755
12303TIP3    H136854   1.223   0.537   3.692
12303TIP3    H236855   1.209   0.596   3.831
12304TIP3   OH236856   2.124   2.852   2.761
12304TIP3    H136857   2.040   2.898   2.759
12304TIP3    H236858   2.183   2.908   2.710
12305TIP3   OH236859   1.796   0.914   0.725
12305TIP3    H136860   1.809   0.829   0.682
12305TIP3    H236861   1.873   0.925   0.780
12306TIP3   OH236862   1.648   5.226   6.404
12306TIP3    H136863   1.698   5.166   6.459
12306TIP3    H236864   1.617   5.172   6.332
12307TIP3   OH236865   3.700   2.029   5.069
12307TIP3    H136866   3.641   2.015   4.995
12307TIP3    H236867   3.695   1.947   5.118
12308TIP3   OH236868   4.372   1.740   6.184
12308TIP3    H136869   4.318   1.680   6.236
12308TIP3    H236870   4.353   1.826   6.222
12309TIP3   OH236871   6.880   2.577   1.869
12309TIP3    H136872   6.821   2.602   1.798
12309TIP3    H236873   6.957   2.542   1.825
12310TIP3   OH236874   5.255   3.918   1.434
12310TIP3    H136875   5.288   3.844   1.384
12310TIP3    H236876   5.169   3.936   1.397
12311TIP3   OH236877   6.355   7.760   6.698
12311TIP3    H136878   6.324   7.746   6.608
12311TIP3    H236879   6.279   7.739   6.753
12312TIP3   OH236880   7.211   4.241   3.973
12312TIP3    H136881   7.253   4.258   4.057
12312TIP3    H236882   7.145   4.310   3.964
12313TIP3   OH236883   1.561   7.539   5.451
12313TIP3    H136884   1.576   7.532   5.357
12313TIP3    H236885   1.639   7.583   5.484
12314TIP3   OH236886   0.071   6.738   3.842
12314TIP3    H136887   0.078   6.673   3.772
12314TIP3    H236888   0.129   6.705   3.911
12315TIP3   OH236889   4.548   5.531   1.711
12315TIP3    H136890   4.596   5.575   1.641
12315TIP3    H236891   4.476   5.590   1.731
12316TIP3   OH236892   8.147   7.572   4.470
12316TIP3    H136893   8.149   7.650   4.525
12316TIP3    H236894   8.077   7.518   4.507
12317TIP3   OH236895   2.101   6.255   1.674
12317TIP3    H136896   2.048   6.175   1.682
12317TIP3    H236897   2.041   6.320   1.637
12318TIP3   OH236898   7.108   7.163   5.963
12318TIP3    H136899   7.099   7.068   5.972
12318TIP3    H236900   7.170   7.174   5.890
12319TIP3   OH236901   1.533   6.193   4.883
12319TIP3    H136902   1.503   6.103   4.897
12319TIP3    H236903   1.486   6.244   4.949
12320TIP3   OH236904   3.185   4.959   6.068
12320TIP3    H136905   3.101   4.983   6.029
12320TIP3    H236906   3.222   5.042   6.098
12321TIP3   OH236907   0.105   5.410   1.187
12321TIP3    H136908   0.019   5.393   1.150
12321TIP3    H236909   0.108   5.506   1.198
12322TIP3   OH236910   7.859   3.612   1.261
12322TIP3    H136911   7.810   3.548   1.209
12322TIP3    H236912   7.917   3.559   1.316
12323TIP3   OH236913   4.549   3.948   6.168
12323TIP3    H136914   4.475   3.915   6.116
12323TIP3    H236915   4.591   3.869   6.202
12324TIP3   OH236916   3.321   3.173   5.242
12324TIP3    H136917   3.310   3.251   5.297
12324TIP3    H236918   3.353   3.106   5.302
12325TIP3   OH236919   2.681   3.514   1.915
12325TIP3    H136920   2.643   3.470   1.839
12325TIP3    H236921   2.705   3.601   1.884
12326TIP3   OH236922   3.357   7.750   1.956
12326TIP3    H136923   3.370   7.699   1.876
12326TIP3    H236924   3.397   7.835   1.937
12327TIP3   OH236925   8.020   2.024   3.739
12327TIP3    H136926   8.077   1.967   3.790
12327TIP3    H236927   7.932   2.005   3.771
12328TIP3   OH236928   0.698   4.670   0.800
12328TIP3    H136929   0.759   4.612   0.753
12328TIP3    H236930   0.659   4.614   0.867
12329TIP3   OH236931   5.310   5.404   3.575
12329TIP3    H136932   5.397   5.366   3.590
12329TIP3    H236933   5.266   5.342   3.517
12330TIP3   OH236934   7.901   6.672   0.027
12330TIP3    H136935   7.844   6.733  -0.019
12330TIP3    H236936   7.846   6.637   0.098
12331TIP3   OH236937   7.014   1.939   3.637
12331TIP3    H136938   7.095   1.904   3.601
12331TIP3    H236939   6.948   1.872   3.618
12332TIP3   OH236940   4.944   4.723   1.851
12332TIP3    H136941   4.931   4.810   1.814
12332TIP3    H236942   4.859   4.700   1.888
12333TIP3   OH236943   2.863   6.275   3.209
12333TIP3    H136944   2.866   6.202   3.147
12333TIP3    H236945   2.928   6.337   3.177
12334TIP3   OH236946   2.846   4.547   2.086
12334TIP3    H136947   2.875   4.485   2.020
12334TIP3    H236948   2.886   4.630   2.061
12335TIP3   OH236949   7.619   5.540   1.948
12335TIP3    H136950   7.670   5.465   1.918
12335TIP3    H236951   7.667   5.616   1.915
12336TIP3   OH236952   3.354   2.004   1.569
12336TIP3    H136953   3.333   2.095   1.587
12336TIP3    H236954   3.338   1.993   1.475
12337TIP3   OH236955   3.304   2.558   0.389
12337TIP3    H136956   3.367   2.589   0.324
12337TIP3    H236957   3.218   2.569   0.348
12338TIP3   OH236958   3.874   0.472   0.253
12338TIP3    H136959   3.868   0.378   0.268
12338TIP3    H236960   3.839   0.484   0.164
12339TIP3   OH236961   0.259   4.210   3.532
12339TIP3    H136962   0.281   4.154   3.458
12339TIP3    H236963   0.282   4.298   3.504
12340TIP3   OH236964   8.214   1.910   2.185
12340TIP3    H136965   8.278   1.849   2.221
12340TIP3    H236966   8.266   1.968   2.128
12341TIP3   OH236967   5.644   2.983   2.296
12341TIP3    H136968   5.682   3.047   2.236
12341TIP3    H236969   5.603   3.036   2.364
12342TIP3   OH236970   7.556   7.634   6.571
12342TIP3    H136971   7.631   7.652   6.628
12342TIP3    H236972   7.487   7.608   6.631
12343TIP3   OH236973   0.462   4.419   6.622
12343TIP3    H136974   0.505   4.339   6.650
12343TIP3    H236975   0.392   4.433   6.686
12344TIP3   OH236976   0.505   7.357   5.819
12344TIP3    H136977   0.574   7.291   5.817
12344TIP3    H236978   0.467   7.356   5.732
12345TIP3   OH236979   6.729   5.538   0.588
12345TIP3    H136980   6.787   5.511   0.517
12345TIP3    H236981   6.641   5.519   0.556
12346TIP3   OH236982   6.999   2.375   3.758
12346TIP3    H136983   7.093   2.393   3.760
12346TIP3    H236984   6.970   2.405   3.672
12347TIP3   OH236985   5.594   2.325   5.584
12347TIP3    H136986   5.622   2.262   5.649
12347TIP3    H236987   5.500   2.310   5.575
12348TIP3   OH236988   6.156   1.798   5.603
12348TIP3    H136989   6.210   1.801   5.524
12348TIP3    H236990   6.181   1.877   5.652
12349TIP3   OH236991   7.835   2.634   2.351
12349TIP3    H136992   7.840   2.541   2.330
12349TIP3    H236993   7.888   2.644   2.430
12350TIP3   OH236994   6.094   7.768   3.410
12350TIP3    H136995   6.061   7.825   3.479
12350TIP3    H236996   6.136   7.828   3.348
12351TIP3   OH236997   2.370   4.011   0.272
12351TIP3    H136998   2.412   4.021   0.187
12351TIP3    H236999   2.430   3.956   0.322
12352TIP3   OH237000   2.154   5.468   4.462
12352TIP3    H137001   2.198   5.394   4.420
12352TIP3    H237002   2.175   5.460   4.555
12353TIP3   OH237003   0.709   3.117   0.737
12353TIP3    H137004   0.657   3.185   0.780
12353TIP3    H237005   0.733   3.057   0.808
12354TIP3   OH237006   6.806   4.820   6.217
12354TIP3    H137007   6.717   4.829   6.184
12354TIP3    H237008   6.852   4.773   6.147
12355TIP3   OH237009   5.815   4.002   5.769
12355TIP3    H137010   5.829   3.908   5.757
12355TIP3    H237011   5.747   4.024   5.705
12356TIP3   OH237012   5.143   7.517   3.210
12356TIP3    H137013   5.217   7.465   3.240
12356TIP3    H237014   5.091   7.456   3.157
12357TIP3   OH237015   6.692   5.943   5.166
12357TIP3    H137016   6.743   5.998   5.226
12357TIP3    H237017   6.613   5.920   5.215
12358TIP3   OH237018   8.043   4.004   3.832
12358TIP3    H137019   8.000   4.065   3.771
12358TIP3    H237020   8.094   4.061   3.890
12359TIP3   OH237021   4.351   0.319   2.379
12359TIP3    H137022   4.414   0.264   2.426
12359TIP3    H237023   4.398   0.347   2.300
12360TIP3   OH237024   1.266   4.089   2.283
12360TIP3    H137025   1.341   4.145   2.264
12360TIP3    H237026   1.302   4.017   2.335
12361TIP3   OH237027   6.106   4.043   4.522
12361TIP3    H137028   6.122   4.083   4.607
12361TIP3    H237029   6.010   4.045   4.512
12362TIP3   OH237030   3.351   1.389   5.518
12362TIP3    H137031   3.372   1.483   5.519
12362TIP3    H237032   3.276   1.381   5.578
12363TIP3   OH237033   2.286   1.624   4.075
12363TIP3    H137034   2.341   1.700   4.054
12363TIP3    H237035   2.225   1.656   4.141
12364TIP3   OH237036   1.335   1.472   6.527
12364TIP3    H137037   1.325   1.429   6.612
12364TIP3    H237038   1.273   1.427   6.469
12365TIP3   OH237039   6.193   1.383   4.876
12365TIP3    H137040   6.226   1.420   4.794
12365TIP3    H237041   6.227   1.294   4.878
12366TIP3   OH237042   2.241   2.245   1.897
12366TIP3    H137043   2.217   2.303   1.824
12366TIP3    H237044   2.301   2.298   1.950
12367TIP3   OH237045   8.275   2.389   4.256
12367TIP3    H137046   8.235   2.445   4.190
12367TIP3    H237047   8.202   2.364   4.313
12368TIP3   OH237048   1.718   6.668   2.098
12368TIP3    H137049   1.792   6.712   2.056
12368TIP3    H237050   1.708   6.714   2.182
12369TIP3   OH237051   0.897   3.150   2.039
12369TIP3    H137052   0.987   3.180   2.030
12369TIP3    H237053   0.884   3.089   1.966
12370TIP3   OH237054   3.663   0.027   2.293
12370TIP3    H137055   3.694   0.036   2.202
12370TIP3    H237056   3.575   0.063   2.292
12371TIP3   OH237057   1.745   0.147   6.250
12371TIP3    H137058   1.697   0.065   6.236
12371TIP3    H237059   1.733   0.166   6.343
12372TIP3   OH237060   6.159   1.898   1.960
12372TIP3    H137061   6.248   1.932   1.971
12372TIP3    H237062   6.125   1.889   2.049
12373TIP3   OH237063   0.011   6.971   2.652
12373TIP3    H137064  -0.019   7.059   2.627
12373TIP3    H237065  -0.070   6.921   2.665
12374TIP3   OH237066   2.221   4.636   3.025
12374TIP3    H137067   2.189   4.717   3.065
12374TIP3    H237068   2.208   4.569   3.092
12375TIP3   OH237069   2.166   7.261   1.528
12375TIP3    H137070   2.227   7.193   1.558
12375TIP3    H237071   2.081   7.218   1.528
12376TIP3   OH237072   2.053   6.711   2.947
12376TIP3    H137073   2.082   6.622   2.967
12376TIP3    H237074   2.109   6.768   3.000
12377TIP3   OH237075   3.420   6.223   5.863
12377TIP3    H137076   3.464   6.211   5.947
12377TIP3    H237077   3.338   6.268   5.885
12378TIP3   OH237078   0.743   3.197   4.298
12378TIP3    H137079   0.766   3.289   4.314
12378TIP3    H237080   0.721   3.194   4.205
12379TIP3   OH237081   3.942   5.664   5.275
12379TIP3    H137082   3.860   5.624   5.304
12379TIP3    H237083   4.004   5.591   5.271
12380TIP3   OH237084   3.945   4.925   6.166
12380TIP3    H137085   3.863   4.899   6.123
12380TIP3    H237086   3.929   4.910   6.259
12381TIP3   OH237087   0.185   2.184   3.431
12381TIP3    H137088   0.146   2.136   3.504
12381TIP3    H237089   0.274   2.148   3.424
12382TIP3   OH237090   3.910   0.827   0.946
12382TIP3    H137091   3.920   0.748   0.894
12382TIP3    H237092   3.827   0.865   0.917
12383TIP3   OH237093   1.052   2.990   6.629
12383TIP3    H137094   1.059   3.033   6.714
12383TIP3    H237095   0.981   3.036   6.584
12384TIP3   OH237096   7.619   3.607   1.995
12384TIP3    H137097   7.543   3.560   1.961
12384TIP3    H237098   7.685   3.539   2.009
12385TIP3   OH237099   0.493   4.840   2.698
12385TIP3    H137100   0.412   4.789   2.694
12385TIP3    H237101   0.465   4.926   2.730
12386TIP3   OH237102   6.863   5.900   3.147
12386TIP3    H137103   6.893   5.959   3.216
12386TIP3    H237104   6.874   5.813   3.184
12387TIP3   OH237105   0.043   7.013   1.150
12387TIP3    H137106   0.084   6.959   1.218
12387TIP3    H237107  -0.049   7.018   1.175
12388TIP3   OH237108   2.108   6.521   0.158
12388TIP3    H137109   2.025   6.510   0.203
12388TIP3    H237110   2.170   6.545   0.226
12389TIP3   OH237111   2.651   6.825   1.441
12389TIP3    H137112   2.682   6.884   1.510
12389TIP3    H237113   2.731   6.793   1.399
12390TIP3   OH237114   3.004   5.050   1.412
12390TIP3    H137115   2.975   5.097   1.334
12390TIP3    H237116   3.096   5.076   1.423
12391TIP3   OH237117   5.144   1.698   1.212
12391TIP3    H137118   5.065   1.723   1.165
12391TIP3    H237119   5.139   1.603   1.221
12392TIP3   OH237120   4.716   0.986   1.841
12392TIP3    H137121   4.655   0.943   1.900
12392TIP3    H237122   4.751   0.916   1.786
12393TIP3   OH237123   4.436   1.970   4.183
12393TIP3    H137124   4.430   2.046   4.241
12393TIP3    H237125   4.529   1.949   4.180
12394TIP3   OH237126   5.817   1.480   1.105
12394TIP3    H137127   5.767   1.561   1.102
12394TIP3    H237128   5.761   1.419   1.153
12395TIP3   OH237129   2.003   1.083   4.026
12395TIP3    H137130   2.049   1.001   4.009
12395TIP3    H237131   2.027   1.106   4.116
12396TIP3   OH237132   6.916   0.233   3.388
12396TIP3    H137133   6.929   0.143   3.359
12396TIP3    H237134   6.839   0.263   3.340
12397TIP3   OH237135   6.339   0.393   2.452
12397TIP3    H137136   6.291   0.316   2.482
12397TIP3    H237137   6.410   0.403   2.515
12398TIP3   OH237138   5.001   0.804   4.770
12398TIP3    H137139   5.001   0.887   4.819
12398TIP3    H237140   5.091   0.774   4.774
12399TIP3   OH237141   5.443   6.179   2.329
12399TIP3    H137142   5.387   6.251   2.300
12399TIP3    H237143   5.399   6.100   2.297
12400TIP3   OH237144   1.750   4.020   0.278
12400TIP3    H137145   1.763   3.931   0.312
12400TIP3    H237146   1.762   4.011   0.184
12401TIP3   OH237147   7.492   0.162   2.352
12401TIP3    H137148   7.560   0.110   2.311
12401TIP3    H237149   7.444   0.100   2.407
12402TIP3   OH237150   0.113   7.199   3.796
12402TIP3    H137151   0.056   7.197   3.873
12402TIP3    H237152   0.126   7.292   3.778
12403TIP3   OH237153   3.080   6.838   2.230
12403TIP3    H137154   3.160   6.833   2.282
12403TIP3    H237155   3.109   6.818   2.141
12404TIP3   OH237156   2.544   5.217   0.203
12404TIP3    H137157   2.515   5.218   0.294
12404TIP3    H237158   2.482   5.273   0.157
12405TIP3   OH237159   3.926   4.528   0.044
12405TIP3    H137160   3.992   4.567   0.100
12405TIP3    H237161   3.865   4.599   0.025
12406TIP3   OH237162   7.321   3.101   3.113
12406TIP3    H137163   7.272   3.106   3.195
12406TIP3    H237164   7.286   3.173   3.060
12407TIP3   OH237165   0.769   0.622   1.126
12407TIP3    H137166   0.724   0.566   1.189
12407TIP3    H237167   0.698   0.669   1.081
12408TIP3   OH237168   0.036   3.440   3.722
12408TIP3    H137169   0.123   3.443   3.763
12408TIP3    H237170   0.016   3.531   3.701
12409TIP3   OH237171   0.730   5.932   4.300
12409TIP3    H137172   0.778   5.923   4.217
12409TIP3    H237173   0.797   5.958   4.363
12410TIP3   OH237174   6.252   1.095   4.724
12410TIP3    H137175   6.277   1.003   4.721
12410TIP3    H237176   6.262   1.126   4.634
12411TIP3   OH237177   2.339   5.371   0.120
12411TIP3    H137178   2.257   5.327   0.139
12411TIP3    H237179   2.327   5.409   0.033
12412TIP3   OH237180   7.557   5.026   2.961
12412TIP3    H137181   7.564   4.967   2.887
12412TIP3    H237182   7.582   4.973   3.037
12413TIP3   OH237183   0.934   4.658   3.222
12413TIP3    H137184   1.016   4.619   3.192
12413TIP3    H237185   0.881   4.666   3.143
12414TIP3   OH237186   0.900   1.623   6.356
12414TIP3    H137187   0.880   1.623   6.263
12414TIP3    H237188   0.884   1.533   6.384
12415TIP3   OH237189   7.990   4.077   5.981
12415TIP3    H137190   8.058   4.113   6.037
12415TIP3    H237191   7.936   4.153   5.956
12416TIP3   OH237192   7.790   6.477   6.349
12416TIP3    H137193   7.739   6.521   6.282
12416TIP3    H237194   7.808   6.545   6.415
12417TIP3   OH237195   2.706   3.182   1.809
12417TIP3    H137196   2.634   3.151   1.863
12417TIP3    H237197   2.684   3.273   1.789
12418TIP3   OH237198   3.393   0.043   5.694
12418TIP3    H137199   3.384  -0.027   5.760
12418TIP3    H237200   3.486   0.046   5.675
12419TIP3   OH237201   7.147   2.078   0.858
12419TIP3    H137202   7.194   2.154   0.825
12419TIP3    H237203   7.215   2.020   0.892
12420TIP3   OH237204   3.396   3.791   0.098
12420TIP3    H137205   3.317   3.757   0.055
12420TIP3    H237206   3.419   3.724   0.162
12421TIP3   OH237207   5.781   0.158   1.909
12421TIP3    H137208   5.762   0.064   1.904
12421TIP3    H237209   5.858   0.170   1.853
12422TIP3   OH237210   4.837   7.597   6.544
12422TIP3    H137211   4.874   7.633   6.464
12422TIP3    H237212   4.749   7.569   6.520
12423TIP3   OH237213   5.933   6.218   0.665
12423TIP3    H137214   5.972   6.248   0.582
12423TIP3    H237215   5.929   6.297   0.719
12424TIP3   OH237216   1.398   3.990   6.610
12424TIP3    H137217   1.342   4.034   6.674
12424TIP3    H237218   1.487   4.004   6.642
12425TIP3   OH237219   5.959   7.709   5.855
12425TIP3    H137220   5.897   7.758   5.801
12425TIP3    H237221   6.045   7.739   5.826
12426TIP3   OH237222   7.759   0.900   2.658
12426TIP3    H137223   7.854   0.901   2.671
12426TIP3    H237224   7.746   0.940   2.572
12427TIP3   OH237225   6.649   0.845   3.454
12427TIP3    H137226   6.691   0.896   3.385
12427TIP3    H237227   6.602   0.776   3.408
12428TIP3   OH237228   3.530   4.099   3.242
12428TIP3    H137229   3.574   4.169   3.194
12428TIP3    H237230   3.573   4.098   3.328
12429TIP3   OH237231   8.209   5.858   4.991
12429TIP3    H137232   8.218   5.882   4.899
12429TIP3    H237233   8.269   5.784   5.003
12430TIP3   OH237234   0.149   2.426   4.526
12430TIP3    H137235   0.136   2.440   4.620
12430TIP3    H237236   0.089   2.354   4.504
12431TIP3   OH237237   2.524   4.521   5.912
12431TIP3    H137238   2.534   4.616   5.914
12431TIP3    H237239   2.603   4.488   5.956
12432TIP3   OH237240   2.575   2.049   5.939
12432TIP3    H137241   2.569   2.011   6.027
12432TIP3    H237242   2.535   1.984   5.881
12433TIP3   OH237243   4.653   5.127   2.366
12433TIP3    H137244   4.582   5.083   2.414
12433TIP3    H237245   4.703   5.173   2.434
12434TIP3   OH237246   5.482   4.677   4.388
12434TIP3    H137247   5.466   4.675   4.294
12434TIP3    H237248   5.396   4.660   4.427
12435TIP3   OH237249   7.637   0.635   5.588
12435TIP3    H137250   7.688   0.669   5.515
12435TIP3    H237251   7.703   0.601   5.649
12436TIP3   OH237252   3.361   0.340   1.056
12436TIP3    H137253   3.365   0.412   1.119
12436TIP3    H237254   3.346   0.383   0.972
12437TIP3   OH237255   5.785   6.305   1.573
12437TIP3    H137256   5.762   6.243   1.641
12437TIP3    H237257   5.849   6.363   1.614
12438TIP3   OH237258   1.941   3.464   3.583
12438TIP3    H137259   1.922   3.495   3.495
12438TIP3    H237260   1.885   3.387   3.594
12439TIP3   OH237261   6.750   1.959   3.254
12439TIP3    H137262   6.769   1.866   3.242
12439TIP3    H237263   6.831   1.995   3.291
12440TIP3   OH237264   5.761   6.068   4.855
12440TIP3    H137265   5.756   6.159   4.826
12440TIP3    H237266   5.689   6.024   4.810
12441TIP3   OH237267   0.773   5.482   0.159
12441TIP3    H137268   0.716   5.502   0.234
12441TIP3    H237269   0.858   5.519   0.182
12442TIP3   OH237270   5.662   0.005   3.361
12442TIP3    H137271   5.717   0.020   3.284
12442TIP3    H237272   5.594   0.073   3.356
12443TIP3   OH237273   5.217   3.839   2.257
12443TIP3    H137274   5.132   3.875   2.231
12443TIP3    H237275   5.261   3.819   2.175
12444TIP3   OH237276   2.182   5.945   5.999
12444TIP3    H137277   2.256   5.936   5.939
12444TIP3    H237278   2.127   5.869   5.981
12445TIP3   OH237279   2.999   5.228   0.508
12445TIP3    H137280   3.089   5.219   0.477
12445TIP3    H237281   2.951   5.261   0.432
12446TIP3   OH237282   0.335   0.466   0.560
12446TIP3    H137283   0.409   0.514   0.523
12446TIP3    H237284   0.281   0.443   0.485
12447TIP3   OH237285   5.294   7.491   0.719
12447TIP3    H137286   5.246   7.568   0.690
12447TIP3    H237287   5.361   7.525   0.778
12448TIP3   OH237288   4.665   1.780   2.428
12448TIP3    H137289   4.678   1.872   2.406
12448TIP3    H237290   4.619   1.781   2.512
12449TIP3   OH237291   5.605   2.566   6.676
12449TIP3    H137292   5.589   2.635   6.612
12449TIP3    H237293   5.693   2.535   6.655
12450TIP3   OH237294   2.031   5.447   5.147
12450TIP3    H137295   1.997   5.535   5.130
12450TIP3    H237296   1.981   5.390   5.089
12451TIP3   OH237297   3.030   6.143   0.086
12451TIP3    H137298   2.987   6.059   0.102
12451TIP3    H237299   3.110   6.120   0.039
12452TIP3   OH237300   4.476   6.568   3.137
12452TIP3    H137301   4.535   6.609   3.200
12452TIP3    H237302   4.446   6.640   3.082
12453TIP3   OH237303   1.758   3.987   2.303
12453TIP3    H137304   1.808   4.052   2.254
12453TIP3    H237305   1.778   3.904   2.259
12454TIP3   OH237306   6.896   5.003   2.611
12454TIP3    H137307   6.889   5.050   2.529
12454TIP3    H237308   6.982   4.962   2.608
12455TIP3   OH237309   5.651   7.572   6.305
12455TIP3    H137310   5.619   7.534   6.387
12455TIP3    H237311   5.576   7.618   6.268
12456TIP3   OH237312   1.911   5.180   3.236
12456TIP3    H137313   1.867   5.171   3.152
12456TIP3    H237314   1.857   5.131   3.297
12457TIP3   OH237315   1.625   5.849   5.925
12457TIP3    H137316   1.660   5.852   6.014
12457TIP3    H237317   1.647   5.761   5.894
12458TIP3   OH237318   6.813   6.959   3.951
12458TIP3    H137319   6.893   6.968   4.003
12458TIP3    H237320   6.844   6.934   3.864
12459TIP3   OH237321   7.009   7.207   2.106
12459TIP3    H137322   7.103   7.202   2.120
12459TIP3    H237323   6.986   7.297   2.132
12460TIP3   OH237324   1.052   6.854   6.686
12460TIP3    H137325   1.003   6.932   6.661
12460TIP3    H237326   1.033   6.842   6.779
12461TIP3   OH237327   1.456   4.222   1.186
12461TIP3    H137328   1.384   4.213   1.249
12461TIP3    H237329   1.535   4.211   1.239
12462TIP3   OH237330   0.904   2.994   1.797
12462TIP3    H137331   0.964   3.019   1.727
12462TIP3    H237332   0.940   2.912   1.831
12463TIP3   OH237333   7.177   1.866   4.953
12463TIP3    H137334   7.245   1.800   4.967
12463TIP3    H237335   7.095   1.815   4.950
12464TIP3   OH237336   0.941   0.734   0.505
12464TIP3    H137337   1.016   0.734   0.447
12464TIP3    H237338   0.968   0.680   0.580
12465TIP3   OH237339   1.353   6.913   5.490
12465TIP3    H137340   1.410   6.911   5.414
12465TIP3    H237341   1.405   6.873   5.560
12466TIP3   OH237342   4.661   5.859   3.944
12466TIP3    H137343   4.599   5.828   3.878
12466TIP3    H237344   4.743   5.869   3.897
12467TIP3   OH237345   5.034   6.684   4.071
12467TIP3    H137346   5.109   6.624   4.074
12467TIP3    H237347   5.032   6.724   4.157
12468TIP3   OH237348   3.396   2.400   1.925
12468TIP3    H137349   3.393   2.496   1.917
12468TIP3    H237350   3.489   2.379   1.931
12469TIP3   OH237351   8.006   3.910   2.359
12469TIP3    H137352   7.966   3.834   2.402
12469TIP3    H237353   8.093   3.916   2.397
12470TIP3   OH237354   4.006   1.236   2.114
12470TIP3    H137355   3.926   1.219   2.064
12470TIP3    H237356   4.023   1.155   2.161
12471TIP3   OH237357   4.917   3.822   0.652
12471TIP3    H137358   4.981   3.777   0.708
12471TIP3    H237359   4.968   3.852   0.577
12472TIP3   OH237360   3.019   7.558   4.158
12472TIP3    H137361   2.969   7.490   4.203
12472TIP3    H237362   2.975   7.640   4.183
12473TIP3   OH237363   0.820   4.422   1.564
12473TIP3    H137364   0.868   4.402   1.483
12473TIP3    H237365   0.757   4.351   1.573
12474TIP3   OH237366   6.629   2.656   6.249
12474TIP3    H137367   6.628   2.691   6.338
12474TIP3    H237368   6.666   2.568   6.258
12475TIP3   OH237369   1.179   4.657   5.994
12475TIP3    H137370   1.257   4.607   5.969
12475TIP3    H237371   1.126   4.661   5.914
12476TIP3   OH237372   2.509   4.160   1.512
12476TIP3    H137373   2.539   4.140   1.601
12476TIP3    H237374   2.589   4.184   1.465
12477TIP3   OH237375   4.055   5.591   6.502
12477TIP3    H137376   4.097   5.663   6.455
12477TIP3    H237377   4.072   5.514   6.449
12478TIP3   OH237378   2.109   7.549   5.600
12478TIP3    H137379   2.116   7.461   5.636
12478TIP3    H237380   2.104   7.536   5.505
12479TIP3   OH237381   4.623   0.981   3.538
12479TIP3    H137382   4.654   0.999   3.626
12479TIP3    H237383   4.685   1.026   3.481
12480TIP3   OH237384   5.542   3.730   3.353
12480TIP3    H137385   5.504   3.673   3.420
12480TIP3    H237386   5.623   3.686   3.328
12481TIP3   OH237387   1.162   1.561   5.852
12481TIP3    H137388   1.192   1.590   5.765
12481TIP3    H237389   1.232   1.502   5.882
12482TIP3   OH237390   8.118   7.029   4.851
12482TIP3    H137391   8.207   6.995   4.862
12482TIP3    H237392   8.092   7.056   4.939
12483TIP3   OH237393   3.362   7.202   2.222
12483TIP3    H137394   3.347   7.164   2.135
12483TIP3    H237395   3.378   7.295   2.205
12484TIP3   OH237396   7.417   0.037   6.204
12484TIP3    H137397   7.450   0.038   6.294
12484TIP3    H237398   7.433   0.125   6.172
12485TIP3   OH237399   2.311   1.692   5.531
12485TIP3    H137400   2.321   1.636   5.454
12485TIP3    H237401   2.293   1.779   5.496
12486TIP3   OH237402   6.302   4.981   4.516
12486TIP3    H137403   6.376   4.939   4.471
12486TIP3    H237404   6.291   4.930   4.596
12487TIP3   OH237405   6.783   6.401   0.672
12487TIP3    H137406   6.772   6.408   0.577
12487TIP3    H237407   6.807   6.310   0.687
12488TIP3   OH237408   7.825   7.184   5.725
12488TIP3    H137409   7.841   7.231   5.807
12488TIP3    H237410   7.784   7.102   5.752
12489TIP3   OH237411   4.207   4.308   6.477
12489TIP3    H137412   4.174   4.272   6.559
12489TIP3    H237413   4.136   4.296   6.415
12490TIP3   OH237414   8.000   5.686   4.552
12490TIP3    H137415   8.045   5.603   4.563
12490TIP3    H237416   7.972   5.687   4.460
12491TIP3   OH237417   7.203   6.896   3.129
12491TIP3    H137418   7.280   6.949   3.150
12491TIP3    H237419   7.184   6.849   3.210
12492TIP3   OH237420   6.201   1.722   6.715
12492TIP3    H137421   6.171   1.662   6.648
12492TIP3    H237422   6.225   1.665   6.789
12493TIP3   OH237423   4.212   3.085   2.726
12493TIP3    H137424   4.236   3.169   2.688
12493TIP3    H237425   4.296   3.043   2.747
12494TIP3   OH237426   2.196   7.402   2.158
12494TIP3    H137427   2.206   7.493   2.187
12494TIP3    H237428   2.102   7.385   2.165
12495TIP3   OH237429   6.549   5.707   2.136
12495TIP3    H137430   6.523   5.637   2.077
12495TIP3    H237431   6.580   5.662   2.215
12496TIP3   OH237432   4.544   1.224   5.443
12496TIP3    H137433   4.579   1.247   5.529
12496TIP3    H237434   4.451   1.245   5.449
12497TIP3   OH237435   2.237   3.408   3.338
12497TIP3    H137436   2.205   3.474   3.400
12497TIP3    H237437   2.183   3.419   3.260
12498TIP3   OH237438   1.676   4.221   3.317
12498TIP3    H137439   1.643   4.233   3.406
12498TIP3    H237440   1.680   4.310   3.281
12499TIP3   OH237441   2.800   5.173   0.758
12499TIP3    H137442   2.785   5.103   0.694
12499TIP3    H237443   2.880   5.216   0.728
12500TIP3   OH237444   4.666   7.326   0.070
12500TIP3    H137445   4.607   7.273   0.123
12500TIP3    H237446   4.664   7.286  -0.017
12501TIP3   OH237447   0.065   1.033   2.228
12501TIP3    H137448   0.159   1.036   2.248
12501TIP3    H237449   0.051   1.102   2.164
12502TIP3   OH237450   2.109   1.092   6.111
12502TIP3    H137451   2.050   1.055   6.046
12502TIP3    H237452   2.193   1.101   6.065
12503TIP3   OH237453   8.208   2.537   2.213
12503TIP3    H137454   8.151   2.461   2.205
12503TIP3    H237455   8.295   2.501   2.229
12504TIP3   OH237456   7.970   4.503   0.240
12504TIP3    H137457   8.033   4.520   0.170
12504TIP3    H237458   8.023   4.489   0.318
12505TIP3   OH237459   2.221   4.896   2.771
12505TIP3    H137460   2.298   4.857   2.731
12505TIP3    H237461   2.165   4.822   2.793
12506TIP3   OH237462   4.421   6.364   1.601
12506TIP3    H137463   4.419   6.442   1.657
12506TIP3    H237464   4.466   6.298   1.652
12507TIP3   OH237465   0.108   2.253   2.212
12507TIP3    H137466   0.170   2.222   2.279
12507TIP3    H237467   0.158   2.250   2.130
12508TIP3   OH237468   5.320   2.288   0.717
12508TIP3    H137469   5.324   2.193   0.701
12508TIP3    H237470   5.230   2.304   0.744
12509TIP3   OH237471   0.457   6.406   0.089
12509TIP3    H137472   0.539   6.366   0.061
12509TIP3    H237473   0.426   6.454   0.012
12510TIP3   OH237474   3.907   2.085   2.161
12510TIP3    H137475   3.818   2.086   2.197
12510TIP3    H237476   3.903   2.145   2.087
12511TIP3   OH237477   1.237   7.228   5.923
12511TIP3    H137478   1.167   7.171   5.953
12511TIP3    H237479   1.269   7.187   5.843
12512TIP3   OH237480   2.282   6.345   1.460
12512TIP3    H137481   2.377   6.354   1.472
12512TIP3    H237482   2.253   6.300   1.539
12513TIP3   OH237483   7.619   1.666   3.329
12513TIP3    H137484   7.680   1.593   3.338
12513TIP3    H237485   7.631   1.696   3.239
12514TIP3   OH237486   4.541   0.379   1.269
12514TIP3    H137487   4.509   0.290   1.282
12514TIP3    H237488   4.535   0.420   1.356
12515TIP3   OH237489   5.158   6.650   0.988
12515TIP3    H137490   5.206   6.568   1.003
12515TIP3    H237491   5.161   6.663   0.894
12516TIP3   OH237492   5.467   6.875   2.778
12516TIP3    H137493   5.486   6.847   2.868
12516TIP3    H237494   5.401   6.943   2.787
12517TIP3   OH237495   7.142   3.733   1.972
12517TIP3    H137496   7.221   3.766   2.015
12517TIP3    H237497   7.141   3.777   1.887
12518TIP3   OH237498   2.711   1.695   3.542
12518TIP3    H137499   2.778   1.757   3.570
12518TIP3    H237500   2.746   1.609   3.565
12519TIP3   OH237501   5.847   0.342   4.714
12519TIP3    H137502   5.873   0.321   4.804
12519TIP3    H237503   5.902   0.416   4.689
12520TIP3   OH237504   0.774   1.018   4.051
12520TIP3    H137505   0.833   1.093   4.046
12520TIP3    H237506   0.778   0.979   3.964
12521TIP3   OH237507   2.749   6.346   6.001
12521TIP3    H137508   2.809   6.415   6.027
12521TIP3    H237509   2.684   6.390   5.946
12522TIP3   OH237510   1.202   4.843   6.287
12522TIP3    H137511   1.219   4.932   6.318
12522TIP3    H237512   1.217   4.787   6.363
12523TIP3   OH237513   6.253   7.307   1.716
12523TIP3    H137514   6.224   7.275   1.801
12523TIP3    H237515   6.294   7.392   1.735
12524TIP3   OH237516   6.487   0.964   5.857
12524TIP3    H137517   6.393   0.975   5.843
12524TIP3    H237518   6.504   0.873   5.834
12525TIP3   OH237519   6.563   7.090   1.993
12525TIP3    H137520   6.565   7.177   1.953
12525TIP3    H237521   6.548   7.106   2.086
12526TIP3   OH237522   4.389   4.703   0.073
12526TIP3    H137523   4.405   4.628   0.016
12526TIP3    H237524   4.314   4.748   0.033
12527TIP3   OH237525   3.964   1.534   4.109
12527TIP3    H137526   3.878   1.571   4.126
12527TIP3    H237527   4.011   1.602   4.060
12528TIP3   OH237528   2.417   5.871   6.676
12528TIP3    H137529   2.355   5.857   6.604
12528TIP3    H237530   2.490   5.918   6.636
12529TIP3   OH237531   3.673   4.336   1.261
12529TIP3    H137532   3.631   4.345   1.176
12529TIP3    H237533   3.606   4.364   1.324
12530TIP3   OH237534   1.670   0.062   5.049
12530TIP3    H137535   1.746   0.010   5.075
12530TIP3    H237536   1.661   0.045   4.955
12531TIP3   OH237537   3.577   7.065   4.389
12531TIP3    H137538   3.519   7.052   4.465
12531TIP3    H237539   3.642   7.128   4.419
12532TIP3   OH237540   8.007   0.642   0.768
12532TIP3    H137541   7.940   0.705   0.796
12532TIP3    H237542   8.014   0.581   0.842
12533TIP3   OH237543   1.236   7.652   0.819
12533TIP3    H137544   1.186   7.733   0.808
12533TIP3    H237545   1.192   7.606   0.891
12534TIP3   OH237546   1.459   7.597   3.540
12534TIP3    H137547   1.540   7.601   3.590
12534TIP3    H237548   1.416   7.517   3.570
12535TIP3   OH237549   6.236   1.664   0.491
12535TIP3    H137550   6.283   1.632   0.414
12535TIP3    H237551   6.191   1.588   0.526
12536TIP3   OH237552   2.958   3.371   1.951
12536TIP3    H137553   2.953   3.415   1.866
12536TIP3    H237554   2.877   3.394   1.996
12537TIP3   OH237555   8.215   2.587   3.140
12537TIP3    H137556   8.172   2.634   3.069
12537TIP3    H237557   8.277   2.650   3.177
12538TIP3   OH237558   4.352   2.403   0.705
12538TIP3    H137559   4.356   2.308   0.715
12538TIP3    H237560   4.267   2.419   0.663
12539TIP3   OH237561   4.029   4.983   0.409
12539TIP3    H137562   4.094   4.915   0.425
12539TIP3    H237563   4.057   5.056   0.464
12540TIP3   OH237564   7.086   3.021   4.688
12540TIP3    H137565   7.006   2.970   4.705
12540TIP3    H237566   7.135   2.968   4.626
12541TIP3   OH237567   2.206   7.599   0.711
12541TIP3    H137568   2.125   7.629   0.670
12541TIP3    H237569   2.255   7.678   0.730
12542TIP3   OH237570   3.473   1.057   4.591
12542TIP3    H137571   3.499   1.119   4.660
12542TIP3    H237572   3.553   1.041   4.542
12543TIP3   OH237573   4.658   3.147   4.408
12543TIP3    H137574   4.655   3.054   4.431
12543TIP3    H237575   4.567   3.176   4.411
12544TIP3   OH237576   4.233   2.295   3.518
12544TIP3    H137577   4.246   2.384   3.552
12544TIP3    H237578   4.256   2.302   3.425
12545TIP3   OH237579   4.579   2.454   3.384
12545TIP3    H137580   4.579   2.371   3.431
12545TIP3    H237581   4.582   2.520   3.453
12546TIP3   OH237582   0.910   6.774   0.063
12546TIP3    H137583   0.849   6.729   0.005
12546TIP3    H237584   0.989   6.785   0.010
12547TIP3   OH237585   5.269   2.644   0.489
12547TIP3    H137586   5.324   2.680   0.419
12547TIP3    H237587   5.327   2.581   0.534
12548TIP3   OH237588   1.609   4.124   0.007
12548TIP3    H137589   1.627   4.057  -0.059
12548TIP3    H237590   1.595   4.075   0.088
12549TIP3   OH237591   4.761   0.415   0.230
12549TIP3    H137592   4.689   0.479   0.237
12549TIP3    H237593   4.747   0.373   0.145
12550TIP3   OH237594   1.134   5.141   2.951
12550TIP3    H137595   1.076   5.210   2.920
12550TIP3    H237596   1.187   5.117   2.875
12551TIP3   OH237597   7.160   0.930   2.533
12551TIP3    H137598   7.240   0.961   2.576
12551TIP3    H237599   7.191   0.874   2.462
12552TIP3   OH237600   6.755   0.583   5.657
12552TIP3    H137601   6.825   0.560   5.596
12552TIP3    H237602   6.732   0.673   5.635
12553TIP3   OH237603   8.135   0.604   1.649
12553TIP3    H137604   8.059   0.633   1.598
12553TIP3    H237605   8.181   0.544   1.590
12554TIP3   OH237606   1.352   3.592   6.673
12554TIP3    H137607   1.402   3.525   6.719
12554TIP3    H237608   1.295   3.630   6.740
12555TIP3   OH237609   5.350   2.468   3.913
12555TIP3    H137610   5.372   2.406   3.843
12555TIP3    H237611   5.302   2.415   3.977
12556TIP3   OH237612   1.316   3.812   0.423
12556TIP3    H137613   1.343   3.890   0.376
12556TIP3    H237614   1.244   3.841   0.479
12557TIP3   OH237615   8.184   7.592   0.583
12557TIP3    H137616   8.123   7.589   0.656
12557TIP3    H237617   8.156   7.667   0.531
12558TIP3   OH237618   3.973   2.405   0.858
12558TIP3    H137619   3.962   2.362   0.774
12558TIP3    H237620   3.893   2.385   0.907
12559TIP3   OH237621   3.479   4.764   1.531
12559TIP3    H137622   3.519   4.716   1.604
12559TIP3    H237623   3.428   4.833   1.574
12560TIP3   OH237624   5.688   1.137   6.431
12560TIP3    H137625   5.714   1.049   6.460
12560TIP3    H237626   5.596   1.145   6.458
12561TIP3   OH237627   1.037   1.440   5.587
12561TIP3    H137628   1.093   1.517   5.573
12561TIP3    H237629   0.963   1.473   5.637
12562TIP3   OH237630   7.649   0.125   1.242
12562TIP3    H137631   7.665   0.187   1.313
12562TIP3    H237632   7.722   0.063   1.248
12563TIP3   OH237633   1.646   0.892   0.423
12563TIP3    H137634   1.737   0.904   0.447
12563TIP3    H237635   1.648   0.828   0.352
12564TIP3   OH237636   0.219   6.708   1.609
12564TIP3    H137637   0.188   6.625   1.574
12564TIP3    H237638   0.313   6.709   1.591
12565TIP3   OH237639   4.961   4.764   1.079
12565TIP3    H137640   4.993   4.708   1.149
12565TIP3    H237641   5.021   4.839   1.078
12566TIP3   OH237642   7.181   4.557   1.970
12566TIP3    H137643   7.239   4.631   1.955
12566TIP3    H237644   7.116   4.562   1.900
12567TIP3   OH237645   1.142   7.517   4.580
12567TIP3    H137646   1.100   7.439   4.546
12567TIP3    H237647   1.072   7.581   4.588
12568TIP3   OH237648   8.030   5.973   2.563
12568TIP3    H137649   7.977   6.039   2.606
12568TIP3    H237650   7.971   5.899   2.549
12569TIP3   OH237651   6.628   2.624   4.828
12569TIP3    H137652   6.669   2.608   4.913
12569TIP3    H237653   6.634   2.719   4.817
12570TIP3   OH237654   5.796   2.516   2.817
12570TIP3    H137655   5.782   2.550   2.729
12570TIP3    H237656   5.891   2.514   2.828
12571TIP3   OH237657   4.235   5.333   5.500
12571TIP3    H137658   4.287   5.254   5.488
12571TIP3    H237659   4.180   5.338   5.421
12572TIP3   OH237660   0.103   5.026   4.335
12572TIP3    H137661   0.180   4.974   4.314
12572TIP3    H237662   0.052   5.028   4.254
12573TIP3   OH237663   4.616   5.627   4.595
12573TIP3    H137664   4.579   5.633   4.683
12573TIP3    H237665   4.710   5.620   4.609
12574TIP3   OH237666   1.192   2.385   3.217
12574TIP3    H137667   1.123   2.427   3.269
12574TIP3    H237668   1.206   2.444   3.143
12575TIP3   OH237669   2.758   2.382   4.085
12575TIP3    H137670   2.749   2.344   3.998
12575TIP3    H237671   2.695   2.454   4.087
12576TIP3   OH237672   0.968   5.066   1.752
12576TIP3    H137673   0.880   5.045   1.721
12576TIP3    H237674   0.987   5.000   1.818
12577TIP3   OH237675   6.854   2.802   3.801
12577TIP3    H137676   6.821   2.751   3.727
12577TIP3    H237677   6.839   2.747   3.877
12578TIP3   OH237678   3.348   7.564   0.023
12578TIP3    H137679   3.276   7.521   0.070
12578TIP3    H237680   3.356   7.650   0.065
12579TIP3   OH237681   4.635   4.994   6.368
12579TIP3    H137682   4.603   5.050   6.438
12579TIP3    H237683   4.623   4.905   6.400
12580TIP3   OH237684   2.034   5.384   2.178
12580TIP3    H137685   2.071   5.303   2.141
12580TIP3    H237686   2.022   5.442   2.103
12581TIP3   OH237687   0.229   4.006   0.814
12581TIP3    H137688   0.274   4.090   0.816
12581TIP3    H237689   0.288   3.948   0.767
12582TIP3   OH237690   5.297   1.910   3.442
12582TIP3    H137691   5.233   1.846   3.411
12582TIP3    H237692   5.329   1.874   3.525
12583TIP3   OH237693   6.924   0.290   0.142
12583TIP3    H137694   6.854   0.240   0.098
12583TIP3    H237695   6.929   0.372   0.094
12584TIP3   OH237696   7.171   5.705   0.297
12584TIP3    H137697   7.180   5.673   0.387
12584TIP3    H237698   7.234   5.652   0.247
12585TIP3   OH237699   7.488   5.456   4.013
12585TIP3    H137700   7.488   5.552   4.016
12585TIP3    H237701   7.453   5.429   4.098
12586TIP3   OH237702   0.538   5.166   3.819
12586TIP3    H137703   0.627   5.160   3.783
12586TIP3    H237704   0.486   5.107   3.765
12587TIP3   OH237705   2.725   6.806   5.143
12587TIP3    H137706   2.737   6.768   5.230
12587TIP3    H237707   2.637   6.844   5.145
12588TIP3   OH237708   1.232   5.778   1.088
12588TIP3    H137709   1.277   5.792   1.004
12588TIP3    H237710   1.173   5.853   1.095
12589TIP3   OH237711   5.615   4.074   2.418
12589TIP3    H137712   5.550   4.089   2.487
12589TIP3    H237713   5.564   4.068   2.338
12590TIP3   OH237714   2.491   3.374   0.540
12590TIP3    H137715   2.442   3.371   0.457
12590TIP3    H237716   2.496   3.283   0.568
12591TIP3   OH237717   6.928   2.835   0.466
12591TIP3    H137718   6.959   2.753   0.505
12591TIP3    H237719   6.978   2.903   0.512
12592TIP3   OH237720   0.241   1.811   0.118
12592TIP3    H137721   0.283   1.877   0.173
12592TIP3    H237722   0.215   1.742   0.180
12593TIP3   OH237723   5.115   2.922   2.898
12593TIP3    H137724   5.144   2.832   2.905
12593TIP3    H237725   5.192   2.970   2.867
12594TIP3   OH237726   6.277   3.057   1.545
12594TIP3    H137727   6.211   3.018   1.488
12594TIP3    H237728   6.235   3.135   1.581
12595TIP3   OH237729   2.229   5.058   0.336
12595TIP3    H137730   2.188   4.979   0.302
12595TIP3    H237731   2.204   5.127   0.275
12596TIP3   OH237732   2.901   7.435   3.925
12596TIP3    H137733   2.812   7.462   3.950
12596TIP3    H237734   2.957   7.469   3.995
12597TIP3   OH237735   0.582   6.478   6.259
12597TIP3    H137736   0.531   6.457   6.181
12597TIP3    H237737   0.575   6.573   6.268
12598TIP3   OH237738   4.260   4.021   0.832
12598TIP3    H137739   4.248   4.104   0.787
12598TIP3    H237740   4.355   4.009   0.837
12599TIP3   OH237741   1.657   7.537   6.664
12599TIP3    H137742   1.651   7.573   6.752
12599TIP3    H237743   1.744   7.562   6.634
12600TIP3   OH237744   7.716   3.596   4.777
12600TIP3    H137745   7.678   3.512   4.805
12600TIP3    H237746   7.676   3.661   4.835
12601TIP3   OH237747   7.400   5.530   1.781
12601TIP3    H137748   7.347   5.609   1.784
12601TIP3    H237749   7.443   5.527   1.867
12602TIP3   OH237750   2.072   6.906   1.159
12602TIP3    H137751   2.049   6.925   1.249
12602TIP3    H237752   2.042   6.816   1.145
12603TIP3   OH237753   6.755   7.208   4.086
12603TIP3    H137754   6.839   7.199   4.130
12603TIP3    H237755   6.753   7.135   4.023
12604TIP3   OH237756   3.445   4.239   2.929
12604TIP3    H137757   3.415   4.328   2.950
12604TIP3    H237758   3.530   4.231   2.973
12605TIP3   OH237759   5.885   3.477   2.038
12605TIP3    H137760   5.826   3.422   2.090
12605TIP3    H237761   5.827   3.521   1.976
12606TIP3   OH237762   7.510   5.742   0.492
12606TIP3    H137763   7.441   5.715   0.553
12606TIP3    H237764   7.573   5.789   0.546
12607TIP3   OH237765   1.411   7.135   0.189
12607TIP3    H137766   1.332   7.143   0.137
12607TIP3    H237767   1.473   7.089   0.132
12608TIP3   OH237768   4.598   3.234   3.117
12608TIP3    H137769   4.631   3.185   3.193
12608TIP3    H237770   4.673   3.242   3.059
12609TIP3   OH237771   0.114   7.516   0.978
12609TIP3    H137772   0.186   7.466   0.940
12609TIP3    H237773   0.049   7.450   1.003
12610TIP3   OH237774   0.515   3.947   4.264
12610TIP3    H137775   0.488   3.866   4.222
12610TIP3    H237776   0.603   3.927   4.298
12611TIP3   OH237777   4.877   4.214   1.956
12611TIP3    H137778   4.883   4.302   1.993
12611TIP3    H237779   4.824   4.165   2.019
12612TIP3   OH237780   2.627   5.585   3.034
12612TIP3    H137781   2.606   5.670   3.072
12612TIP3    H237782   2.612   5.596   2.941
12613TIP3   OH237783   2.394   7.629   3.909
12613TIP3    H137784   2.469   7.689   3.917
12613TIP3    H237785   2.318   7.685   3.924
12614TIP3   OH237786   4.835   1.349   0.003
12614TIP3    H137787   4.750   1.382  -0.027
12614TIP3    H237788   4.892   1.426   0.002
12615TIP3   OH237789   2.824   2.949   3.947
12615TIP3    H137790   2.735   2.980   3.931
12615TIP3    H237791   2.878   3.028   3.948
12616TIP3   OH237792   4.244   7.700   4.018
12616TIP3    H137793   4.233   7.791   3.991
12616TIP3    H237794   4.230   7.650   3.938
12617TIP3   OH237795   3.004   0.504   5.772
12617TIP3    H137796   3.014   0.422   5.722
12617TIP3    H237797   2.984   0.475   5.861
12618TIP3   OH237798   2.649   4.030   5.002
12618TIP3    H137799   2.612   4.000   4.920
12618TIP3    H237800   2.734   3.987   5.008
12619TIP3   OH237801   2.176   2.989   0.150
12619TIP3    H137802   2.210   2.931   0.083
12619TIP3    H237803   2.081   2.975   0.149
12620TIP3   OH237804   6.996   6.335   5.425
12620TIP3    H137805   7.068   6.394   5.404
12620TIP3    H237806   6.963   6.366   5.509
12621TIP3   OH237807   2.607   0.524   1.214
12621TIP3    H137808   2.606   0.572   1.131
12621TIP3    H237809   2.609   0.592   1.281
12622TIP3   OH237810   1.690   3.615   0.796
12622TIP3    H137811   1.747   3.590   0.869
12622TIP3    H237812   1.647   3.534   0.770
12623TIP3   OH237813   0.956   5.835   0.254
12623TIP3    H137814   1.030   5.807   0.307
12623TIP3    H237815   0.991   5.844   0.166
12624TIP3   OH237816   4.138   0.546   4.327
12624TIP3    H137817   4.219   0.577   4.367
12624TIP3    H237818   4.081   0.524   4.401
12625TIP3   OH237819   1.921   5.979   0.962
12625TIP3    H137820   1.891   6.010   0.877
12625TIP3    H237821   1.940   6.059   1.011
12626TIP3   OH237822   0.911   0.396   0.512
12626TIP3    H137823   0.966   0.318   0.510
12626TIP3    H237824   0.941   0.445   0.588
12627TIP3   OH237825   8.292   6.087   4.792
12627TIP3    H137826   8.202   6.118   4.795
12627TIP3    H237827   8.334   6.126   4.869
12628TIP3   OH237828   0.598   6.864   4.989
12628TIP3    H137829   0.512   6.821   4.997
12628TIP3    H237830   0.577   6.957   4.978
12629TIP3   OH237831   5.845   4.681   1.482
12629TIP3    H137832   5.866   4.621   1.553
12629TIP3    H237833   5.783   4.743   1.520
12630TIP3   OH237834   2.231   4.294   3.606
12630TIP3    H137835   2.271   4.281   3.520
12630TIP3    H237836   2.171   4.367   3.594
12631TIP3   OH237837   0.162   1.208   0.371
12631TIP3    H137838   0.071   1.197   0.398
12631TIP3    H237839   0.209   1.232   0.451
12632TIP3   OH237840   6.634   5.449   4.515
12632TIP3    H137841   6.639   5.415   4.426
12632TIP3    H237842   6.554   5.410   4.551
12633TIP3   OH237843   2.744   0.381   6.192
12633TIP3    H137844   2.691   0.303   6.212
12633TIP3    H237845   2.728   0.397   6.099
12634TIP3   OH237846   7.573   7.487   1.237
12634TIP3    H137847   7.557   7.407   1.186
12634TIP3    H237848   7.486   7.518   1.260
12635TIP3   OH237849   0.757   5.462   2.283
12635TIP3    H137850   0.679   5.452   2.228
12635TIP3    H237851   0.799   5.541   2.249
12636TIP3   OH237852   1.317   6.413   1.136
12636TIP3    H137853   1.350   6.451   1.217
12636TIP3    H237854   1.227   6.446   1.130
12637TIP3   OH237855   5.990   4.146   0.374
12637TIP3    H137856   6.023   4.224   0.417
12637TIP3    H237857   6.064   4.111   0.325
12638TIP3   OH237858   8.032   5.574   2.576
12638TIP3    H137859   8.056   5.501   2.632
12638TIP3    H237860   8.114   5.603   2.536
12639TIP3   OH237861   6.766   5.188   2.341
12639TIP3    H137862   6.798   5.262   2.290
12639TIP3    H237863   6.799   5.111   2.295
12640TIP3   OH237864   0.840   4.246   0.867
12640TIP3    H137865   0.811   4.184   0.934
12640TIP3    H237866   0.833   4.198   0.785
12641TIP3   OH237867   4.478   3.560   1.013
12641TIP3    H137868   4.413   3.608   1.065
12641TIP3    H237869   4.490   3.614   0.935
12642TIP3   OH237870   4.411   7.718   6.290
12642TIP3    H137871   4.500   7.737   6.260
12642TIP3    H237872   4.355   7.758   6.223
12643TIP3   OH237873   0.328   3.831   2.949
12643TIP3    H137874   0.326   3.926   2.939
12643TIP3    H237875   0.395   3.802   2.887
12644TIP3   OH237876   3.730   0.916   5.638
12644TIP3    H137877   3.740   0.821   5.649
12644TIP3    H237878   3.762   0.933   5.549
12645TIP3   OH237879   7.992   7.611   3.436
12645TIP3    H137880   8.076   7.631   3.478
12645TIP3    H237881   7.964   7.695   3.399
12646TIP3   OH237882   4.495   6.310   5.124
12646TIP3    H137883   4.531   6.391   5.159
12646TIP3    H237884   4.571   6.262   5.092
12647TIP3   OH237885   6.833   5.188   3.561
12647TIP3    H137886   6.865   5.100   3.579
12647TIP3    H237887   6.828   5.230   3.646
12648TIP3   OH237888   0.199   1.450   5.553
12648TIP3    H137889   0.280   1.486   5.519
12648TIP3    H237890   0.219   1.423   5.643
12649TIP3   OH237891   0.337   0.696   2.037
12649TIP3    H137892   0.310   0.709   1.946
12649TIP3    H237893   0.422   0.739   2.043
12650TIP3   OH237894   3.436   4.077   1.776
12650TIP3    H137895   3.428   4.045   1.866
12650TIP3    H237896   3.364   4.139   1.767
12651TIP3   OH237897   5.546   2.288   6.531
12651TIP3    H137898   5.641   2.278   6.538
12651TIP3    H237899   5.533   2.382   6.521
12652TIP3   OH237900   1.304   0.127   5.584
12652TIP3    H137901   1.374   0.114   5.649
12652TIP3    H237902   1.228   0.154   5.637
12653TIP3   OH237903   0.756   4.376   6.109
12653TIP3    H137904   0.719   4.462   6.090
12653TIP3    H237905   0.831   4.368   6.049
12654TIP3   OH237906   6.912   7.269   6.229
12654TIP3    H137907   6.948   7.345   6.182
12654TIP3    H237908   6.961   7.268   6.312
12655TIP3   OH237909   4.475   5.803   1.045
12655TIP3    H137910   4.407   5.835   1.104
12655TIP3    H237911   4.435   5.809   0.958
12656TIP3   OH237912   6.816   4.385   2.874
12656TIP3    H137913   6.723   4.395   2.859
12656TIP3    H237914   6.858   4.425   2.798
12657TIP3   OH237915   6.219   3.559   3.439
12657TIP3    H137916   6.227   3.629   3.374
12657TIP3    H237917   6.281   3.492   3.409
12658TIP3   OH237918   1.062   4.808   1.377
12658TIP3    H137919   1.007   4.799   1.455
12658TIP3    H237920   1.077   4.718   1.347
12659TIP3   OH237921   6.472   4.914   2.734
12659TIP3    H137922   6.499   4.936   2.823
12659TIP3    H237923   6.444   4.822   2.739
12660TIP3   OH237924   7.009   0.709   5.240
12660TIP3    H137925   7.069   0.673   5.175
12660TIP3    H237926   7.061   0.772   5.289
12661TIP3   OH237927   4.195   2.408   1.264
12661TIP3    H137928   4.199   2.356   1.184
12661TIP3    H237929   4.278   2.390   1.308
12662TIP3   OH237930   3.234   6.612   4.938
12662TIP3    H137931   3.170   6.579   4.874
12662TIP3    H237932   3.296   6.540   4.948
12663TIP3   OH237933   5.587   3.410   2.434
12663TIP3    H137934   5.623   3.498   2.444
12663TIP3    H237935   5.514   3.407   2.496
12664TIP3   OH237936   8.057   0.854   2.881
12664TIP3    H137937   8.120   0.865   2.809
12664TIP3    H237938   8.024   0.942   2.897
12665TIP3   OH237939   2.643   1.802   2.550
12665TIP3    H137940   2.718   1.786   2.492
12665TIP3    H237941   2.679   1.854   2.622
12666TIP3   OH237942   3.437   5.703   2.206
12666TIP3    H137943   3.480   5.624   2.172
12666TIP3    H237944   3.482   5.720   2.289
12667TIP3   OH237945   4.476   1.541   5.390
12667TIP3    H137946   4.408   1.474   5.378
12667TIP3    H237947   4.427   1.620   5.412
12668TIP3   OH237948   7.385   1.665   2.918
12668TIP3    H137949   7.319   1.657   2.849
12668TIP3    H237950   7.379   1.583   2.967
12669TIP3   OH237951   6.821   2.416   5.287
12669TIP3    H137952   6.834   2.439   5.378
12669TIP3    H237953   6.846   2.494   5.238
12670TIP3   OH237954   6.300   7.351   4.700
12670TIP3    H137955   6.259   7.324   4.781
12670TIP3    H237956   6.368   7.285   4.684
12671TIP3   OH237957   2.406   0.328   3.462
12671TIP3    H137958   2.421   0.264   3.532
12671TIP3    H237959   2.494   0.352   3.433
12672TIP3   OH237960   7.256   0.859   3.631
12672TIP3    H137961   7.250   0.810   3.713
12672TIP3    H237962   7.173   0.841   3.586
12673TIP3   OH237963   7.980   2.084   4.668
12673TIP3    H137964   7.897   2.064   4.711
12673TIP3    H237965   8.004   2.171   4.699
12674TIP3   OH237966   5.763   3.514   4.686
12674TIP3    H137967   5.682   3.462   4.685
12674TIP3    H237968   5.827   3.459   4.642
12675TIP3   OH237969   2.947   1.823   6.598
12675TIP3    H137970   3.017   1.805   6.661
12675TIP3    H237971   2.868   1.828   6.651
12676TIP3   OH237972   6.429   5.035   1.625
12676TIP3    H137973   6.406   5.118   1.666
12676TIP3    H237974   6.465   5.059   1.540
12677TIP3   OH237975   0.816   4.134   5.511
12677TIP3    H137976   0.798   4.179   5.594
12677TIP3    H237977   0.844   4.046   5.536
12678TIP3   OH237978   6.086   3.689   2.781
12678TIP3    H137979   6.179   3.706   2.769
12678TIP3    H237980   6.082   3.603   2.823
12679TIP3   OH237981   1.515   3.717   2.171
12679TIP3    H137982   1.496   3.791   2.114
12679TIP3    H237983   1.605   3.693   2.151
12680TIP3   OH237984   2.375   0.293   4.366
12680TIP3    H137985   2.305   0.279   4.430
12680TIP3    H237986   2.407   0.382   4.384
12681TIP3   OH237987   6.384   4.581   6.264
12681TIP3    H137988   6.446   4.614   6.200
12681TIP3    H237989   6.415   4.617   6.348
12682TIP3   OH237990   8.009   4.526   6.222
12682TIP3    H137991   7.996   4.445   6.271
12682TIP3    H237992   8.048   4.499   6.139
12683TIP3   OH237993   1.521   0.552   0.033
12683TIP3    H137994   1.553   0.469  -0.004
12683TIP3    H237995   1.438   0.567  -0.011
12684TIP3   OH237996   5.625   2.439   2.549
12684TIP3    H137997   5.615   2.463   2.457
12684TIP3    H237998   5.675   2.357   2.547
12685TIP3   OH237999   5.031   3.173   2.979
12685TIP3    H138000   5.038   3.097   2.922
12685TIP3    H238001   5.093   3.156   3.050
12686TIP3   OH238002   4.482   2.042   6.573
12686TIP3    H138003   4.429   2.103   6.625
12686TIP3    H238004   4.571   2.073   6.584
12687TIP3   OH238005   5.399   1.310   1.573
12687TIP3    H138006   5.407   1.295   1.667
12687TIP3    H238007   5.365   1.399   1.565
12688TIP3   OH238008   3.027   2.318   0.403
12688TIP3    H138009   3.021   2.380   0.475
12688TIP3    H238010   3.057   2.237   0.443
12689TIP3   OH238011   0.851   4.233   6.343
12689TIP3    H138012   0.820   4.260   6.257
12689TIP3    H238013   0.828   4.141   6.349
12690TIP3   OH238014   2.966   2.444   4.360
12690TIP3    H138015   2.934   2.426   4.449
12690TIP3    H238016   3.054   2.480   4.374
12691TIP3   OH238017   3.256   6.954   2.645
12691TIP3    H138018   3.267   6.975   2.552
12691TIP3    H238019   3.316   6.881   2.660
12692TIP3   OH238020   0.655   2.365   3.676
12692TIP3    H138021   0.690   2.299   3.616
12692TIP3    H238022   0.562   2.371   3.654
12693TIP3   OH238023   6.683   0.139   6.665
12693TIP3    H138024   6.688   0.157   6.571
12693TIP3    H238025   6.701   0.224   6.706
12694TIP3   OH238026   1.729   6.348   3.484
12694TIP3    H138027   1.726   6.285   3.412
12694TIP3    H238028   1.704   6.296   3.561
12695TIP3   OH238029   1.871   7.808   0.826
12695TIP3    H138030   1.804   7.848   0.881
12695TIP3    H238031   1.825   7.782   0.746
12696TIP3   OH238032   0.185   0.966   4.667
12696TIP3    H138033   0.241   1.040   4.688
12696TIP3    H238034   0.142   0.990   4.585
12697TIP3   OH238035   5.234   2.106   3.177
12697TIP3    H138036   5.188   2.029   3.143
12697TIP3    H238037   5.196   2.120   3.264
12698TIP3   OH238038   8.063   6.798   2.684
12698TIP3    H138039   8.057   6.703   2.693
12698TIP3    H238040   8.019   6.817   2.600
12699TIP3   OH238041   7.471   4.614   4.038
12699TIP3    H138042   7.530   4.688   4.047
12699TIP3    H238043   7.385   4.649   4.059
12700TIP3   OH238044   7.464   5.083   0.786
12700TIP3    H138045   7.536   5.051   0.732
12700TIP3    H238046   7.405   5.126   0.725
12701TIP3   OH238047   2.850   7.618   2.736
12701TIP3    H138048   2.775   7.578   2.692
12701TIP3    H238049   2.812   7.684   2.793
12702TIP3   OH238050   1.738   3.667   1.197
12702TIP3    H138051   1.750   3.704   1.285
12702TIP3    H238052   1.646   3.641   1.195
12703TIP3   OH238053   8.267   5.070   4.088
12703TIP3    H138054   8.262   5.160   4.055
12703TIP3    H238055   8.350   5.037   4.053
12704TIP3   OH238056   3.672   4.187   2.494
12704TIP3    H138057   3.609   4.162   2.561
12704TIP3    H238058   3.745   4.226   2.543
12705TIP3   OH238059   0.780   5.722   1.075
12705TIP3    H138060   0.830   5.661   1.129
12705TIP3    H238061   0.700   5.738   1.125
12706TIP3   OH238062   0.951   5.369   2.921
12706TIP3    H138063   0.879   5.352   2.982
12706TIP3    H238064   0.937   5.459   2.893
12707TIP3   OH238065   2.847   3.728   4.708
12707TIP3    H138066   2.828   3.657   4.647
12707TIP3    H238067   2.938   3.716   4.733
12708TIP3   OH238068   7.658   3.544   0.592
12708TIP3    H138069   7.740   3.553   0.544
12708TIP3    H238070   7.618   3.631   0.589
12709TIP3   OH238071   2.144   5.096   5.290
12709TIP3    H138072   2.182   5.172   5.247
12709TIP3    H238073   2.134   5.031   5.220
12710TIP3   OH238074   3.450   3.257   5.977
12710TIP3    H138075   3.395   3.243   5.900
12710TIP3    H238076   3.388   3.263   6.050
12711TIP3   OH238077   7.070   4.514   0.767
12711TIP3    H138078   7.020   4.595   0.759
12711TIP3    H238079   7.026   4.453   0.708
12712TIP3   OH238080   2.176   3.886   1.654
12712TIP3    H138081   2.182   3.797   1.688
12712TIP3    H238082   2.182   3.942   1.732
12713TIP3   OH238083   4.469   0.838   3.994
12713TIP3    H138084   4.538   0.772   3.990
12713TIP3    H238085   4.407   0.803   4.058
12714TIP3   OH238086   5.507   4.814   1.021
12714TIP3    H138087   5.486   4.808   1.114
12714TIP3    H238088   5.566   4.740   1.004
12715TIP3   OH238089   0.236   3.450   5.419
12715TIP3    H138090   0.226   3.359   5.448
12715TIP3    H238091   0.329   3.468   5.431
12716TIP3   OH238092   2.468   3.404   0.952
12716TIP3    H138093   2.560   3.432   0.957
12716TIP3    H238094   2.427   3.469   0.896
12717TIP3   OH238095   5.086   7.039   1.451
12717TIP3    H138096   5.022   6.969   1.433
12717TIP3    H238097   5.032   7.116   1.469
12718TIP3   OH238098   3.065   4.719   4.094
12718TIP3    H138099   3.074   4.696   4.186
12718TIP3    H238100   3.003   4.656   4.059
12719TIP3   OH238101   5.889   7.343   5.239
12719TIP3    H138102   5.837   7.269   5.271
12719TIP3    H238103   5.968   7.302   5.201
12720TIP3   OH238104   0.550   6.013   6.154
12720TIP3    H138105   0.591   6.088   6.110
12720TIP3    H238106   0.571   6.025   6.246
12721TIP3   OH238107   3.338   3.962   5.469
12721TIP3    H138108   3.430   3.937   5.477
12721TIP3    H238109   3.323   3.969   5.375
12722TIP3   OH238110   6.683   3.183   1.734
12722TIP3    H138111   6.642   3.117   1.789
12722TIP3    H238112   6.723   3.244   1.796
12723TIP3   OH238113   4.798   0.924   6.401
12723TIP3    H138114   4.793   1.018   6.384
12723TIP3    H238115   4.823   0.917   6.493
12724TIP3   OH238116   3.780   0.996   0.635
12724TIP3    H138117   3.747   1.016   0.548
12724TIP3    H238118   3.715   1.032   0.695
12725TIP3   OH238119   7.407   6.249   5.642
12725TIP3    H138120   7.448   6.304   5.576
12725TIP3    H238121   7.443   6.162   5.627
12726TIP3   OH238122   7.123   1.163   3.550
12726TIP3    H138123   7.143   1.235   3.490
12726TIP3    H238124   7.149   1.084   3.502
12727TIP3   OH238125   0.573   7.117   2.078
12727TIP3    H138126   0.493   7.063   2.075
12727TIP3    H238127   0.541   7.207   2.073
12728TIP3   OH238128   7.564   5.254   0.534
12728TIP3    H138129   7.488   5.273   0.478
12728TIP3    H238130   7.580   5.336   0.581
12729TIP3   OH238131   5.380   5.470   3.956
12729TIP3    H138132   5.316   5.510   3.898
12729TIP3    H238133   5.332   5.453   4.037
12730TIP3   OH238134   3.166   6.266   0.329
12730TIP3    H138135   3.170   6.182   0.374
12730TIP3    H238136   3.141   6.244   0.239
12731TIP3   OH238137   7.924   2.608   2.922
12731TIP3    H138138   7.933   2.558   3.002
12731TIP3    H238139   8.007   2.656   2.913
12732TIP3   OH238140   7.182   5.570   0.846
12732TIP3    H138141   7.158   5.625   0.921
12732TIP3    H238142   7.213   5.488   0.885
12733TIP3   OH238143   7.880   7.436   0.206
12733TIP3    H138144   7.788   7.463   0.211
12733TIP3    H238145   7.929   7.518   0.212
12734TIP3   OH238146   2.932   0.530   1.470
12734TIP3    H138147   2.897   0.543   1.382
12734TIP3    H238148   3.021   0.497   1.456
12735TIP3   OH238149   3.909   4.183   4.899
12735TIP3    H138150   3.926   4.103   4.849
12735TIP3    H238151   3.995   4.210   4.931
12736TIP3   OH238152   0.901   3.158   2.353
12736TIP3    H138153   0.809   3.136   2.363
12736TIP3    H238154   0.943   3.076   2.328
12737TIP3   OH238155   6.283   3.178   0.375
12737TIP3    H138156   6.228   3.254   0.356
12737TIP3    H238157   6.340   3.170   0.298
12738TIP3   OH238158   6.548   6.403   4.436
12738TIP3    H138159   6.552   6.327   4.494
12738TIP3    H238160   6.457   6.406   4.407
12739TIP3   OH238161   1.662   0.901   4.378
12739TIP3    H138162   1.635   0.988   4.405
12739TIP3    H238163   1.587   0.865   4.331
12740TIP3   OH238164   6.005   3.991   3.512
12740TIP3    H138165   6.005   4.056   3.442
12740TIP3    H238166   6.095   3.991   3.545
12741TIP3   OH238167   8.285   0.043   0.772
12741TIP3    H138168   8.367   0.032   0.724
12741TIP3    H238169   8.271   0.137   0.775
12742TIP3   OH238170   4.850   0.473   4.739
12742TIP3    H138171   4.780   0.422   4.699
12742TIP3    H238172   4.929   0.449   4.690
12743TIP3   OH238173   7.869   1.254   6.620
12743TIP3    H138174   7.851   1.167   6.586
12743TIP3    H238175   7.958   1.273   6.591
12744TIP3   OH238176   2.331   6.141   4.215
12744TIP3    H138177   2.256   6.083   4.224
12744TIP3    H238178   2.361   6.156   4.305
12745TIP3   OH238179   4.936   4.988   0.883
12745TIP3    H138180   4.958   4.894   0.882
12745TIP3    H238181   4.876   4.999   0.810
12746TIP3   OH238182   3.522   7.784   2.201
12746TIP3    H138183   3.461   7.779   2.127
12746TIP3    H238184   3.489   7.858   2.253
12747TIP3   OH238185   2.042   2.870   0.846
12747TIP3    H138186   2.133   2.868   0.815
12747TIP3    H238187   2.039   2.944   0.906
12748TIP3   OH238188   6.893   5.102   2.922
12748TIP3    H138189   6.955   5.174   2.915
12748TIP3    H238190   6.940   5.025   2.890
12749TIP3   OH238191   6.337   2.768   5.338
12749TIP3    H138192   6.424   2.788   5.372
12749TIP3    H238193   6.323   2.676   5.359
12750TIP3   OH238194   3.440   4.422   3.643
12750TIP3    H138195   3.514   4.362   3.643
12750TIP3    H238196   3.467   4.494   3.700
12751TIP3   OH238197   5.674   2.154   5.795
12751TIP3    H138198   5.763   2.145   5.759
12751TIP3    H238199   5.653   2.066   5.827
12752TIP3   OH238200   0.056   3.123   3.944
12752TIP3    H138201   0.090   3.199   3.991
12752TIP3    H238202  -0.032   3.149   3.918
12753TIP3   OH238203   3.201   6.877   4.574
12753TIP3    H138204   3.109   6.888   4.549
12753TIP3    H238205   3.219   6.784   4.558
12754TIP3   OH238206   3.513   3.652   3.054
12754TIP3    H138207   3.472   3.569   3.080
12754TIP3    H238208   3.597   3.626   3.018
12755TIP3   OH238209   4.188   6.274   4.359
12755TIP3    H138210   4.185   6.280   4.455
12755TIP3    H238211   4.110   6.225   4.335
12756TIP3   OH238212   4.144   4.197   0.614
12756TIP3    H138213   4.132   4.289   0.635
12756TIP3    H238214   4.055   4.164   0.600
12757TIP3   OH238215   7.013   7.781   1.411
12757TIP3    H138216   6.929   7.750   1.376
12757TIP3    H238217   7.075   7.766   1.340
12758TIP3   OH238218   1.359   1.331   5.866
12758TIP3    H138219   1.413   1.285   5.803
12758TIP3    H238220   1.420   1.359   5.934
12759TIP3   OH238221   2.118   3.183   1.756
12759TIP3    H138222   2.127   3.115   1.689
12759TIP3    H238223   2.122   3.136   1.839
12760TIP3   OH238224   3.812   0.181   4.912
12760TIP3    H138225   3.738   0.124   4.892
12760TIP3    H238226   3.771   0.264   4.940
12761TIP3   OH238227   5.747   1.554   6.129
12761TIP3    H138228   5.753   1.551   6.034
12761TIP3    H238229   5.698   1.634   6.148
12762TIP3   OH238230   1.068   1.489   2.213
12762TIP3    H138231   0.996   1.428   2.230
12762TIP3    H238232   1.091   1.523   2.300
12763TIP3   OH238233   6.688   6.010   4.460
12763TIP3    H138234   6.657   6.044   4.544
12763TIP3    H238235   6.730   5.926   4.482
12764TIP3   OH238236   6.525   7.260   1.419
12764TIP3    H138237   6.470   7.197   1.466
12764TIP3    H238238   6.518   7.234   1.327
12765TIP3   OH238239   0.074   0.551   5.990
12765TIP3    H138240   0.158   0.593   6.007
12765TIP3    H238241   0.075   0.472   6.044
12766TIP3   OH238242   5.477   5.723   6.349
12766TIP3    H138243   5.461   5.817   6.340
12766TIP3    H238244   5.483   5.691   6.259
12767TIP3   OH238245   8.210   0.074   2.078
12767TIP3    H138246   8.214   0.000   2.017
12767TIP3    H238247   8.118   0.082   2.101
12768TIP3   OH238248   4.645   6.102   0.171
12768TIP3    H138249   4.597   6.179   0.141
12768TIP3    H238250   4.622   6.093   0.264
12769TIP3   OH238251   5.595   6.259   5.713
12769TIP3    H138252   5.661   6.213   5.661
12769TIP3    H238253   5.633   6.346   5.726
12770TIP3   OH238254   4.812   4.602   3.269
12770TIP3    H138255   4.864   4.525   3.291
12770TIP3    H238256   4.825   4.614   3.175
12771TIP3   OH238257   6.173   7.195   4.169
12771TIP3    H138258   6.078   7.183   4.177
12771TIP3    H238259   6.183   7.250   4.091
12772TIP3   OH238260   4.197   0.403   1.226
12772TIP3    H138261   4.234   0.488   1.201
12772TIP3    H238262   4.127   0.388   1.162
12773TIP3   OH238263   7.654   3.495   4.407
12773TIP3    H138264   7.740   3.535   4.417
12773TIP3    H238265   7.604   3.557   4.353
12774TIP3   OH238266   4.948   3.387   1.037
12774TIP3    H138267   5.015   3.382   0.969
12774TIP3    H238268   4.992   3.361   1.117
12775TIP3   OH238269   7.251   7.595   0.682
12775TIP3    H138270   7.318   7.660   0.706
12775TIP3    H238271   7.168   7.638   0.702
12776TIP3   OH238272   4.882   1.955   4.011
12776TIP3    H138273   4.790   1.976   3.996
12776TIP3    H238274   4.886   1.859   4.003
12777TIP3   OH238275   3.233   5.890   4.659
12777TIP3    H138276   3.187   5.892   4.743
12777TIP3    H238277   3.276   5.976   4.653
12778TIP3   OH238278   6.469   5.774   5.902
12778TIP3    H138279   6.509   5.737   5.824
12778TIP3    H238280   6.469   5.703   5.966
12779TIP3   OH238281   4.438   2.016   3.092
12779TIP3    H138282   4.384   1.971   3.027
12779TIP3    H238283   4.402   1.989   3.177
12780TIP3   OH238284   2.489   4.065   6.106
12780TIP3    H138285   2.419   4.000   6.113
12780TIP3    H238286   2.453   4.132   6.048
12781TIP3   OH238287   6.321   3.222   3.129
12781TIP3    H138288   6.249   3.241   3.190
12781TIP3    H238289   6.393   3.196   3.186
12782TIP3   OH238290   2.574   7.413   0.566
12782TIP3    H138291   2.591   7.496   0.610
12782TIP3    H238292   2.600   7.428   0.475
12783TIP3   OH238293   1.930   4.666   6.701
12783TIP3    H138294   2.010   4.677   6.650
12783TIP3    H238295   1.861   4.702   6.646
12784TIP3   OH238296   4.667   5.330   5.404
12784TIP3    H138297   4.619   5.299   5.481
12784TIP3    H238298   4.640   5.271   5.334
12785TIP3   OH238299   4.258   5.752   3.497
12785TIP3    H138300   4.256   5.734   3.403
12785TIP3    H238301   4.266   5.666   3.538
12786TIP3   OH238302   7.702   1.218   1.483
12786TIP3    H138303   7.626   1.180   1.439
12786TIP3    H238304   7.724   1.295   1.430
12787TIP3   OH238305   0.709   4.019   0.371
12787TIP3    H138306   0.735   4.054   0.456
12787TIP3    H238307   0.709   4.095   0.313
12788TIP3   OH238308   0.917   4.679   1.565
12788TIP3    H138309   0.840   4.725   1.531
12788TIP3    H238310   0.884   4.591   1.587
12789TIP3   OH238311   5.347   2.121   4.127
12789TIP3    H138312   5.293   2.042   4.131
12789TIP3    H238313   5.414   2.101   4.062
12790TIP3   OH238314   6.759   2.543   4.601
12790TIP3    H138315   6.816   2.620   4.606
12790TIP3    H238316   6.715   2.541   4.686
12791TIP3   OH238317   1.690   3.679   5.973
12791TIP3    H138318   1.646   3.733   6.039
12791TIP3    H238319   1.631   3.679   5.898
12792TIP3   OH238320   5.143   3.506   3.428
12792TIP3    H138321   5.232   3.518   3.460
12792TIP3    H238322   5.089   3.563   3.484
12793TIP3   OH238323   8.103   3.077   1.796
12793TIP3    H138324   8.108   3.155   1.742
12793TIP3    H238325   8.059   3.106   1.877
12794TIP3   OH238326   6.895   1.064   6.303
12794TIP3    H138327   6.871   0.989   6.249
12794TIP3    H238328   6.839   1.135   6.270
12795TIP3   OH238329   3.988   3.160   5.876
12795TIP3    H138330   3.961   3.236   5.823
12795TIP3    H238331   4.081   3.175   5.894
12796TIP3   OH238332   2.693   2.970   6.254
12796TIP3    H138333   2.611   2.927   6.231
12796TIP3    H238334   2.747   2.901   6.293
12797TIP3   OH238335   6.240   4.099   3.411
12797TIP3    H138336   6.314   4.113   3.470
12797TIP3    H238337   6.278   4.111   3.323
12798TIP3   OH238338   1.980   7.195   4.030
12798TIP3    H138339   2.024   7.125   3.983
12798TIP3    H238340   1.912   7.226   3.970
12799TIP3   OH238341   6.925   2.967   6.715
12799TIP3    H138342   6.952   3.025   6.786
12799TIP3    H238343   7.007   2.928   6.684
12800TIP3   OH238344   2.529   3.061   4.670
12800TIP3    H138345   2.508   2.982   4.721
12800TIP3    H238346   2.446   3.108   4.664
12801TIP3   OH238347   2.390   4.811   5.393
12801TIP3    H138348   2.295   4.805   5.380
12801TIP3    H238349   2.420   4.721   5.386
12802TIP3   OH238350   4.597   4.798   4.145
12802TIP3    H138351   4.610   4.704   4.158
12802TIP3    H238352   4.603   4.810   4.050
12803TIP3   OH238353   5.477   5.567   3.099
12803TIP3    H138354   5.514   5.646   3.060
12803TIP3    H238355   5.474   5.586   3.193
12804TIP3   OH238356   0.555   2.038   4.051
12804TIP3    H138357   0.536   1.950   4.018
12804TIP3    H238358   0.469   2.073   4.075
12805TIP3   OH238359   7.612   2.173   3.539
12805TIP3    H138360   7.708   2.172   3.535
12805TIP3    H238361   7.584   2.137   3.455
12806TIP3   OH238362   4.926   5.131   0.220
12806TIP3    H138363   4.941   5.049   0.173
12806TIP3    H238364   5.008   5.149   0.265
12807TIP3   OH238365   4.483   7.244   4.949
12807TIP3    H138366   4.477   7.325   4.899
12807TIP3    H238367   4.433   7.261   5.029
12808TIP3   OH238368   3.671   4.618   3.526
12808TIP3    H138369   3.734   4.553   3.557
12808TIP3    H238370   3.611   4.630   3.600
12809TIP3   OH238371   7.507   4.718   3.099
12809TIP3    H138372   7.445   4.682   3.036
12809TIP3    H238373   7.453   4.766   3.161
12810TIP3   OH238374   6.340   5.242   0.425
12810TIP3    H138375   6.346   5.173   0.491
12810TIP3    H238376   6.246   5.259   0.417
12811TIP3   OH238377   7.538   2.174   0.450
12811TIP3    H138378   7.603   2.122   0.498
12811TIP3    H238379   7.455   2.129   0.465
12812TIP3   OH238380   4.198   5.063   3.671
12812TIP3    H138381   4.272   5.005   3.653
12812TIP3    H238382   4.156   5.023   3.747
12813TIP3   OH238383   5.208   3.538   6.132
12813TIP3    H138384   5.136   3.475   6.128
12813TIP3    H238385   5.177   3.614   6.082
12814TIP3   OH238386   0.231   4.609   5.316
12814TIP3    H138387   0.193   4.556   5.387
12814TIP3    H238388   0.158   4.621   5.254
12815TIP3   OH238389   1.007   5.991   3.035
12815TIP3    H138390   0.947   6.015   3.106
12815TIP3    H238391   1.007   5.896   3.034
12816TIP3   OH238392   7.748   2.206   5.199
12816TIP3    H138393   7.770   2.115   5.218
12816TIP3    H238394   7.786   2.256   5.271
12817TIP3   OH238395   5.515   1.121   3.522
12817TIP3    H138396   5.496   1.209   3.552
12817TIP3    H238397   5.442   1.068   3.555
12818TIP3   OH238398   0.986   3.171   6.236
12818TIP3    H138399   1.036   3.231   6.180
12818TIP3    H238400   0.909   3.148   6.185
12819TIP3   OH238401   1.178   6.685   1.790
12819TIP3    H138402   1.121   6.673   1.867
12819TIP3    H238403   1.120   6.675   1.715
12820TIP3   OH238404   6.743   1.506   5.151
12820TIP3    H138405   6.778   1.593   5.170
12820TIP3    H238406   6.657   1.522   5.112
12821TIP3   OH238407   2.148   5.171   2.078
12821TIP3    H138408   2.131   5.179   1.985
12821TIP3    H238409   2.230   5.217   2.092
12822TIP3   OH238410   5.936   5.147   4.216
12822TIP3    H138411   5.912   5.144   4.123
12822TIP3    H238412   5.854   5.133   4.263
12823TIP3   OH238413   2.704   2.695   5.038
12823TIP3    H138414   2.656   2.775   5.061
12823TIP3    H238415   2.794   2.724   5.027
12824TIP3   OH238416   4.853   6.402   5.209
12824TIP3    H138417   4.824   6.325   5.160
12824TIP3    H238418   4.773   6.449   5.232
12825TIP3   OH238419   6.054   6.042   6.426
12825TIP3    H138420   6.112   5.979   6.469
12825TIP3    H238421   5.966   6.006   6.437
12826TIP3   OH238422   0.181   7.754   1.374
12826TIP3    H138423   0.175   7.848   1.358
12826TIP3    H238424   0.119   7.714   1.313
12827TIP3   OH238425   5.739   1.556   0.463
12827TIP3    H138426   5.717   1.632   0.516
12827TIP3    H238427   5.834   1.547   0.471
12828TIP3   OH238428   3.394   3.048   2.755
12828TIP3    H138429   3.373   3.134   2.717
12828TIP3    H238430   3.488   3.038   2.741
12829TIP3   OH238431   7.351   3.065   6.224
12829TIP3    H138432   7.435   3.109   6.237
12829TIP3    H238433   7.370   2.972   6.238
12830TIP3   OH238434   2.575   3.085   2.351
12830TIP3    H138435   2.671   3.080   2.352
12830TIP3    H238436   2.555   3.178   2.360
12831TIP3   OH238437   6.853   7.146   1.272
12831TIP3    H138438   6.887   7.061   1.244
12831TIP3    H238439   6.766   7.128   1.307
12832TIP3   OH238440   7.299   4.206   4.395
12832TIP3    H138441   7.347   4.125   4.381
12832TIP3    H238442   7.321   4.260   4.319
12833TIP3   OH238443   7.841   0.210   0.141
12833TIP3    H138444   7.866   0.159   0.064
12833TIP3    H238445   7.750   0.188   0.156
12834TIP3   OH238446   0.188   2.054   5.193
12834TIP3    H138447   0.262   2.058   5.133
12834TIP3    H238448   0.141   1.974   5.168
12835TIP3   OH238449   4.265   3.713   2.940
12835TIP3    H138450   4.225   3.653   3.003
12835TIP3    H238451   4.220   3.796   2.954
12836TIP3   OH238452   4.739   6.451   1.449
12836TIP3    H138453   4.718   6.363   1.481
12836TIP3    H238454   4.828   6.467   1.479
12837TIP3   OH238455   1.513   5.693   6.549
12837TIP3    H138456   1.575   5.627   6.518
12837TIP3    H238457   1.516   5.762   6.483
12838TIP3   OH238458   2.319   5.699   0.477
12838TIP3    H138459   2.344   5.773   0.421
12838TIP3    H238460   2.353   5.622   0.432
12839TIP3   OH238461   6.057   7.522   0.607
12839TIP3    H138462   6.109   7.590   0.650
12839TIP3    H238463   6.034   7.462   0.677
12840TIP3   OH238464   7.395   4.734   0.689
12840TIP3    H138465   7.392   4.749   0.594
12840TIP3    H238466   7.347   4.808   0.726
12841TIP3   OH238467   0.733   1.521   1.653
12841TIP3    H138468   0.823   1.552   1.643
12841TIP3    H238469   0.714   1.477   1.571
12842TIP3   OH238470   0.478   1.986   6.245
12842TIP3    H138471   0.446   1.943   6.166
12842TIP3    H238472   0.571   2.000   6.229
12843TIP3   OH238473   5.720   2.892   3.640
12843TIP3    H138474   5.808   2.924   3.660
12843TIP3    H238475   5.674   2.892   3.724
12844TIP3   OH238476   1.734   0.767   3.188
12844TIP3    H138477   1.644   0.754   3.216
12844TIP3    H238478   1.751   0.696   3.126
12845TIP3   OH238479   2.084   1.171   5.779
12845TIP3    H138480   2.127   1.088   5.800
12845TIP3    H238481   2.065   1.167   5.686
12846TIP3   OH238482   7.283   0.329   4.436
12846TIP3    H138483   7.375   0.308   4.456
12846TIP3    H238484   7.252   0.252   4.387
12847TIP3   OH238485   0.676   3.911   3.716
12847TIP3    H138486   0.629   3.850   3.660
12847TIP3    H238487   0.665   3.876   3.804
12848TIP3   OH238488   8.134   2.787   2.885
12848TIP3    H138489   8.146   2.859   2.947
12848TIP3    H238490   8.216   2.785   2.835
12849TIP3   OH238491   7.065   6.860   4.566
12849TIP3    H138492   7.109   6.942   4.545
12849TIP3    H238493   7.034   6.872   4.656
12850TIP3   OH238494   4.354   7.334   5.946
12850TIP3    H138495   4.299   7.407   5.974
12850TIP3    H238496   4.358   7.341   5.851
12851TIP3   OH238497   0.431   0.218   4.525
12851TIP3    H138498   0.430   0.311   4.546
12851TIP3    H238499   0.506   0.184   4.573
12852TIP3   OH238500   7.434   0.740   6.142
12852TIP3    H138501   7.352   0.694   6.162
12852TIP3    H238502   7.485   0.678   6.090
12853TIP3   OH238503   1.071   1.661   3.715
12853TIP3    H138504   1.126   1.718   3.768
12853TIP3    H238505   1.005   1.719   3.677
12854TIP3   OH238506   2.628   2.461   3.492
12854TIP3    H138507   2.570   2.537   3.500
12854TIP3    H238508   2.715   2.494   3.514
12855TIP3   OH238509   7.514   3.910   0.019
12855TIP3    H138510   7.498   3.826  -0.024
12855TIP3    H238511   7.429   3.954   0.018
12856TIP3   OH238512   1.023   2.347   6.508
12856TIP3    H138513   0.973   2.411   6.560
12856TIP3    H238514   1.021   2.381   6.419
12857TIP3   OH238515   1.402   5.451   2.627
12857TIP3    H138516   1.314   5.429   2.656
12857TIP3    H238517   1.459   5.388   2.671
12858TIP3   OH238518   4.890   5.902   2.882
12858TIP3    H138519   4.943   5.936   2.954
12858TIP3    H238520   4.830   5.840   2.924
12859TIP3   OH238521   6.234   2.591   0.901
12859TIP3    H138522   6.254   2.506   0.863
12859TIP3    H238523   6.235   2.652   0.827
12860TIP3   OH238524   1.934   5.671   5.019
12860TIP3    H138525   1.839   5.663   5.015
12860TIP3    H238526   1.959   5.702   4.932
12861TIP3   OH238527   1.633   5.528   5.532
12861TIP3    H138528   1.556   5.563   5.487
12861TIP3    H238529   1.697   5.599   5.530
12862TIP3   OH238530   6.169   2.279   3.055
12862TIP3    H138531   6.116   2.343   3.008
12862TIP3    H238532   6.160   2.199   3.004
12863TIP3   OH238533   8.178   1.551   2.218
12863TIP3    H138534   8.259   1.601   2.233
12863TIP3    H238535   8.201   1.461   2.243
12864TIP3   OH238536   4.515   0.674   2.934
12864TIP3    H138537   4.543   0.608   2.997
12864TIP3    H238538   4.580   0.670   2.864
12865TIP3   OH238539   0.728   2.061   6.192
12865TIP3    H138540   0.811   2.079   6.148
12865TIP3    H238541   0.726   2.121   6.266
12866TIP3   OH238542   1.012   1.272   6.680
12866TIP3    H138543   0.964   1.314   6.752
12866TIP3    H238544   1.097   1.251   6.719
12867TIP3   OH238545   4.113   6.652   2.038
12867TIP3    H138546   4.132   6.617   2.126
12867TIP3    H238547   4.166   6.732   2.033
12868TIP3   OH238548   2.615   0.712   6.108
12868TIP3    H138549   2.598   0.792   6.058
12868TIP3    H238550   2.555   0.648   6.072
12869TIP3   OH238551   6.235   6.308   3.200
12869TIP3    H138552   6.144   6.303   3.229
12869TIP3    H238553   6.234   6.266   3.114
12870TIP3   OH238554   3.204   0.253   3.043
12870TIP3    H138555   3.236   0.332   3.086
12870TIP3    H238556   3.158   0.206   3.112
12871TIP3   OH238557   0.646   1.690   3.148
12871TIP3    H138558   0.671   1.620   3.088
12871TIP3    H238559   0.611   1.644   3.225
12872TIP3   OH238560   6.421   2.488   4.522
12872TIP3    H138561   6.429   2.457   4.432
12872TIP3    H238562   6.441   2.411   4.575
12873TIP3   OH238563   3.828   0.859   2.407
12873TIP3    H138564   3.923   0.865   2.410
12873TIP3    H238565   3.806   0.793   2.473
12874TIP3   OH238566   2.660   2.134   3.197
12874TIP3    H138567   2.610   2.187   3.259
12874TIP3    H238568   2.681   2.054   3.246
12875TIP3   OH238569   3.271   2.045   3.292
12875TIP3    H138570   3.239   2.048   3.382
12875TIP3    H238571   3.344   1.984   3.294
12876TIP3   OH238572   4.978   1.986   0.513
12876TIP3    H138573   4.916   1.914   0.530
12876TIP3    H238574   5.028   1.957   0.437
12877TIP3   OH238575   6.632   7.391   1.903
12877TIP3    H138576   6.668   7.433   1.981
12877TIP3    H238577   6.598   7.464   1.850
12878TIP3   OH238578   5.778   7.159   1.653
12878TIP3    H138579   5.859   7.142   1.605
12878TIP3    H238580   5.718   7.090   1.623
12879TIP3   OH238581   1.961   6.866   2.085
12879TIP3    H138582   2.042   6.901   2.122
12879TIP3    H238583   1.907   6.943   2.068
12880TIP3   OH238584   6.428   4.244   6.495
12880TIP3    H138585   6.447   4.272   6.585
12880TIP3    H238586   6.513   4.221   6.459
12881TIP3   OH238587   7.005   2.362   2.719
12881TIP3    H138588   7.064   2.432   2.691
12881TIP3    H238589   6.934   2.408   2.765
12882TIP3   OH238590   6.921   3.460   1.453
12882TIP3    H138591   6.841   3.435   1.407
12882TIP3    H238592   6.893   3.473   1.544
12883TIP3   OH238593   0.523   1.591   6.191
12883TIP3    H138594   0.468   1.605   6.268
12883TIP3    H238595   0.587   1.526   6.219
12884TIP3   OH238596   7.703   3.146   0.654
12884TIP3    H138597   7.783   3.198   0.667
12884TIP3    H238598   7.726   3.059   0.688
12885TIP3   OH238599   6.662   6.573   5.436
12885TIP3    H138600   6.617   6.658   5.440
12885TIP3    H238601   6.755   6.596   5.438
12886TIP3   OH238602   7.487   2.953   3.444
12886TIP3    H138603   7.570   2.970   3.488
12886TIP3    H238604   7.434   3.031   3.459
12887TIP3   OH238605   0.041   0.054   4.024
12887TIP3    H138606   0.013   0.003   3.948
12887TIP3    H238607   0.114   0.107   3.992
12888TIP3   OH238608   7.530   6.232   2.899
12888TIP3    H138609   7.508   6.205   2.810
12888TIP3    H238610   7.557   6.323   2.891
12889TIP3   OH238611   3.214   1.007   3.725
12889TIP3    H138612   3.227   1.050   3.809
12889TIP3    H238613   3.120   0.994   3.718
12890TIP3   OH238614   6.477   1.327   1.734
12890TIP3    H138615   6.477   1.242   1.691
12890TIP3    H238616   6.500   1.309   1.825
12891TIP3   OH238617   1.331   1.188   2.311
12891TIP3    H138618   1.248   1.232   2.329
12891TIP3    H238619   1.380   1.197   2.393
12892TIP3   OH238620   7.526   7.347   2.780
12892TIP3    H138621   7.446   7.302   2.751
12892TIP3    H238622   7.593   7.278   2.780
12893TIP3   OH238623   1.250   7.508   3.381
12893TIP3    H138624   1.303   7.527   3.303
12893TIP3    H238625   1.310   7.522   3.454
12894TIP3   OH238626   6.146   3.407   4.446
12894TIP3    H138627   6.202   3.450   4.382
12894TIP3    H238628   6.206   3.358   4.502
12895TIP3   OH238629   1.273   0.391   1.547
12895TIP3    H138630   1.229   0.309   1.570
12895TIP3    H238631   1.316   0.371   1.463
12896TIP3   OH238632   5.484   3.816   6.488
12896TIP3    H138633   5.445   3.805   6.402
12896TIP3    H238634   5.456   3.739   6.538
12897TIP3   OH238635   4.736   7.101   4.212
12897TIP3    H138636   4.683   7.157   4.155
12897TIP3    H238637   4.717   7.012   4.182
12898TIP3   OH238638   4.547   5.613   3.272
12898TIP3    H138639   4.589   5.652   3.349
12898TIP3    H238640   4.560   5.519   3.283
12899TIP3   OH238641   4.097   6.276   0.758
12899TIP3    H138642   4.146   6.205   0.717
12899TIP3    H238643   4.160   6.319   0.815
12900TIP3   OH238644   5.439   6.730   4.479
12900TIP3    H138645   5.442   6.708   4.572
12900TIP3    H238646   5.349   6.713   4.452
12901TIP3   OH238647   7.622   2.535   3.823
12901TIP3    H138648   7.717   2.533   3.814
12901TIP3    H238649   7.602   2.627   3.842
12902TIP3   OH238650   3.041   1.246   2.564
12902TIP3    H138651   3.124   1.203   2.545
12902TIP3    H238652   3.015   1.211   2.649
12903TIP3   OH238653   0.938   2.757   5.788
12903TIP3    H138654   0.943   2.829   5.851
12903TIP3    H238655   0.872   2.786   5.724
12904TIP3   OH238656   0.563   7.762   5.430
12904TIP3    H138657   0.580   7.791   5.519
12904TIP3    H238658   0.650   7.752   5.391
12905TIP3   OH238659   6.775   0.661   2.407
12905TIP3    H138660   6.842   0.688   2.345
12905TIP3    H238661   6.813   0.586   2.453
12906TIP3   OH238662   7.722   7.098   4.745
12906TIP3    H138663   7.708   7.176   4.691
12906TIP3    H238664   7.775   7.129   4.818
12907TIP3   OH238665   1.133   0.911   1.853
12907TIP3    H138666   1.047   0.880   1.825
12907TIP3    H238667   1.192   0.838   1.835
12908TIP3   OH238668   2.745   5.601   3.557
12908TIP3    H138669   2.778   5.660   3.625
12908TIP3    H238670   2.688   5.540   3.603
12909TIP3   OH238671   3.099   0.830   1.228
12909TIP3    H138672   3.019   0.881   1.217
12909TIP3    H238673   3.145   0.838   1.144
12910TIP3   OH238674   0.738   7.227   5.849
12910TIP3    H138675   0.745   7.246   5.755
12910TIP3    H238676   0.781   7.300   5.892
12911TIP3   OH238677   6.958   3.134   5.992
12911TIP3    H138678   6.930   3.123   5.901
12911TIP3    H238679   6.884   3.104   6.044
12912TIP3   OH238680   7.175   5.068   0.373
12912TIP3    H138681   7.114   5.031   0.309
12912TIP3    H238682   7.176   5.005   0.445
12913TIP3   OH238683   3.382   2.242   1.697
12913TIP3    H138684   3.355   2.285   1.778
12913TIP3    H238685   3.478   2.241   1.701
12914TIP3   OH238686   6.536   3.310   3.796
12914TIP3    H138687   6.512   3.283   3.885
12914TIP3    H238688   6.565   3.401   3.805
12915TIP3   OH238689   0.230   0.759   1.782
12915TIP3    H138690   0.252   0.822   1.713
12915TIP3    H238691   0.278   0.680   1.758
12916TIP3   OH238692   7.655   7.751   5.026
12916TIP3    H138693   7.689   7.821   4.969
12916TIP3    H238694   7.728   7.691   5.036
12917TIP3   OH238695   3.122   4.766   3.801
12917TIP3    H138696   3.087   4.723   3.879
12917TIP3    H238697   3.217   4.761   3.812
12918TIP3   OH238698   5.924   3.201   3.395
12918TIP3    H138699   5.834   3.179   3.371
12918TIP3    H238700   5.916   3.279   3.450
12919TIP3   OH238701   1.371   1.683   3.782
12919TIP3    H138702   1.446   1.715   3.833
12919TIP3    H238703   1.326   1.762   3.753
12920TIP3   OH238704   7.828   2.649   0.950
12920TIP3    H138705   7.818   2.743   0.962
12920TIP3    H238706   7.738   2.616   0.943
12921TIP3   OH238707   5.205   5.479   2.683
12921TIP3    H138708   5.138   5.417   2.656
12921TIP3    H238709   5.218   5.463   2.776
12922TIP3   OH238710   1.751   0.907   5.414
12922TIP3    H138711   1.846   0.903   5.426
12922TIP3    H238712   1.720   0.819   5.437
12923TIP3   OH238713   7.613   4.158   6.039
12923TIP3    H138714   7.522   4.174   6.062
12923TIP3    H238715   7.635   4.229   5.978
12924TIP3   OH238716   7.922   6.416   5.210
12924TIP3    H138717   7.981   6.434   5.283
12924TIP3    H238718   7.834   6.434   5.244
12925TIP3   OH238719   1.275   3.830   4.269
12925TIP3    H138720   1.249   3.880   4.193
12925TIP3    H238721   1.275   3.739   4.239
12926TIP3   OH238722   2.144   0.930   5.089
12926TIP3    H138723   2.205   0.895   5.024
12926TIP3    H238724   2.177   1.017   5.110
12927TIP3   OH238725   8.080   3.503   1.392
12927TIP3    H138726   8.137   3.469   1.323
12927TIP3    H238727   8.115   3.590   1.412
12928TIP3   OH238728   0.451   5.745   6.159
12928TIP3    H138729   0.501   5.690   6.098
12928TIP3    H238730   0.490   5.832   6.151
12929TIP3   OH238731   2.457   6.095   2.526
12929TIP3    H138732   2.437   6.135   2.442
12929TIP3    H238733   2.502   6.163   2.575
12930TIP3   OH238734   3.942   4.149   3.956
12930TIP3    H138735   3.946   4.241   3.985
12930TIP3    H238736   3.955   4.153   3.862
12931TIP3   OH238737   6.529   0.446   2.626
12931TIP3    H138738   6.567   0.365   2.659
12931TIP3    H238739   6.593   0.513   2.649
12932TIP3   OH238740   6.764   5.828   2.330
12932TIP3    H138741   6.723   5.764   2.389
12932TIP3    H238742   6.697   5.895   2.317
12933TIP3   OH238743   5.075   2.976   0.045
12933TIP3    H138744   5.134   3.050   0.033
12933TIP3    H238745   5.109   2.929   0.121
12934TIP3   OH238746   3.810   5.544   0.497
12934TIP3    H138747   3.873   5.615   0.508
12934TIP3    H238748   3.836   5.501   0.416
12935TIP3   OH238749   0.772   0.332   6.732
12935TIP3    H138750   0.713   0.403   6.755
12935TIP3    H238751   0.807   0.357   6.646
12936TIP3   OH238752   2.235   5.765   3.205
12936TIP3    H138753   2.255   5.803   3.291
12936TIP3    H238754   2.140   5.758   3.204
12937TIP3   OH238755   0.358   3.790   1.138
12937TIP3    H138756   0.397   3.833   1.214
12937TIP3    H238757   0.430   3.788   1.073
12938TIP3   OH238758   5.106   5.628   4.527
12938TIP3    H138759   5.133   5.592   4.612
12938TIP3    H238760   5.011   5.616   4.525
12939TIP3   OH238761   2.032   3.364   2.611
12939TIP3    H138762   1.977   3.433   2.647
12939TIP3    H238763   2.119   3.403   2.604
12940TIP3   OH238764   2.426   0.176   2.361
12940TIP3    H138765   2.340   0.183   2.403
12940TIP3    H238766   2.450   0.266   2.340
12941TIP3   OH238767   1.181   6.623   5.858
12941TIP3    H138768   1.188   6.717   5.843
12941TIP3    H238769   1.202   6.583   5.774
12942TIP3   OH238770   5.234   4.003   0.496
12942TIP3    H138771   5.216   4.089   0.458
12942TIP3    H238772   5.240   4.019   0.590
12943TIP3   OH238773   3.497   3.244   5.561
12943TIP3    H138774   3.446   3.310   5.514
12943TIP3    H238775   3.588   3.271   5.550
12944TIP3   OH238776   5.945   5.691   3.184
12944TIP3    H138777   5.994   5.769   3.156
12944TIP3    H238778   5.990   5.618   3.143
12945TIP3   OH238779   2.178   4.107   0.933
12945TIP3    H138780   2.274   4.115   0.933
12945TIP3    H238781   2.161   4.017   0.905
12946TIP3   OH238782   7.627   0.197   5.600
12946TIP3    H138783   7.713   0.231   5.627
12946TIP3    H238784   7.572   0.275   5.595
12947TIP3   OH238785   1.519   4.131   4.846
12947TIP3    H138786   1.512   4.223   4.821
12947TIP3    H238787   1.554   4.088   4.767
12948TIP3   OH238788   1.609   1.625   1.710
12948TIP3    H138789   1.628   1.674   1.790
12948TIP3    H238790   1.640   1.536   1.728
12949TIP3   OH238791   3.225   3.209   6.142
12949TIP3    H138792   3.178   3.143   6.194
12949TIP3    H238793   3.208   3.185   6.051
12950TIP3   OH238794   2.878   4.736   1.892
12950TIP3    H138795   2.799   4.710   1.845
12950TIP3    H238796   2.946   4.741   1.824
12951TIP3   OH238797   2.311   5.125   4.980
12951TIP3    H138798   2.260   5.053   5.018
12951TIP3    H238799   2.266   5.144   4.898
12952TIP3   OH238800   5.200   2.017   5.785
12952TIP3    H138801   5.166   1.986   5.869
12952TIP3    H238802   5.202   1.939   5.730
12953TIP3   OH238803   0.694   0.976   5.939
12953TIP3    H138804   0.604   0.944   5.950
12953TIP3    H238805   0.742   0.901   5.904
12954TIP3   OH238806   0.875   1.130   5.086
12954TIP3    H138807   0.947   1.137   5.148
12954TIP3    H238808   0.860   1.036   5.077
12955TIP3   OH238809   4.044   3.939   1.170
12955TIP3    H138810   3.993   4.006   1.125
12955TIP3    H238811   4.063   3.874   1.102
12956TIP3   OH238812   6.177   1.113   1.392
12956TIP3    H138813   6.151   1.147   1.307
12956TIP3    H238814   6.151   1.021   1.390
12957TIP3   OH238815   1.078   2.415   0.606
12957TIP3    H138816   1.013   2.368   0.554
12957TIP3    H238817   1.137   2.347   0.638
12958TIP3   OH238818   1.490   3.688   5.378
12958TIP3    H138819   1.418   3.656   5.324
12958TIP3    H238820   1.486   3.783   5.370
12959TIP3   OH238821   1.201   2.596   5.815
12959TIP3    H138822   1.122   2.648   5.798
12959TIP3    H238823   1.168   2.513   5.850
12960TIP3   OH238824   1.008   1.250   3.750
12960TIP3    H138825   1.085   1.306   3.747
12960TIP3    H238826   1.043   1.161   3.743
12961TIP3   OH238827   4.203   3.322   2.535
12961TIP3    H138828   4.254   3.386   2.586
12961TIP3    H238829   4.112   3.339   2.560
12962TIP3   OH238830   2.023   4.283   4.426
12962TIP3    H138831   2.012   4.190   4.445
12962TIP3    H238832   2.054   4.286   4.335
12963TIP3   OH238833   4.042   6.199   5.860
12963TIP3    H138834   4.136   6.183   5.869
12963TIP3    H238835   4.020   6.160   5.775
12964TIP3   OH238836   4.739   3.900   1.509
12964TIP3    H138837   4.686   3.821   1.516
12964TIP3    H238838   4.788   3.903   1.591
12965TIP3   OH238839   0.279   0.160   3.944
12965TIP3    H138840   0.343   0.089   3.954
12965TIP3    H238841   0.325   0.239   3.973
12966TIP3   OH238842   2.821   3.362   1.182
12966TIP3    H138843   2.730   3.388   1.198
12966TIP3    H238844   2.851   3.419   1.112
12967TIP3   OH238845   1.694   6.108   2.866
12967TIP3    H138846   1.600   6.125   2.872
12967TIP3    H238847   1.733   6.164   2.935
12968TIP3   OH238848   1.533   4.514   1.960
12968TIP3    H138849   1.534   4.521   1.864
12968TIP3    H238850   1.612   4.464   1.981
12969TIP3   OH238851   6.036   6.611   4.135
12969TIP3    H138852   6.013   6.544   4.199
12969TIP3    H238853   6.130   6.601   4.121
12970TIP3   OH238854   7.330   7.176   3.406
12970TIP3    H138855   7.360   7.159   3.316
12970TIP3    H238856   7.282   7.097   3.431
12971TIP3   OH238857   2.028   5.221   2.690
12971TIP3    H138858   1.961   5.160   2.658
12971TIP3    H238859   2.047   5.277   2.615
12972TIP3   OH238860   6.359   4.012   2.650
12972TIP3    H138861   6.344   3.919   2.670
12972TIP3    H238862   6.320   4.059   2.723
12973TIP3   OH238863   3.534   5.226   1.992
12973TIP3    H138864   3.628   5.241   1.999
12973TIP3    H238865   3.499   5.257   2.075
12974TIP3   OH238866   0.771   3.436   2.362
12974TIP3    H138867   0.831   3.456   2.433
12974TIP3    H238868   0.812   3.363   2.316
12975TIP3   OH238869   5.707   5.785   4.639
12975TIP3    H138870   5.613   5.804   4.630
12975TIP3    H238871   5.750   5.853   4.587
12976TIP3   OH238872   8.161   6.195   4.183
12976TIP3    H138873   8.194   6.161   4.100
12976TIP3    H238874   8.090   6.135   4.206
12977TIP3   OH238875   2.937   7.037   4.345
12977TIP3    H138876   2.895   7.064   4.427
12977TIP3    H238877   2.987   6.959   4.368
12978TIP3   OH238878   1.012   4.119   2.980
12978TIP3    H138879   0.967   4.180   3.038
12978TIP3    H238880   1.089   4.167   2.950
12979TIP3   OH238881   6.385   3.203   5.474
12979TIP3    H138882   6.342   3.145   5.537
12979TIP3    H238883   6.408   3.146   5.400
12980TIP3   OH238884   3.262   2.506   6.608
12980TIP3    H138885   3.275   2.485   6.701
12980TIP3    H238886   3.284   2.426   6.561
12981TIP3   OH238887   7.426   0.606   1.281
12981TIP3    H138888   7.407   0.603   1.375
12981TIP3    H238889   7.444   0.515   1.257
12982TIP3   OH238890   4.933   1.388   2.661
12982TIP3    H138891   4.948   1.474   2.621
12982TIP3    H238892   4.973   1.326   2.599
12983TIP3   OH238893   1.156   1.214   0.075
12983TIP3    H138894   1.188   1.227   0.164
12983TIP3    H238895   1.208   1.142   0.040
12984TIP3   OH238896   1.308   6.931   3.503
12984TIP3    H138897   1.340   6.967   3.420
12984TIP3    H238898   1.361   6.975   3.569
12985TIP3   OH238899   0.146   0.990   2.542
12985TIP3    H138900   0.235   1.025   2.547
12985TIP3    H238901   0.119   1.007   2.452
12986TIP3   OH238902   7.608   0.663   0.159
12986TIP3    H138903   7.560   0.665   0.076
12986TIP3    H238904   7.626   0.571   0.174
12987TIP3   OH238905   5.269   5.379   6.651
12987TIP3    H138906   5.229   5.298   6.619
12987TIP3    H238907   5.263   5.438   6.576
12988TIP3   OH238908   6.465   1.939   3.137
12988TIP3    H138909   6.400   1.875   3.165
12988TIP3    H238910   6.527   1.944   3.210
12989TIP3   OH238911   3.199   5.523   3.678
12989TIP3    H138912   3.246   5.592   3.632
12989TIP3    H238913   3.261   5.491   3.744
12990TIP3   OH238914   6.746   4.527   3.786
12990TIP3    H138915   6.805   4.598   3.762
12990TIP3    H238916   6.688   4.565   3.853
12991TIP3   OH238917   7.749   3.451   1.755
12991TIP3    H138918   7.666   3.483   1.719
12991TIP3    H238919   7.754   3.360   1.726
12992TIP3   OH238920   7.597   7.074   0.635
12992TIP3    H138921   7.561   6.987   0.618
12992TIP3    H238922   7.657   7.062   0.708
12993TIP3   OH238923   3.641   1.098   4.331
12993TIP3    H138924   3.642   1.131   4.241
12993TIP3    H238925   3.718   1.042   4.337
12994TIP3   OH238926   0.958   7.501   2.663
12994TIP3    H138927   1.033   7.487   2.605
12994TIP3    H238928   0.976   7.445   2.739
12995TIP3   OH238929   5.799   5.990   0.398
12995TIP3    H138930   5.875   5.968   0.344
12995TIP3    H238931   5.773   5.907   0.437
12996TIP3   OH238932   0.065   5.833   5.647
12996TIP3    H138933   0.051   5.800   5.559
12996TIP3    H238934   0.141   5.892   5.638
12997TIP3   OH238935   7.614   3.632   1.430
12997TIP3    H138936   7.687   3.659   1.375
12997TIP3    H238937   7.620   3.689   1.507
12998TIP3   OH238938   4.799   0.398   0.689
12998TIP3    H138939   4.832   0.422   0.603
12998TIP3    H238940   4.791   0.481   0.736
12999TIP3   OH238941   7.492   1.780   3.528
12999TIP3    H138942   7.412   1.731   3.507
12999TIP3    H238943   7.555   1.754   3.461
13000TIP3   OH238944   1.198   6.118   4.904
13000TIP3    H138945   1.165   6.176   4.834
13000TIP3    H238946   1.243   6.178   4.964
13001TIP3   OH238947   2.968   1.195   0.022
13001TIP3    H138948   3.020   1.122  -0.010
13001TIP3    H238949   2.913   1.220  -0.052
13002TIP3   OH238950   5.794   4.813   2.477
13002TIP3    H138951   5.793   4.882   2.544
13002TIP3    H238952   5.767   4.734   2.524
13003TIP3   OH238953   5.847   0.903   6.252
13003TIP3    H138954   5.823   0.923   6.343
13003TIP3    H238955   5.782   0.949   6.199
13004TIP3   OH238956   5.441   6.943   4.252
13004TIP3    H138957   5.415   6.928   4.343
13004TIP3    H238958   5.534   6.964   4.257
13005TIP3   OH238959   8.139   4.105   5.568
13005TIP3    H138960   8.144   4.025   5.517
13005TIP3    H238961   8.191   4.168   5.518
13006TIP3   OH238962   0.901   2.746   4.587
13006TIP3    H138963   0.956   2.677   4.625
13006TIP3    H238964   0.836   2.700   4.535
13007TIP3   OH238965   0.654   4.229   0.196
13007TIP3    H138966   0.630   4.311   0.238
13007TIP3    H238967   0.571   4.187   0.175
13008TIP3   OH238968   5.497   2.652   2.719
13008TIP3    H138969   5.549   2.585   2.674
13008TIP3    H238970   5.483   2.616   2.807
13009TIP3   OH238971   4.396   4.571   1.293
13009TIP3    H138972   4.331   4.631   1.256
13009TIP3    H238973   4.344   4.499   1.328
13010TIP3   OH238974   1.866   1.658   2.805
13010TIP3    H138975   1.883   1.740   2.759
13010TIP3    H238976   1.952   1.616   2.812
13011TIP3   OH238977   3.210   6.271   3.763
13011TIP3    H138978   3.210   6.353   3.713
13011TIP3    H238979   3.302   6.257   3.785
13012TIP3   OH238980   2.868   7.326   0.581
13012TIP3    H138981   2.894   7.357   0.667
13012TIP3    H238982   2.788   7.276   0.597
13013TIP3   OH238983   1.272   2.367   1.384
13013TIP3    H138984   1.200   2.385   1.445
13013TIP3    H238985   1.258   2.427   1.311
13014TIP3   OH238986   3.130   2.866   0.311
13014TIP3    H138987   3.182   2.851   0.232
13014TIP3    H238988   3.097   2.779   0.335
13015TIP3   OH238989   1.015   6.565   6.756
13015TIP3    H138990   0.992   6.525   6.840
13015TIP3    H238991   1.003   6.659   6.771
13016TIP3   OH238992   4.585   5.483   0.631
13016TIP3    H138993   4.635   5.463   0.710
13016TIP3    H238994   4.640   5.545   0.583
13017TIP3   OH238995   6.772   4.781   1.912
13017TIP3    H138996   6.727   4.828   1.842
13017TIP3    H238997   6.852   4.747   1.871
13018TIP3   OH238998   6.094   4.129   0.038
13018TIP3    H138999   6.047   4.212   0.027
13018TIP3    H239000   6.164   4.150   0.101
13019TIP3   OH239001   7.092   2.835   6.064
13019TIP3    H139002   7.099   2.926   6.034
13019TIP3    H239003   7.182   2.802   6.062
13020TIP3   OH239004   4.168   4.323   5.449
13020TIP3    H139005   4.261   4.329   5.474
13020TIP3    H239006   4.156   4.233   5.421
13021TIP3   OH239007   4.782   1.563   1.429
13021TIP3    H139008   4.715   1.523   1.483
13021TIP3    H239009   4.754   1.654   1.420
13022TIP3   OH239010   2.797   3.920   1.978
13022TIP3    H139011   2.861   3.849   1.977
13022TIP3    H239012   2.778   3.934   2.071
13023TIP3   OH239013   1.951   2.659   0.714
13023TIP3    H139014   1.984   2.741   0.750
13023TIP3    H239015   2.010   2.592   0.748
13024TIP3   OH239016   8.246   2.143   4.015
13024TIP3    H139017   8.193   2.217   3.985
13024TIP3    H239018   8.184   2.087   4.062
13025TIP3   OH239019   8.039   6.412   4.274
13025TIP3    H139020   8.049   6.458   4.191
13025TIP3    H239021   8.082   6.328   4.261
13026TIP3   OH239022   3.655   6.942   5.015
13026TIP3    H139023   3.677   7.024   5.060
13026TIP3    H239024   3.739   6.910   4.982
13027TIP3   OH239025   6.099   4.703   2.001
13027TIP3    H139026   6.059   4.723   2.086
13027TIP3    H239027   6.188   4.739   2.007
13028TIP3   OH239028   1.867   0.794   3.433
13028TIP3    H139029   1.839   0.757   3.349
13028TIP3    H239030   1.814   0.748   3.498
13029TIP3   OH239031   3.313   6.915   5.258
13029TIP3    H139032   3.254   6.878   5.324
13029TIP3    H239033   3.308   7.010   5.272
13030TIP3   OH239034   7.149   2.569   6.455
13030TIP3    H139035   7.150   2.474   6.466
13030TIP3    H239036   7.240   2.596   6.460
13031TIP3   OH239037   0.083   1.347   6.310
13031TIP3    H139038   0.012   1.323   6.250
13031TIP3    H239039   0.060   1.435   6.340
13032TIP3   OH239040   5.204   2.802   0.723
13032TIP3    H139041   5.181   2.892   0.699
13032TIP3    H239042   5.234   2.762   0.642
13033TIP3   OH239043   4.213   2.081   5.607
13033TIP3    H139044   4.218   2.030   5.527
13033TIP3    H239045   4.303   2.112   5.621
13034TIP3   OH239046   1.860   1.646   5.677
13034TIP3    H139047   1.806   1.586   5.627
13034TIP3    H239048   1.936   1.594   5.704
13035TIP3   OH239049   7.511   1.207   4.583
13035TIP3    H139050   7.470   1.194   4.497
13035TIP3    H239051   7.478   1.291   4.614
13036TIP3   OH239052   2.537   0.986   1.624
13036TIP3    H139053   2.590   0.940   1.559
13036TIP3    H239054   2.545   1.079   1.601
13037TIP3   OH239055   7.784   2.168   4.913
13037TIP3    H139056   7.723   2.165   4.986
13037TIP3    H239057   7.838   2.090   4.922
13038TIP3   OH239058   0.944   3.695   5.306
13038TIP3    H139059   0.949   3.666   5.215
13038TIP3    H239060   0.926   3.615   5.356
13039TIP3   OH239061   0.512   1.786   0.975
13039TIP3    H139062   0.534   1.877   0.998
13039TIP3    H239063   0.595   1.747   0.949
13040TIP3   OH239064   1.376   0.326   2.428
13040TIP3    H139065   1.349   0.274   2.504
13040TIP3    H239066   1.468   0.303   2.415
13041TIP3   OH239067   2.422   5.714   5.941
13041TIP3    H139068   2.376   5.742   5.862
13041TIP3    H239069   2.473   5.790   5.969
13042TIP3   OH239070   5.432   5.994   6.338
13042TIP3    H139071   5.401   5.987   6.428
13042TIP3    H239072   5.431   6.088   6.319
13043TIP3   OH239073   3.023   1.140   1.812
13043TIP3    H139074   3.031   1.102   1.724
13043TIP3    H239075   2.985   1.227   1.797
13044TIP3   OH239076   3.269   5.227   3.759
13044TIP3    H139077   3.210   5.216   3.684
13044TIP3    H239078   3.211   5.257   3.829
13045TIP3   OH239079   3.658   3.536   4.208
13045TIP3    H139080   3.568   3.506   4.213
13045TIP3    H239081   3.659   3.619   4.256
13046TIP3   OH239082   4.816   5.243   1.480
13046TIP3    H139083   4.750   5.297   1.436
13046TIP3    H239084   4.823   5.165   1.425
13047TIP3   OH239085   2.834   7.555   1.036
13047TIP3    H139086   2.841   7.555   1.131
13047TIP3    H239087   2.740   7.548   1.019
13048TIP3   OH239088   0.837   0.661   2.120
13048TIP3    H139089   0.926   0.659   2.155
13048TIP3    H239090   0.781   0.636   2.194
13049TIP3   OH239091   7.649   4.595   2.693
13049TIP3    H139092   7.651   4.525   2.758
13049TIP3    H239093   7.712   4.659   2.725
13050TIP3   OH239094   7.137   2.811   6.606
13050TIP3    H139095   7.132   2.728   6.558
13050TIP3    H239096   7.194   2.793   6.680
13051TIP3   OH239097   4.552   1.795   6.673
13051TIP3    H139098   4.605   1.837   6.741
13051TIP3    H239099   4.522   1.868   6.619
13052TIP3   OH239100   5.002   5.204   2.719
13052TIP3    H139101   5.093   5.202   2.749
13052TIP3    H239102   4.957   5.141   2.775
13053TIP3   OH239103   0.877   5.981   2.273
13053TIP3    H139104   0.829   6.049   2.225
13053TIP3    H239105   0.954   5.964   2.219
13054TIP3   OH239106   2.256   4.656   3.356
13054TIP3    H139107   2.239   4.726   3.292
13054TIP3    H239108   2.218   4.578   3.316
13055TIP3   OH239109   0.141   6.451   5.890
13055TIP3    H139110   0.091   6.460   5.809
13055TIP3    H239111   0.122   6.362   5.920
13056TIP3   OH239112   1.232   4.916   2.537
13056TIP3    H139113   1.211   4.870   2.618
13056TIP3    H239114   1.280   4.851   2.485
13057TIP3   OH239115   2.785   5.478   4.745
13057TIP3    H139116   2.718   5.541   4.720
13057TIP3    H239117   2.850   5.483   4.674
13058TIP3   OH239118   7.968   5.858   6.184
13058TIP3    H139119   7.919   5.867   6.266
13058TIP3    H239120   8.056   5.888   6.205
13059TIP3   OH239121   4.647   5.477   3.812
13059TIP3    H139122   4.648   5.405   3.749
13059TIP3    H239123   4.615   5.438   3.894
13060TIP3   OH239124   7.316   4.606   2.942
13060TIP3    H139125   7.263   4.580   3.017
13060TIP3    H239126   7.280   4.691   2.916
13061TIP3   OH239127   6.169   3.853   1.186
13061TIP3    H139128   6.227   3.929   1.184
13061TIP3    H239129   6.081   3.890   1.200
13062TIP3   OH239130   6.870   4.409   5.527
13062TIP3    H139131   6.958   4.384   5.498
13062TIP3    H239132   6.885   4.466   5.602
13063TIP3   OH239133   5.041   6.183   6.146
13063TIP3    H139134   5.124   6.223   6.173
13063TIP3    H239135   4.990   6.255   6.110
13064TIP3   OH239136   0.302   4.552   0.322
13064TIP3    H139137   0.373   4.609   0.290
13064TIP3    H239138   0.247   4.609   0.375
13065TIP3   OH239139   5.642   3.413   0.273
13065TIP3    H139140   5.716   3.474   0.277
13065TIP3    H239141   5.568   3.462   0.309
13066TIP3   OH239142   7.470   3.564   3.117
13066TIP3    H139143   7.558   3.597   3.102
13066TIP3    H239144   7.467   3.482   3.067
13067TIP3   OH239145   5.250   3.467   1.957
13067TIP3    H139146   5.215   3.536   1.902
13067TIP3    H239147   5.239   3.499   2.047
13068TIP3   OH239148   7.363   2.830   6.405
13068TIP3    H139149   7.310   2.872   6.473
13068TIP3    H239150   7.398   2.752   6.447
13069TIP3   OH239151   1.590   1.501   2.477
13069TIP3    H139152   1.650   1.427   2.489
13069TIP3    H239153   1.508   1.472   2.516
13070TIP3   OH239154   3.477   3.341   3.810
13070TIP3    H139155   3.494   3.275   3.743
13070TIP3    H239156   3.557   3.344   3.862
13071TIP3   OH239157   6.570   6.414   3.535
13071TIP3    H139158   6.585   6.495   3.583
13071TIP3    H239159   6.538   6.443   3.449
13072TIP3   OH239160   5.492   3.582   2.975
13072TIP3    H139161   5.587   3.590   2.978
13072TIP3    H239162   5.464   3.589   3.066
13073TIP3   OH239163   0.042   1.161   1.918
13073TIP3    H139164   0.081   1.162   1.831
13073TIP3    H239165  -0.049   1.132   1.904
13074TIP3   OH239166   1.549   1.300   6.415
13074TIP3    H139167   1.571   1.229   6.356
13074TIP3    H239168   1.453   1.297   6.422
13075TIP3   OH239169   8.114   2.011   0.642
13075TIP3    H139170   8.075   2.056   0.568
13075TIP3    H239171   8.057   1.937   0.658
13076TIP3   OH239172   7.667   6.301   0.916
13076TIP3    H139173   7.662   6.230   0.852
13076TIP3    H239174   7.579   6.304   0.955
13077TIP3   OH239175   7.393   2.553   2.766
13077TIP3    H139176   7.451   2.547   2.690
13077TIP3    H239177   7.405   2.642   2.798
13078TIP3   OH239178   4.288   4.849   0.556
13078TIP3    H139179   4.347   4.790   0.601
13078TIP3    H239180   4.295   4.932   0.604
13079TIP3   OH239181   4.033   5.726   4.910
13079TIP3    H139182   3.959   5.668   4.926
13079TIP3    H239183   4.043   5.728   4.815
13080TIP3   OH239184   1.853   4.767   0.811
13080TIP3    H139185   1.836   4.768   0.716
13080TIP3    H239186   1.777   4.810   0.849
13081TIP3   OH239187   3.736   0.642   5.640
13081TIP3    H139188   3.787   0.576   5.593
13081TIP3    H239189   3.665   0.664   5.579
13082TIP3   OH239190   2.050   4.513   5.041
13082TIP3    H139191   2.050   4.429   4.995
13082TIP3    H239192   1.957   4.534   5.051
13083TIP3   OH239193   0.195   3.831   4.486
13083TIP3    H139194   0.113   3.878   4.502
13083TIP3    H239195   0.194   3.812   4.392
13084TIP3   OH239196   1.674   6.182   3.716
13084TIP3    H139197   1.741   6.128   3.758
13084TIP3    H239198   1.598   6.124   3.709
13085TIP3   OH239199   6.811   0.392   0.374
13085TIP3    H139200   6.860   0.380   0.292
13085TIP3    H239201   6.831   0.314   0.425
13086TIP3   OH239202   1.405   6.583   1.344
13086TIP3    H139203   1.318   6.620   1.361
13086TIP3    H239204   1.456   6.657   1.311
13087TIP3   OH239205   8.091   1.054   5.990
13087TIP3    H139206   8.021   1.116   6.011
13087TIP3    H239207   8.171   1.096   6.024
13088TIP3   OH239208   1.314   5.910   0.619
13088TIP3    H139209   1.353   5.870   0.542
13088TIP3    H239210   1.312   6.004   0.599
13089TIP3   OH239211   4.497   4.717   1.588
13089TIP3    H139212   4.417   4.702   1.537
13089TIP3    H239213   4.468   4.772   1.661
13090TIP3   OH239214   7.648   5.777   3.028
13090TIP3    H139215   7.687   5.816   3.106
13090TIP3    H239216   7.633   5.850   2.969
13091TIP3   OH239217   4.283   3.698   1.143
13091TIP3    H139218   4.238   3.617   1.168
13091TIP3    H239219   4.309   3.737   1.227
13092TIP3   OH239220   5.593   0.499   5.893
13092TIP3    H139221   5.604   0.594   5.903
13092TIP3    H239222   5.533   0.490   5.819
13093TIP3   OH239223   5.304   6.654   5.621
13093TIP3    H139224   5.399   6.650   5.609
13093TIP3    H239225   5.274   6.566   5.597
13094TIP3   OH239226   2.888   0.662   1.240
13094TIP3    H139227   2.834   0.725   1.193
13094TIP3    H239228   2.971   0.707   1.254
13095TIP3   OH239229   0.367   1.251   3.964
13095TIP3    H139230   0.345   1.249   3.871
13095TIP3    H239231   0.341   1.338   3.993
13096TIP3   OH239232   7.791   5.126   0.211
13096TIP3    H139233   7.696   5.125   0.201
13096TIP3    H239234   7.819   5.202   0.160
13097TIP3   OH239235   4.453   6.044   6.418
13097TIP3    H139236   4.379   5.990   6.389
13097TIP3    H239237   4.440   6.053   6.513
13098TIP3   OH239238   2.489   1.590   1.043
13098TIP3    H139239   2.517   1.598   1.135
13098TIP3    H239240   2.571   1.583   0.994
13099TIP3   OH239241   8.256   3.546   5.975
13099TIP3    H139242   8.219   3.598   5.904
13099TIP3    H239243   8.215   3.582   6.054
13100TIP3   OH239244   2.760   5.280   1.280
13100TIP3    H139245   2.685   5.275   1.221
13100TIP3    H239246   2.778   5.373   1.289
13101TIP3   OH239247   4.055   3.394   6.430
13101TIP3    H139248   4.091   3.323   6.482
13101TIP3    H239249   4.039   3.355   6.344
13102TIP3   OH239250   6.979   1.148   2.468
13102TIP3    H139251   7.043   1.077   2.468
13102TIP3    H239252   6.927   1.133   2.547
13103TIP3   OH239253   2.178   7.296   3.792
13103TIP3    H139254   2.267   7.296   3.758
13103TIP3    H239255   2.188   7.313   3.886
13104TIP3   OH239256   4.522   3.092   4.049
13104TIP3    H139257   4.614   3.119   4.055
13104TIP3    H239258   4.473   3.173   4.064
13105TIP3   OH239259   4.369   0.181   3.217
13105TIP3    H139260   4.406   0.111   3.164
13105TIP3    H239261   4.408   0.262   3.183
13106TIP3   OH239262   2.217   3.845   1.204
13106TIP3    H139263   2.239   3.889   1.287
13106TIP3    H239264   2.294   3.861   1.148
13107TIP3   OH239265   1.632   5.593   5.821
13107TIP3    H139266   1.684   5.552   5.751
13107TIP3    H239267   1.555   5.537   5.829
13108TIP3   OH239268   1.757   5.681   3.302
13108TIP3    H139269   1.784   5.749   3.364
13108TIP3    H239270   1.663   5.695   3.292
13109TIP3   OH239271   6.824   3.060   5.267
13109TIP3    H139272   6.895   3.050   5.203
13109TIP3    H239273   6.847   3.139   5.316
13110TIP3   OH239274   6.261   3.441   0.816
13110TIP3    H139275   6.201   3.367   0.824
13110TIP3    H239276   6.238   3.499   0.889
13111TIP3   OH239277   2.343   1.314   6.184
13111TIP3    H139278   2.317   1.314   6.277
13111TIP3    H239279   2.314   1.400   6.152
13112TIP3   OH239280   8.046   2.030   2.361
13112TIP3    H139281   8.002   1.957   2.405
13112TIP3    H239282   8.102   1.988   2.295
13113TIP3   OH239283   1.320   6.239   3.884
13113TIP3    H139284   1.304   6.324   3.843
13113TIP3    H239285   1.280   6.176   3.824
13114TIP3   OH239286   1.275   0.958   0.061
13114TIP3    H139287   1.323   0.946   0.143
13114TIP3    H239288   1.339   0.938  -0.007
13115TIP3   OH239289   1.634   2.327   6.292
13115TIP3    H139290   1.623   2.412   6.333
13115TIP3    H239291   1.576   2.329   6.216
13116TIP3   OH239292   0.820   2.697   3.227
13116TIP3    H139293   0.806   2.773   3.170
13116TIP3    H239294   0.733   2.673   3.257
13117TIP3   OH239295   0.946   0.795   5.900
13117TIP3    H139296   0.969   0.834   5.816
13117TIP3    H239297   0.981   0.856   5.965
13118TIP3   OH239298   2.930   6.499   0.007
13118TIP3    H139299   2.864   6.447   0.054
13118TIP3    H239300   2.994   6.522   0.074
13119TIP3   OH239301   5.383   7.401   3.009
13119TIP3    H139302   5.333   7.478   2.981
13119TIP3    H239303   5.411   7.422   3.098
13120TIP3   OH239304   6.156   2.857   4.991
13120TIP3    H139305   6.102   2.808   5.053
13120TIP3    H239306   6.110   2.940   4.978
13121TIP3   OH239307   3.325   0.136   6.106
13121TIP3    H139308   3.244   0.186   6.100
13121TIP3    H239309   3.312   0.061   6.049
13122TIP3   OH239310   2.433   4.694   1.640
13122TIP3    H139311   2.367   4.727   1.701
13122TIP3    H239312   2.454   4.769   1.584
13123TIP3   OH239313   7.111   2.669   1.412
13123TIP3    H139314   7.019   2.675   1.385
13123TIP3    H239315   7.147   2.757   1.396
13124TIP3   OH239316   2.479   4.501   4.552
13124TIP3    H139317   2.447   4.558   4.622
13124TIP3    H239318   2.538   4.557   4.501
13125TIP3   OH239319   2.368   7.681   1.288
13125TIP3    H139320   2.338   7.642   1.206
13125TIP3    H239321   2.288   7.710   1.332
13126TIP3   OH239322   2.505   1.258   2.453
13126TIP3    H139323   2.530   1.187   2.395
13126TIP3    H239324   2.450   1.315   2.399
13127TIP3   OH239325   2.715   5.662   2.553
13127TIP3    H139326   2.798   5.676   2.508
13127TIP3    H239327   2.695   5.747   2.593
13128TIP3   OH239328   4.783   6.831   4.370
13128TIP3    H139329   4.758   6.840   4.278
13128TIP3    H239330   4.705   6.793   4.412
13129TIP3   OH239331   7.153   2.146   6.684
13129TIP3    H139332   7.143   2.201   6.761
13129TIP3    H239333   7.247   2.125   6.683
13130TIP3   OH239334   1.221   2.242   0.751
13130TIP3    H139335   1.313   2.258   0.729
13130TIP3    H239336   1.217   2.148   0.769
13131TIP3   OH239337   7.561   5.852   5.407
13131TIP3    H139338   7.564   5.786   5.475
13131TIP3    H239339   7.568   5.935   5.454
13132TIP3   OH239340   7.551   1.164   4.854
13132TIP3    H139341   7.545   1.148   4.760
13132TIP3    H239342   7.583   1.253   4.862
13133TIP3   OH239343   3.822   7.793   0.261
13133TIP3    H139344   3.741   7.763   0.219
13133TIP3    H239345   3.798   7.874   0.306
13134TIP3   OH239346   4.197   7.517   1.838
13134TIP3    H139347   4.253   7.482   1.769
13134TIP3    H239348   4.163   7.439   1.882
13135TIP3   OH239349   3.428   7.028   4.879
13135TIP3    H139350   3.493   6.973   4.923
13135TIP3    H239351   3.344   6.991   4.907
13136TIP3   OH239352   2.179   4.697   3.949
13136TIP3    H139353   2.229   4.665   3.874
13136TIP3    H239354   2.107   4.747   3.910
13137TIP3   OH239355   1.431   3.502   4.869
13137TIP3    H139356   1.396   3.431   4.816
13137TIP3    H239357   1.497   3.460   4.925
13138TIP3   OH239358   6.512   3.240   6.380
13138TIP3    H139359   6.442   3.181   6.411
13138TIP3    H239360   6.591   3.203   6.418
13139TIP3   OH239361   2.283   5.230   3.277
13139TIP3    H139362   2.221   5.282   3.226
13139TIP3    H239363   2.228   5.171   3.329
13140TIP3   OH239364   5.829   0.179   1.414
13140TIP3    H139365   5.821   0.261   1.366
13140TIP3    H239366   5.775   0.190   1.491
13141TIP3   OH239367   3.887   2.080   3.502
13141TIP3    H139368   3.911   2.089   3.410
13141TIP3    H239369   3.943   2.010   3.535
13142TIP3   OH239370   7.887   1.148   2.855
13142TIP3    H139371   7.857   1.205   2.784
13142TIP3    H239372   7.809   1.135   2.909
13143TIP3   OH239373   5.924   0.131   4.145
13143TIP3    H139374   5.947   0.210   4.095
13143TIP3    H239375   6.009   0.096   4.173
13144TIP3   OH239376   0.710   7.536   4.707
13144TIP3    H139377   0.774   7.598   4.672
13144TIP3    H239378   0.717   7.544   4.802
13145TIP3   OH239379   1.303   0.278   1.278
13145TIP3    H139380   1.237   0.214   1.250
13145TIP3    H239381   1.376   0.266   1.217
13146TIP3   OH239382   4.262   6.365   5.697
13146TIP3    H139383   4.357   6.363   5.688
13146TIP3    H239384   4.233   6.277   5.674
13147TIP3   OH239385   4.960   3.027   3.824
13147TIP3    H139386   5.055   3.042   3.827
13147TIP3    H239387   4.923   3.113   3.806
13148TIP3   OH239388   6.870   3.982   2.770
13148TIP3    H139389   6.934   4.048   2.743
13148TIP3    H239390   6.785   4.021   2.749
13149TIP3   OH239391   2.746   7.201   2.706
13149TIP3    H139392   2.794   7.120   2.721
13149TIP3    H239393   2.665   7.174   2.664
13150TIP3   OH239394   5.645   2.559   4.521
13150TIP3    H139395   5.729   2.594   4.494
13150TIP3    H239396   5.644   2.568   4.616
13151TIP3   OH239397   1.301   2.190   0.381
13151TIP3    H139398   1.261   2.107   0.406
13151TIP3    H239399   1.259   2.212   0.297
13152TIP3   OH239400   5.086   1.208   5.082
13152TIP3    H139401   5.037   1.245   5.155
13152TIP3    H239402   5.062   1.264   5.007
13153TIP3   OH239403   0.710   2.025   5.633
13153TIP3    H139404   0.778   2.091   5.634
13153TIP3    H239405   0.641   2.063   5.579
13154TIP3   OH239406   3.006   5.142   5.959
13154TIP3    H139407   3.028   5.228   5.995
13154TIP3    H239408   2.982   5.160   5.868
13155TIP3   OH239409   0.937   2.112   0.671
13155TIP3    H139410   0.910   2.020   0.665
13155TIP3    H239411   1.031   2.108   0.688
13156TIP3   OH239412   1.943   1.160   5.015
13156TIP3    H139413   2.033   1.189   5.025
13156TIP3    H239414   1.902   1.228   4.961
13157TIP3   OH239415   5.353   6.611   0.266
13157TIP3    H139416   5.282   6.675   0.274
13157TIP3    H239417   5.431   6.657   0.296
13158TIP3   OH239418   4.912   5.386   5.546
13158TIP3    H139419   4.846   5.362   5.482
13158TIP3    H239420   4.960   5.305   5.563
13159TIP3   OH239421   7.956   4.710   3.456
13159TIP3    H139422   8.017   4.733   3.526
13159TIP3    H239423   7.898   4.644   3.496
13160TIP3   OH239424   4.981   7.564   3.683
13160TIP3    H139425   4.910   7.617   3.719
13160TIP3    H239426   4.988   7.592   3.592
13161TIP3   OH239427   5.677   3.637   6.154
13161TIP3    H139428   5.616   3.710   6.156
13161TIP3    H239429   5.760   3.674   6.186
13162TIP3   OH239430   3.009   4.816   0.868
13162TIP3    H139431   3.071   4.778   0.929
13162TIP3    H239432   2.958   4.878   0.920
13163TIP3   OH239433   7.778   3.960   1.230
13163TIP3    H139434   7.847   3.895   1.242
13163TIP3    H239435   7.781   3.980   1.136
13164TIP3   OH239436   4.800   1.390   3.269
13164TIP3    H139437   4.815   1.302   3.233
13164TIP3    H239438   4.717   1.418   3.232
13165TIP3   OH239439   4.538   4.749   6.739
13165TIP3    H139440   4.488   4.716   6.814
13165TIP3    H239441   4.567   4.836   6.766
13166TIP3   OH239442   7.700   5.024   0.566
13166TIP3    H139443   7.764   5.019   0.494
13166TIP3    H239444   7.653   5.106   0.550
13167TIP3   OH239445   6.148   1.296   6.562
13167TIP3    H139446   6.211   1.237   6.523
13167TIP3    H239447   6.063   1.258   6.541
13168TIP3   OH239448   3.919   5.348   3.979
13168TIP3    H139449   3.983   5.332   4.048
13168TIP3    H239450   3.849   5.286   3.996
13169TIP3   OH239451   8.175   0.679   6.147
13169TIP3    H139452   8.242   0.625   6.105
13169TIP3    H239453   8.147   0.739   6.078
13170TIP3   OH239454   6.958   6.585   6.613
13170TIP3    H139455   6.928   6.496   6.631
13170TIP3    H239456   6.997   6.580   6.525
13171TIP3   OH239457   5.291   3.471   5.248
13171TIP3    H139458   5.293   3.388   5.201
13171TIP3    H239459   5.377   3.477   5.291
13172TIP3   OH239460   7.705   6.022   2.363
13172TIP3    H139461   7.641   5.953   2.382
13172TIP3    H239462   7.735   6.052   2.449
13173TIP3   OH239463   4.930   5.277   5.140
13173TIP3    H139464   4.875   5.200   5.156
13173TIP3    H239465   4.984   5.253   5.065
13174TIP3   OH239466   2.148   1.631   2.556
13174TIP3    H139467   2.091   1.708   2.558
13174TIP3    H239468   2.148   1.599   2.646
13175TIP3   OH239469   8.238   5.693   5.416
13175TIP3    H139470   8.235   5.626   5.348
13175TIP3    H239471   8.191   5.767   5.379
13176TIP3   OH239472   0.943   0.121   4.824
13176TIP3    H139473   0.934   0.101   4.731
13176TIP3    H239474   0.987   0.044   4.862
13177TIP3   OH239475   7.752   5.006   1.287
13177TIP3    H139476   7.774   5.099   1.291
13177TIP3    H239477   7.709   4.988   1.371
13178TIP3   OH239478   2.188   7.094   4.914
13178TIP3    H139479   2.283   7.084   4.908
13178TIP3    H239480   2.165   7.051   4.996
13179TIP3   OH239481   1.456   1.627   0.162
13179TIP3    H139482   1.427   1.718   0.157
13179TIP3    H239483   1.388   1.577   0.119
13180TIP3   OH239484   2.272   1.100   0.953
13180TIP3    H139485   2.288   1.194   0.955
13180TIP3    H239486   2.303   1.068   1.038
13181TIP3   OH239487   8.279   1.334   3.763
13181TIP3    H139488   8.255   1.375   3.846
13181TIP3    H239489   8.320   1.404   3.713
13182TIP3   OH239490   3.587   4.448   2.699
13182TIP3    H139491   3.569   4.512   2.630
13182TIP3    H239492   3.504   4.402   2.712
13183TIP3   OH239493   4.728   4.391   2.598
13183TIP3    H139494   4.634   4.401   2.610
13183TIP3    H239495   4.743   4.297   2.600
13184TIP3   OH239496   7.150   7.090   6.246
13184TIP3    H139497   7.119   7.150   6.178
13184TIP3    H239498   7.245   7.097   6.243
13185TIP3   OH239499   5.049   5.426   6.357
13185TIP3    H139500   4.973   5.374   6.383
13185TIP3    H239501   5.033   5.448   6.266
13186TIP3   OH239502   7.232   5.339   2.624
13186TIP3    H139503   7.327   5.333   2.629
13186TIP3    H239504   7.211   5.318   2.533
13187TIP3   OH239505   0.882   3.149   4.572
13187TIP3    H139506   0.935   3.220   4.609
13187TIP3    H239507   0.824   3.193   4.509
13188TIP3   OH239508   6.899   4.873   4.762
13188TIP3    H139509   6.830   4.877   4.828
13188TIP3    H239510   6.906   4.963   4.729
13189TIP3   OH239511   0.893   1.694   5.472
13189TIP3    H139512   0.913   1.787   5.478
13189TIP3    H239513   0.940   1.664   5.394
13190TIP3   OH239514   0.234   7.385   3.424
13190TIP3    H139515   0.198   7.391   3.512
13190TIP3    H239516   0.183   7.316   3.381
13191TIP3   OH239517   5.008   2.378   0.160
13191TIP3    H139518   4.982   2.457   0.113
13191TIP3    H239519   5.006   2.402   0.252
13192TIP3   OH239520   8.156   0.845   2.230
13192TIP3    H139521   8.184   0.769   2.179
13192TIP3    H239522   8.231   0.905   2.226
13193TIP3   OH239523   7.344   7.643   3.252
13193TIP3    H139524   7.345   7.732   3.288
13193TIP3    H239525   7.436   7.619   3.246
13194TIP3   OH239526   4.519   6.114   1.720
13194TIP3    H139527   4.546   6.142   1.808
13194TIP3    H239528   4.576   6.040   1.700
13195TIP3   OH239529   0.419   5.199   6.613
13195TIP3    H139530   0.488   5.245   6.662
13195TIP3    H239531   0.438   5.220   6.522
13196TIP3   OH239532   6.149   7.432   4.475
13196TIP3    H139533   6.077   7.371   4.458
13196TIP3    H239534   6.213   7.381   4.523
13197TIP3   OH239535   2.386   3.056   6.093
13197TIP3    H139536   2.296   3.039   6.119
13197TIP3    H239537   2.411   2.979   6.041
13198TIP3   OH239538   0.219   2.156   2.435
13198TIP3    H139539   0.174   2.080   2.472
13198TIP3    H239540   0.297   2.166   2.489
13199TIP3   OH239541   1.483   6.449   3.382
13199TIP3    H139542   1.577   6.434   3.377
13199TIP3    H239543   1.472   6.507   3.457
13200TIP3   OH239544   7.854   3.748   5.953
13200TIP3    H139545   7.810   3.763   5.869
13200TIP3    H239546   7.829   3.824   6.006
13201TIP3   OH239547   7.961   5.255   5.772
13201TIP3    H139548   7.884   5.218   5.816
13201TIP3    H239549   7.931   5.338   5.737
13202TIP3   OH239550   5.691   1.625   0.828
13202TIP3    H139551   5.681   1.703   0.773
13202TIP3    H239552   5.670   1.655   0.917
13203TIP3   OH239553   6.159   3.400   0.266
13203TIP3    H139554   6.068   3.399   0.235
13203TIP3    H239555   6.156   3.451   0.347
13204TIP3   OH239556   3.681   6.073   0.333
13204TIP3    H139557   3.712   6.159   0.365
13204TIP3    H239558   3.759   6.033   0.295
13205TIP3   OH239559   6.009   6.211   1.308
13205TIP3    H139560   5.946   6.150   1.270
13205TIP3    H239561   6.045   6.165   1.384
13206TIP3   OH239562   2.533   3.682   5.338
13206TIP3    H139563   2.627   3.678   5.354
13206TIP3    H239564   2.494   3.633   5.410
13207TIP3   OH239565   5.020   5.263   0.868
13207TIP3    H139566   4.939   5.280   0.820
13207TIP3    H239567   5.034   5.169   0.859
13208TIP3   OH239568   1.573   4.090   5.913
13208TIP3    H139569   1.523   4.144   5.975
13208TIP3    H239570   1.593   4.149   5.841
13209TIP3   OH239571   0.820   3.462   3.640
13209TIP3    H139572   0.736   3.477   3.683
13209TIP3    H239573   0.856   3.385   3.684
13210TIP3   OH239574   6.787   0.179   4.016
13210TIP3    H139575   6.697   0.209   4.023
13210TIP3    H239576   6.827   0.204   4.099
13211TIP3   OH239577   6.581   2.955   3.628
13211TIP3    H139578   6.601   2.876   3.577
13211TIP3    H239579   6.644   3.020   3.597
13212TIP3   OH239580   3.419   7.745   2.907
13212TIP3    H139581   3.448   7.675   2.849
13212TIP3    H239582   3.343   7.709   2.952
13213TIP3   OH239583   7.159   5.643   5.386
13213TIP3    H139584   7.118   5.711   5.333
13213TIP3    H239585   7.087   5.603   5.435
13214TIP3   OH239586   5.481   6.388   1.623
13214TIP3    H139587   5.576   6.381   1.631
13214TIP3    H239588   5.447   6.302   1.649
13215TIP3   OH239589   6.006   6.727   0.929
13215TIP3    H139590   6.090   6.770   0.943
13215TIP3    H239591   6.030   6.638   0.901
13216TIP3   OH239592   6.225   4.151   5.981
13216TIP3    H139593   6.206   4.072   5.930
13216TIP3    H239594   6.250   4.119   6.068
13217TIP3   OH239595   2.802   2.765   4.136
13217TIP3    H139596   2.801   2.836   4.072
13217TIP3    H239597   2.874   2.709   4.109
13218TIP3   OH239598   0.846   7.285   3.085
13218TIP3    H139599   0.804   7.312   3.167
13218TIP3    H239600   0.928   7.335   3.083
13219TIP3   OH239601   7.028   7.598   3.910
13219TIP3    H139602   6.961   7.567   3.972
13219TIP3    H239603   7.014   7.546   3.831
13220TIP3   OH239604   3.601   3.048   6.092
13220TIP3    H139605   3.655   2.994   6.033
13220TIP3    H239606   3.548   3.101   6.033
13221TIP3   OH239607   5.222   2.950   4.055
13221TIP3    H139608   5.265   2.882   4.003
13221TIP3    H239609   5.282   3.024   4.052
13222TIP3   OH239610   1.094   3.030   4.183
13222TIP3    H139611   1.043   2.974   4.241
13222TIP3    H239612   1.185   3.014   4.207
13223TIP3   OH239613   0.193   7.263   2.967
13223TIP3    H139614   0.189   7.184   2.914
13223TIP3    H239615   0.104   7.299   2.965
13224TIP3   OH239616   1.099   5.106   1.103
13224TIP3    H139617   1.012   5.133   1.074
13224TIP3    H239618   1.105   5.137   1.194
13225TIP3   OH239619   2.733   0.446   0.313
13225TIP3    H139620   2.820   0.406   0.319
13225TIP3    H239621   2.747   0.536   0.344
13226TIP3   OH239622   3.724   4.310   3.049
13226TIP3    H139623   3.752   4.402   3.055
13226TIP3    H239624   3.769   4.266   3.121
13227TIP3   OH239625   6.224   0.003   4.589
13227TIP3    H139626   6.216   0.069   4.658
13227TIP3    H239627   6.140  -0.042   4.589
13228TIP3   OH239628   7.167   2.870   2.162
13228TIP3    H139629   7.165   2.860   2.067
13228TIP3    H239630   7.258   2.852   2.186
13229TIP3   OH239631   6.511   3.724   5.247
13229TIP3    H139632   6.479   3.778   5.175
13229TIP3    H239633   6.600   3.755   5.263
13230TIP3   OH239634   1.584   6.023   0.964
13230TIP3    H139635   1.588   5.929   0.944
13230TIP3    H239636   1.499   6.034   1.008
13231TIP3   OH239637   7.123   0.991   5.061
13231TIP3    H139638   7.143   1.060   4.998
13231TIP3    H239639   7.138   0.910   5.014
13232TIP3   OH239640   6.377   5.281   1.076
13232TIP3    H139641   6.461   5.237   1.062
13232TIP3    H239642   6.399   5.374   1.071
13233TIP3   OH239643   7.881   7.541   2.874
13233TIP3    H139644   7.785   7.537   2.877
13233TIP3    H239645   7.904   7.606   2.941
13234TIP3   OH239646   3.940   4.944   5.671
13234TIP3    H139647   3.961   4.952   5.579
13234TIP3    H239648   3.937   5.033   5.704
13235TIP3   OH239649   1.804   4.973   4.638
13235TIP3    H139650   1.783   4.884   4.667
13235TIP3    H239651   1.845   4.961   4.553
13236TIP3   OH239652   4.441   2.654   0.842
13236TIP3    H139653   4.406   2.577   0.797
13236TIP3    H239654   4.363   2.705   0.865
13237TIP3   OH239655   4.635   1.971   3.515
13237TIP3    H139656   4.624   1.910   3.587
13237TIP3    H239657   4.627   1.917   3.436
13238TIP3   OH239658   8.039   6.831   5.532
13238TIP3    H139659   8.092   6.905   5.563
13238TIP3    H239660   8.033   6.844   5.438
13239TIP3   OH239661   6.373   4.351   2.691
13239TIP3    H139662   6.352   4.280   2.752
13239TIP3    H239663   6.307   4.344   2.622
13240TIP3   OH239664   4.359   1.757   2.099
13240TIP3    H139665   4.385   1.774   2.189
13240TIP3    H239666   4.268   1.787   2.094
13241TIP3   OH239667   6.019   7.108   6.743
13241TIP3    H139668   5.929   7.086   6.723
13241TIP3    H239669   6.026   7.202   6.725
13242TIP3   OH239670   6.389   7.352   5.338
13242TIP3    H139671   6.358   7.261   5.346
13242TIP3    H239672   6.373   7.374   5.246
13243TIP3   OH239673   0.285   7.225   4.925
13243TIP3    H139674   0.249   7.198   4.841
13243TIP3    H239675   0.358   7.164   4.941
13244TIP3   OH239676   1.518   5.027   6.219
13244TIP3    H139677   1.500   5.081   6.142
13244TIP3    H239678   1.504   4.937   6.190
13245TIP3   OH239679   5.048   5.508   3.596
13245TIP3    H139680   5.088   5.592   3.576
13245TIP3    H239681   5.122   5.448   3.608
13246TIP3   OH239682   2.665   3.943   4.736
13246TIP3    H139683   2.640   3.917   4.647
13246TIP3    H239684   2.730   3.879   4.762
13247TIP3   OH239685   2.163   2.295   3.982
13247TIP3    H139686   2.250   2.277   3.947
13247TIP3    H239687   2.171   2.381   4.023
13248TIP3   OH239688   4.518   2.220   6.258
13248TIP3    H139689   4.602   2.241   6.298
13248TIP3    H239690   4.507   2.285   6.189
13249TIP3   OH239691   7.160   3.360   4.996
13249TIP3    H139692   7.227   3.308   4.953
13249TIP3    H239693   7.207   3.409   5.064
13250TIP3   OH239694   8.069   0.565   4.478
13250TIP3    H139695   8.045   0.520   4.559
13250TIP3    H239696   8.080   0.495   4.413
13251TIP3   OH239697   0.073   6.854   4.879
13251TIP3    H139698   0.116   6.900   4.806
13251TIP3    H239699   0.027   6.781   4.837
13252TIP3   OH239700   5.595   2.164   0.399
13252TIP3    H139701   5.647   2.229   0.446
13252TIP3    H239702   5.657   2.093   0.382
13253TIP3   OH239703   4.553   0.430   4.726
13253TIP3    H139704   4.579   0.504   4.671
13253TIP3    H239705   4.482   0.464   4.781
13254TIP3   OH239706   1.528   2.319   3.613
13254TIP3    H139707   1.443   2.311   3.571
13254TIP3    H239708   1.513   2.379   3.686
13255TIP3   OH239709   7.955   3.575   0.515
13255TIP3    H139710   8.014   3.500   0.504
13255TIP3    H239711   7.971   3.629   0.437
13256TIP3   OH239712   3.849   2.271   3.722
13256TIP3    H139713   3.848   2.365   3.703
13256TIP3    H239714   3.940   2.251   3.743
13257TIP3   OH239715   5.717   6.914   6.117
13257TIP3    H139716   5.662   6.984   6.152
13257TIP3    H239717   5.732   6.855   6.190
13258TIP3   OH239718   0.202   5.675   0.430
13258TIP3    H139719   0.160   5.589   0.422
13258TIP3    H239720   0.213   5.688   0.524
13259TIP3   OH239721   5.276   3.733   0.437
13259TIP3    H139722   5.195   3.684   0.426
13259TIP3    H239723   5.246   3.823   0.456
13260TIP3   OH239724   5.839   1.940   5.636
13260TIP3    H139725   5.779   1.904   5.702
13260TIP3    H239726   5.924   1.902   5.658
13261TIP3   OH239727   0.342   3.805   6.290
13261TIP3    H139728   0.286   3.882   6.284
13261TIP3    H239729   0.299   3.739   6.236
13262TIP3   OH239730   5.895   5.350   5.687
13262TIP3    H139731   5.899   5.411   5.614
13262TIP3    H239732   5.818   5.376   5.737
13263TIP3   OH239733   2.990   6.555   6.409
13263TIP3    H139734   2.895   6.547   6.413
13263TIP3    H239735   3.019   6.475   6.364
13264TIP3   OH239736   5.425   2.538   0.714
13264TIP3    H139737   5.405   2.445   0.721
13264TIP3    H239738   5.413   2.572   0.803
13265TIP3   OH239739   1.700   1.473   6.228
13265TIP3    H139740   1.747   1.410   6.174
13265TIP3    H239741   1.632   1.421   6.271
13266TIP3   OH239742   2.582   7.324   2.353
13266TIP3    H139743   2.543   7.393   2.298
13266TIP3    H239744   2.613   7.259   2.290
13267TIP3   OH239745   3.706   5.844   0.058
13267TIP3    H139746   3.680   5.932   0.030
13267TIP3    H239747   3.800   5.839   0.037
13268TIP3   OH239748   0.209   3.688   3.485
13268TIP3    H139749   0.136   3.674   3.545
13268TIP3    H239750   0.245   3.600   3.470
13269TIP3   OH239751   8.176   3.280   2.354
13269TIP3    H139752   8.211   3.197   2.324
13269TIP3    H239753   8.081   3.268   2.356
13270TIP3   OH239754   2.472   0.920   0.389
13270TIP3    H139755   2.430   0.885   0.310
13270TIP3    H239756   2.403   0.970   0.433
13271TIP3   OH239757   7.804   2.904   4.378
13271TIP3    H139758   7.776   2.910   4.287
13271TIP3    H239759   7.877   2.966   4.384
13272TIP3   OH239760   4.855   0.371   6.371
13272TIP3    H139761   4.791   0.307   6.402
13272TIP3    H239762   4.833   0.384   6.278
13273TIP3   OH239763   5.362   3.121   5.313
13273TIP3    H139764   5.340   3.028   5.321
13273TIP3    H239765   5.285   3.160   5.271
13274TIP3   OH239766   3.909   0.991   4.397
13274TIP3    H139767   3.918   0.903   4.358
13274TIP3    H239768   3.966   1.046   4.344
13275TIP3   OH239769   1.412   5.366   0.493
13275TIP3    H139770   1.441   5.457   0.492
13275TIP3    H239771   1.481   5.318   0.448
13276TIP3   OH239772   7.218   0.582   3.049
13276TIP3    H139773   7.183   0.651   2.992
13276TIP3    H239774   7.299   0.554   3.005
13277TIP3   OH239775   3.274   7.615   6.310
13277TIP3    H139776   3.245   7.524   6.309
13277TIP3    H239777   3.279   7.637   6.403
13278TIP3   OH239778   2.930   1.394   1.727
13278TIP3    H139779   3.014   1.438   1.739
13278TIP3    H239780   2.868   1.446   1.778
13279TIP3   OH239781   5.651   7.153   6.202
13279TIP3    H139782   5.694   7.155   6.116
13279TIP3    H239783   5.570   7.201   6.189
13280TIP3   OH239784   5.060   7.425   5.178
13280TIP3    H139785   4.982   7.463   5.216
13280TIP3    H239786   5.028   7.370   5.106
13281TIP3   OH239787   7.943   6.787   3.214
13281TIP3    H139788   7.905   6.779   3.127
13281TIP3    H239789   7.953   6.881   3.227
13282TIP3   OH239790   6.236   0.186   0.908
13282TIP3    H139791   6.217   0.108   0.960
13282TIP3    H239792   6.152   0.212   0.870
13283TIP3   OH239793   2.022   3.359   0.930
13283TIP3    H139794   1.933   3.391   0.941
13283TIP3    H239795   2.072   3.401   1.000
13284TIP3   OH239796   4.876   2.548   3.482
13284TIP3    H139797   4.909   2.465   3.446
13284TIP3    H239798   4.801   2.522   3.535
13285TIP3   OH239799   5.749   6.326   4.861
13285TIP3    H139800   5.805   6.308   4.936
13285TIP3    H239801   5.663   6.345   4.898
13286TIP3   OH239802   7.100   1.654   6.035
13286TIP3    H139803   7.128   1.694   6.118
13286TIP3    H239804   7.007   1.672   6.030
13287TIP3   OH239805   7.933   6.122   1.980
13287TIP3    H139806   7.916   6.185   1.909
13287TIP3    H239807   7.846   6.087   2.002
13288TIP3   OH239808   4.056   0.886   1.819
13288TIP3    H139809   4.066   0.793   1.800
13288TIP3    H239810   4.096   0.897   1.906
13289TIP3   OH239811   3.257   1.428   2.821
13289TIP3    H139812   3.254   1.517   2.786
13289TIP3    H239813   3.190   1.426   2.889
13290TIP3   OH239814   6.300   6.054   1.695
13290TIP3    H139815   6.282   6.048   1.602
13290TIP3    H239816   6.228   6.008   1.737
13291TIP3   OH239817   4.030   2.941   4.044
13291TIP3    H139818   4.082   2.877   3.996
13291TIP3    H239819   3.960   2.965   3.983
13292TIP3   OH239820   2.279   1.875   4.812
13292TIP3    H139821   2.204   1.819   4.833
13292TIP3    H239822   2.326   1.827   4.743
13293TIP3   OH239823   3.270   3.779   2.945
13293TIP3    H139824   3.234   3.860   2.981
13293TIP3    H239825   3.355   3.804   2.908
13294TIP3   OH239826   7.494   0.360   1.181
13294TIP3    H139827   7.546   0.284   1.156
13294TIP3    H239828   7.436   0.327   1.250
13295TIP3   OH239829   4.957   6.886   2.468
13295TIP3    H139830   5.023   6.914   2.531
13295TIP3    H239831   5.005   6.830   2.406
13296TIP3   OH239832   4.421   1.319   5.740
13296TIP3    H139833   4.407   1.387   5.806
13296TIP3    H239834   4.355   1.253   5.758
13297TIP3   OH239835   6.644   4.684   0.038
13297TIP3    H139836   6.661   4.595   0.006
13297TIP3    H239837   6.561   4.708  -0.002
13298TIP3   OH239838   1.937   1.786   4.972
13298TIP3    H139839   1.967   1.787   4.881
13298TIP3    H239840   1.858   1.732   4.970
13299TIP3   OH239841   2.688   0.956   3.927
13299TIP3    H139842   2.626   1.019   3.891
13299TIP3    H239843   2.669   0.875   3.881
13300TIP3   OH239844   0.792   0.393   6.442
13300TIP3    H139845   0.703   0.413   6.412
13300TIP3    H239846   0.822   0.323   6.384
13301TIP3   OH239847   6.973   7.269   4.748
13301TIP3    H139848   6.952   7.329   4.821
13301TIP3    H239849   7.060   7.236   4.770
13302TIP3   OH239850   3.349   5.196   5.848
13302TIP3    H139851   3.326   5.256   5.919
13302TIP3    H239852   3.297   5.226   5.774
13303TIP3   OH239853   3.743   6.427   2.400
13303TIP3    H139854   3.690   6.360   2.356
13303TIP3    H239855   3.815   6.444   2.339
13304TIP3   OH239856   3.833   5.843   3.016
13304TIP3    H139857   3.916   5.890   3.011
13304TIP3    H239858   3.815   5.816   2.926
13305TIP3   OH239859   1.654   4.119   6.659
13305TIP3    H139860   1.680   4.178   6.730
13305TIP3    H239861   1.676   4.166   6.579
13306TIP3   OH239862   5.679   4.331   4.075
13306TIP3    H139863   5.688   4.353   4.168
13306TIP3    H239864   5.702   4.238   4.071
13307TIP3   OH239865   1.285   0.536   6.586
13307TIP3    H139866   1.264   0.443   6.571
13307TIP3    H239867   1.228   0.562   6.659
13308TIP3   OH239868   7.908   0.777   1.135
13308TIP3    H139869   7.967   0.718   1.182
13308TIP3    H239870   7.825   0.729   1.129
13309TIP3   OH239871   2.327   2.494   2.480
13309TIP3    H139872   2.292   2.525   2.564
13309TIP3    H239873   2.371   2.412   2.501
13310TIP3   OH239874   5.415   0.229   2.595
13310TIP3    H139875   5.416   0.309   2.542
13310TIP3    H239876   5.387   0.258   2.682
13311TIP3   OH239877   1.622   4.524   6.240
13311TIP3    H139878   1.527   4.524   6.253
13311TIP3    H239879   1.651   4.607   6.279
13312TIP3   OH239880   3.357   6.104   1.861
13312TIP3    H139881   3.281   6.066   1.819
13312TIP3    H239882   3.376   6.046   1.935
13313TIP3   OH239883   2.089   2.823   4.672
13313TIP3    H139884   2.068   2.856   4.585
13313TIP3    H239885   2.065   2.894   4.731
13314TIP3   OH239886   1.872   3.343   4.566
13314TIP3    H139887   1.963   3.311   4.563
13314TIP3    H239888   1.880   3.437   4.555
13315TIP3   OH239889   4.129   1.564   4.367
13315TIP3    H139890   4.090   1.567   4.280
13315TIP3    H239891   4.195   1.634   4.367
13316TIP3   OH239892   0.770   2.212   3.450
13316TIP3    H139893   0.828   2.209   3.374
13316TIP3    H239894   0.822   2.253   3.519
13317TIP3   OH239895   1.546   5.543   0.848
13317TIP3    H139896   1.535   5.530   0.943
13317TIP3    H239897   1.612   5.611   0.841
13318TIP3   OH239898   6.975   7.145   4.247
13318TIP3    H139899   7.030   7.101   4.182
13318TIP3    H239900   7.022   7.133   4.330
13319TIP3   OH239901   2.176   0.865   6.530
13319TIP3    H139902   2.117   0.798   6.495
13319TIP3    H239903   2.209   0.911   6.453
13320TIP3   OH239904   0.799   0.945   6.222
13320TIP3    H139905   0.753   0.939   6.138
13320TIP3    H239906   0.791   1.037   6.248
13321TIP3   OH239907   4.653   0.189   5.997
13321TIP3    H139908   4.598   0.208   6.073
13321TIP3    H239909   4.664   0.094   5.998
13322TIP3   OH239910   3.068   1.585   6.267
13322TIP3    H139911   3.044   1.519   6.202
13322TIP3    H239912   3.090   1.663   6.216
13323TIP3   OH239913   5.955   7.553   3.955
13323TIP3    H139914   5.980   7.642   3.979
13323TIP3    H239915   5.973   7.502   4.034
13324TIP3   OH239916   2.986   6.115   4.196
13324TIP3    H139917   2.912   6.057   4.180
13324TIP3    H239918   3.044   6.065   4.254
13325TIP3   OH239919   0.300   5.982   5.657
13325TIP3    H139920   0.347   5.960   5.577
13325TIP3    H239921   0.280   6.075   5.649
13326TIP3   OH239922   5.905   6.867   3.848
13326TIP3    H139923   5.921   6.870   3.943
13326TIP3    H239924   5.811   6.880   3.839
13327TIP3   OH239925   7.411   7.371   4.682
13327TIP3    H139926   7.358   7.299   4.715
13327TIP3    H239927   7.469   7.394   4.755
13328TIP3   OH239928   2.137   5.793   2.083
13328TIP3    H139929   2.110   5.811   2.173
13328TIP3    H239930   2.092   5.711   2.060
13329TIP3   OH239931   3.190   5.472   4.431
13329TIP3    H139932   3.234   5.447   4.350
13329TIP3    H239933   3.226   5.412   4.497
13330TIP3   OH239934   0.213   0.171   5.431
13330TIP3    H139935   0.207   0.162   5.336
13330TIP3    H239936   0.179   0.259   5.449
13331TIP3   OH239937   1.886   7.549   0.940
13331TIP3    H139938   1.901   7.636   0.903
13331TIP3    H239939   1.813   7.560   1.000
13332TIP3   OH239940   4.390   2.052   2.276
13332TIP3    H139941   4.309   2.003   2.258
13332TIP3    H239942   4.392   2.120   2.209
13333TIP3   OH239943   4.393   5.078   1.337
13333TIP3    H139944   4.433   5.028   1.266
13333TIP3    H239945   4.334   5.140   1.294
13334TIP3   OH239946   3.921   2.794   0.860
13334TIP3    H139947   3.967   2.873   0.888
13334TIP3    H239948   3.987   2.725   0.865
13335TIP3   OH239949   0.171   0.395   2.046
13335TIP3    H139950   0.182   0.347   2.128
13335TIP3    H239951   0.234   0.355   1.987
13336TIP3   OH239952   6.303   6.586   3.231
13336TIP3    H139953   6.296   6.492   3.212
13336TIP3    H239954   6.293   6.592   3.326
13337TIP3   OH239955   7.838   2.935   0.980
13337TIP3    H139956   7.826   3.030   0.982
13337TIP3    H239957   7.760   2.902   0.935
13338TIP3   OH239958   2.456   4.921   2.572
13338TIP3    H139959   2.443   4.982   2.499
13338TIP3    H239960   2.501   4.973   2.639
13339TIP3   OH239961   6.052   5.799   2.533
13339TIP3    H139962   6.081   5.890   2.546
13339TIP3    H239963   6.133   5.749   2.525
13340TIP3   OH239964   0.442   4.725   6.101
13340TIP3    H139965   0.380   4.701   6.171
13340TIP3    H239966   0.386   4.757   6.030
13341TIP3   OH239967   2.724   6.198   2.939
13341TIP3    H139968   2.688   6.279   2.976
13341TIP3    H239969   2.648   6.141   2.927
13342TIP3   OH239970   7.698   2.048   1.222
13342TIP3    H139971   7.774   2.060   1.279
13342TIP3    H239972   7.644   2.126   1.237
13343TIP3   OH239973   4.704   2.626   3.870
13343TIP3    H139974   4.720   2.654   3.960
13343TIP3    H239975   4.723   2.704   3.817
13344TIP3   OH239976   0.978   6.479   4.449
13344TIP3    H139977   0.998   6.426   4.526
13344TIP3    H239978   0.907   6.536   4.476
13345TIP3   OH239979   7.421   3.416   4.057
13345TIP3    H139980   7.362   3.342   4.042
13345TIP3    H239981   7.509   3.381   4.039
13346TIP3   OH239982   6.582   1.698   6.607
13346TIP3    H139983   6.511   1.673   6.548
13346TIP3    H239984   6.599   1.619   6.659
13347TIP3   OH239985   4.221   2.605   6.515
13347TIP3    H139986   4.154   2.590   6.448
13347TIP3    H239987   4.252   2.518   6.538
13348TIP3   OH239988   6.403   0.301   0.710
13348TIP3    H139989   6.349   0.303   0.789
13348TIP3    H239990   6.473   0.240   0.731
13349TIP3   OH239991   0.231   6.250   5.590
13349TIP3    H139992   0.321   6.283   5.585
13349TIP3    H239993   0.195   6.263   5.502
13350TIP3   OH239994   4.090   5.073   1.340
13350TIP3    H139995   4.173   5.034   1.366
13350TIP3    H239996   4.065   5.025   1.260
13351TIP3   OH239997   4.420   3.046   1.063
13351TIP3    H139998   4.398   3.139   1.072
13351TIP3    H239999   4.507   3.038   1.100
13352TIP3   OH240000   6.880   1.411   5.998
13352TIP3    H140001   6.853   1.484   6.053
13352TIP3    H240002   6.913   1.452   5.918
13353TIP3   OH240003   3.318   3.643   6.135
13353TIP3    H140004   3.239   3.662   6.085
13353TIP3    H240005   3.287   3.589   6.208
13354TIP3   OH240006   1.783   2.134   1.161
13354TIP3    H140007   1.848   2.102   1.224
13354TIP3    H240008   1.774   2.227   1.181
13355TIP3   OH240009   1.242   6.779   4.909
13355TIP3    H140010   1.154   6.815   4.918
13355TIP3    H240011   1.231   6.698   4.859
13356TIP3   OH240012   0.124   0.700   0.993
13356TIP3    H140013   0.170   0.639   0.936
13356TIP3    H240014   0.064   0.747   0.935
13357TIP3   OH240015   3.670   6.996   2.267
13357TIP3    H140016   3.655   6.936   2.339
13357TIP3    H240017   3.668   7.083   2.307
13358TIP3   OH240018   5.457   3.238   2.204
13358TIP3    H140019   5.482   3.316   2.254
13358TIP3    H240020   5.530   3.222   2.145
13359TIP3   OH240021   2.297   6.349   4.977
13359TIP3    H140022   2.289   6.284   4.907
13359TIP3    H240023   2.220   6.405   4.966
13360TIP3   OH240024   6.894   1.204   3.888
13360TIP3    H140025   6.882   1.200   3.793
13360TIP3    H240026   6.815   1.164   3.924
13361TIP3   OH240027   8.148   6.976   3.031
13361TIP3    H140028   8.226   6.944   3.077
13361TIP3    H240029   8.156   7.072   3.036
13362TIP3   OH240030   7.111   6.824   5.970
13362TIP3    H140031   7.116   6.796   5.878
13362TIP3    H240032   7.202   6.821   6.000
13363TIP3   OH240033   3.028   5.718   5.571
13363TIP3    H140034   3.015   5.772   5.650
13363TIP3    H240035   3.005   5.630   5.599
13364TIP3   OH240036   4.098   6.304   2.470
13364TIP3    H140037   4.031   6.262   2.524
13364TIP3    H240038   4.049   6.356   2.407
13365TIP3   OH240039   6.210   6.134   5.896
13365TIP3    H140040   6.305   6.132   5.882
13365TIP3    H240041   6.186   6.042   5.910
13366TIP3   OH240042   1.486   2.704   2.434
13366TIP3    H140043   1.425   2.658   2.492
13366TIP3    H240044   1.568   2.707   2.484
13367TIP3   OH240045   3.991   7.476   1.027
13367TIP3    H140046   3.902   7.480   1.063
13367TIP3    H240047   4.038   7.546   1.072
13368TIP3   OH240048   7.497   2.244   4.842
13368TIP3    H140049   7.454   2.329   4.857
13368TIP3    H240050   7.571   2.265   4.786
13369TIP3   OH240051   2.131   7.562   1.617
13369TIP3    H140052   2.221   7.591   1.629
13369TIP3    H240053   2.123   7.545   1.523
13370TIP3   OH240054   1.502   2.038   1.960
13370TIP3    H140055   1.517   2.045   2.054
13370TIP3    H240056   1.518   1.945   1.940
13371TIP3   OH240057   0.674   4.626   2.356
13371TIP3    H140058   0.591   4.616   2.402
13371TIP3    H240059   0.697   4.537   2.330
13372TIP3   OH240060   2.946   1.048   2.871
13372TIP3    H140061   2.851   1.040   2.876
13372TIP3    H240062   2.968   1.016   2.783
13373TIP3   OH240063   5.440   7.717   6.215
13373TIP3    H140064   5.368   7.695   6.274
13373TIP3    H240065   5.400   7.766   6.144
13374TIP3   OH240066   6.390   2.707   5.660
13374TIP3    H140067   6.364   2.652   5.586
13374TIP3    H240068   6.357   2.661   5.737
13375TIP3   OH240069   7.510   2.309   1.352
13375TIP3    H140070   7.567   2.322   1.428
13375TIP3    H240071   7.456   2.388   1.348
13376TIP3   OH240072   0.571   6.145   1.996
13376TIP3    H140073   0.571   6.188   2.082
13376TIP3    H240074   0.577   6.217   1.933
13377TIP3   OH240075   8.179   2.732   0.825
13377TIP3    H140076   8.100   2.714   0.875
13377TIP3    H240077   8.237   2.658   0.844
13378TIP3   OH240078   2.174   7.089   6.273
13378TIP3    H140079   2.143   7.131   6.353
13378TIP3    H240080   2.141   7.000   6.278
13379TIP3   OH240081   4.595   7.228   4.010
13379TIP3    H140082   4.519   7.283   4.029
13379TIP3    H240083   4.649   7.280   3.951
13380TIP3   OH240084   4.768   5.694   5.999
13380TIP3    H140085   4.685   5.696   6.047
13380TIP3    H240086   4.751   5.637   5.924
13381TIP3   OH240087   3.428   5.609   0.881
13381TIP3    H140088   3.376   5.686   0.858
13381TIP3    H240089   3.499   5.608   0.816
13382TIP3   OH240090   1.037   3.969   2.739
13382TIP3    H140091   1.069   4.026   2.670
13382TIP3    H240092   1.027   4.025   2.816
13383TIP3   OH240093   4.936   2.748   4.703
13383TIP3    H140094   5.020   2.721   4.740
13383TIP3    H240095   4.893   2.795   4.774
13384TIP3   OH240096   6.779   7.086   6.050
13384TIP3    H140097   6.832   7.128   6.117
13384TIP3    H240098   6.688   7.095   6.080
13385TIP3   OH240099   0.866   6.854   0.939
13385TIP3    H140100   0.827   6.938   0.915
13385TIP3    H240101   0.948   6.851   0.890
13386TIP3   OH240102   5.359   2.205   2.816
13386TIP3    H140103   5.333   2.292   2.785
13386TIP3    H240104   5.337   2.147   2.743
13387TIP3   OH240105   3.610   5.970   3.414
13387TIP3    H140106   3.592   5.898   3.353
13387TIP3    H240107   3.655   6.036   3.361
13388TIP3   OH240108   0.889   3.321   6.765
13388TIP3    H140109   0.794   3.322   6.770
13388TIP3    H240110   0.912   3.229   6.774
13389TIP3   OH240111   3.473   6.483   5.147
13389TIP3    H140112   3.513   6.570   5.149
13389TIP3    H240113   3.510   6.437   5.223
13390TIP3   OH240114   1.025   0.533   5.882
13390TIP3    H140115   1.101   0.543   5.825
13390TIP3    H240116   0.987   0.621   5.887
13391TIP3   OH240117   8.241   6.272   2.458
13391TIP3    H140118   8.334   6.249   2.468
13391TIP3    H240119   8.215   6.231   2.375
13392TIP3   OH240120   5.052   0.180   1.582
13392TIP3    H140121   5.033   0.179   1.676
13392TIP3    H240122   4.990   0.118   1.544
13393TIP3   OH240123   1.727   5.805   4.017
13393TIP3    H140124   1.811   5.840   4.047
13393TIP3    H240125   1.719   5.721   4.062
13394TIP3   OH240126   5.968   5.114   3.906
13394TIP3    H140127   5.931   5.036   3.864
13394TIP3    H240128   5.939   5.187   3.850
13395TIP3   OH240129   2.616   3.393   4.888
13395TIP3    H140130   2.599   3.438   4.972
13395TIP3    H240131   2.534   3.402   4.840
13396TIP3   OH240132   4.334   4.136   2.198
13396TIP3    H140133   4.390   4.065   2.230
13396TIP3    H240134   4.395   4.201   2.164
13397TIP3   OH240135   2.429   3.109   3.036
13397TIP3    H140136   2.518   3.138   3.056
13397TIP3    H240137   2.377   3.190   3.033
13398TIP3   OH240138   8.244   1.055   6.688
13398TIP3    H140139   8.161   1.012   6.712
13398TIP3    H240140   8.308   1.019   6.750
13399TIP3   OH240141   5.598   5.489   2.813
13399TIP3    H140142   5.536   5.559   2.833
13399TIP3    H240143   5.683   5.532   2.807
13400TIP3   OH240144   4.162   2.488   5.330
13400TIP3    H140145   4.105   2.561   5.354
13400TIP3    H240146   4.170   2.494   5.235
13401TIP3   OH240147   4.483   3.349   2.067
13401TIP3    H140148   4.565   3.322   2.026
13401TIP3    H240149   4.428   3.271   2.064
13402TIP3   OH240150   2.675   5.264   3.562
13402TIP3    H140151   2.746   5.232   3.506
13402TIP3    H240152   2.616   5.309   3.501
13403TIP3   OH240153   1.456   4.950   3.829
13403TIP3    H140154   1.530   4.891   3.816
13403TIP3    H240155   1.383   4.892   3.850
13404TIP3   OH240156   4.678   0.268   4.541
13404TIP3    H140157   4.630   0.294   4.620
13404TIP3    H240158   4.656   0.176   4.530
13405TIP3   OH240159   2.532   0.471   1.510
13405TIP3    H140160   2.478   0.450   1.586
13405TIP3    H240161   2.588   0.544   1.539
13406TIP3   OH240162   7.421   3.339   0.141
13406TIP3    H140163   7.353   3.276   0.167
13406TIP3    H240164   7.429   3.398   0.216
13407TIP3   OH240165   3.719   3.828   1.551
13407TIP3    H140166   3.794   3.770   1.564
13407TIP3    H240167   3.742   3.908   1.597
13408TIP3   OH240168   4.403   5.330   4.779
13408TIP3    H140169   4.311   5.351   4.761
13408TIP3    H240170   4.399   5.252   4.834
13409TIP3   OH240171   5.427   4.331   2.270
13409TIP3    H140172   5.412   4.236   2.275
13409TIP3    H240173   5.455   4.346   2.180
13410TIP3   OH240174   2.257   5.238   0.759
13410TIP3    H140175   2.343   5.212   0.793
13410TIP3    H240176   2.233   5.168   0.698
13411TIP3   OH240177   6.923   2.768   4.505
13411TIP3    H140178   6.985   2.839   4.492
13411TIP3    H240179   6.846   2.793   4.453
13412TIP3   OH240180   4.311   1.661   2.830
13412TIP3    H140181   4.304   1.650   2.925
13412TIP3    H240182   4.249   1.597   2.795
13413TIP3   OH240183   6.090   4.697   0.381
13413TIP3    H140184   6.130   4.761   0.324
13413TIP3    H240185   6.155   4.628   0.390
13414TIP3   OH240186   7.905   3.093   6.055
13414TIP3    H140187   7.985   3.122   6.100
13414TIP3    H240188   7.874   3.020   6.107
13415TIP3   OH240189   3.456   7.173   1.102
13415TIP3    H140190   3.500   7.175   1.017
13415TIP3    H240191   3.467   7.262   1.136
13416TIP3   OH240192   2.104   6.157   1.327
13416TIP3    H140193   2.125   6.152   1.234
13416TIP3    H240194   2.180   6.201   1.366
13417TIP3   OH240195   3.851   7.305   1.683
13417TIP3    H140196   3.841   7.400   1.678
13417TIP3    H240197   3.887   7.289   1.770
13418TIP3   OH240198   0.659   5.992   3.408
13418TIP3    H140199   0.738   6.045   3.404
13418TIP3    H240200   0.597   6.045   3.459
13419TIP3   OH240201   0.213   7.005   0.906
13419TIP3    H140202   0.157   7.011   0.984
13419TIP3    H240203   0.257   6.921   0.915
13420TIP3   OH240204   6.301   2.349   1.297
13420TIP3    H140205   6.396   2.338   1.294
13420TIP3    H240206   6.266   2.267   1.262
13421TIP3   OH240207   4.817   2.470   1.450
13421TIP3    H140208   4.877   2.425   1.391
13421TIP3    H240209   4.796   2.552   1.405
13422TIP3   OH240210   2.051   0.261   4.177
13422TIP3    H140211   2.084   0.215   4.254
13422TIP3    H240212   2.037   0.192   4.112
13423TIP3   OH240213   5.726   0.526   2.834
13423TIP3    H140214   5.791   0.564   2.775
13423TIP3    H240215   5.735   0.577   2.915
13424TIP3   OH240216   3.811   1.959   6.722
13424TIP3    H140217   3.846   1.871   6.736
13424TIP3    H240218   3.742   1.968   6.787
13425TIP3   OH240219   5.556   5.804   5.885
13425TIP3    H140220   5.473   5.803   5.836
13425TIP3    H240221   5.552   5.884   5.936
13426TIP3   OH240222   3.205   2.783   6.502
13426TIP3    H140223   3.205   2.789   6.406
13426TIP3    H240224   3.234   2.694   6.521
13427TIP3   OH240225   4.184   1.815   4.061
13427TIP3    H140226   4.226   1.861   4.133
13427TIP3    H240227   4.227   1.729   4.059
13428TIP3   OH240228   2.126   7.504   5.292
13428TIP3    H140229   2.048   7.451   5.276
13428TIP3    H240230   2.140   7.551   5.210
13429TIP3   OH240231   8.195   2.949   6.212
13429TIP3    H140232   8.232   2.979   6.294
13429TIP3    H240233   8.146   3.024   6.178
13430TIP3   OH240234   5.765   1.738   1.654
13430TIP3    H140235   5.811   1.774   1.730
13430TIP3    H240236   5.733   1.814   1.606
13431TIP3   OH240237   5.763   0.099   3.906
13431TIP3    H140238   5.762   0.136   3.994
13431TIP3    H240239   5.790   0.171   3.850
13432TIP3   OH240240   4.376   6.725   5.594
13432TIP3    H140241   4.334   6.781   5.528
13432TIP3    H240242   4.354   6.636   5.567
13433TIP3   OH240243   0.429   6.782   3.317
13433TIP3    H140244   0.368   6.789   3.389
13433TIP3    H240245   0.468   6.870   3.309
13434TIP3   OH240246   6.064   2.263   2.565
13434TIP3    H140247   6.011   2.339   2.538
13434TIP3    H240248   6.134   2.301   2.618
13435TIP3   OH240249   6.932   4.029   1.931
13435TIP3    H140250   6.967   3.958   1.985
13435TIP3    H240251   6.854   3.992   1.889
13436TIP3   OH240252   4.440   3.718   2.034
13436TIP3    H140253   4.376   3.771   2.080
13436TIP3    H240254   4.392   3.640   2.006
13437TIP3   OH240255   7.463   0.830   0.332
13437TIP3    H140256   7.525   0.835   0.405
13437TIP3    H240257   7.511   0.785   0.263
13438TIP3   OH240258   0.641   6.045   4.021
13438TIP3    H140259   0.721   6.006   4.056
13438TIP3    H240260   0.570   6.008   4.073
13439TIP3   OH240261   1.299   3.511   1.503
13439TIP3    H140262   1.252   3.526   1.585
13439TIP3    H240263   1.301   3.416   1.494
13440TIP3   OH240264   6.437   2.394   4.254
13440TIP3    H140265   6.399   2.414   4.169
13440TIP3    H240266   6.490   2.316   4.239
13441TIP3   OH240267   2.708   3.296   0.759
13441TIP3    H140268   2.639   3.230   0.755
13441TIP3    H240269   2.663   3.378   0.777
13442TIP3   OH240270   4.012   1.342   5.251
13442TIP3    H140271   3.967   1.352   5.167
13442TIP3    H240272   3.950   1.374   5.316
13443TIP3   OH240273   7.865   2.237   5.468
13443TIP3    H140274   7.811   2.286   5.530
13443TIP3    H240275   7.929   2.301   5.436
13444TIP3   OH240276   4.804   4.112   2.759
13444TIP3    H140277   4.817   4.027   2.800
13444TIP3    H240278   4.862   4.111   2.683
13445TIP3   OH240279   3.506   6.905   0.067
13445TIP3    H140280   3.552   6.821   0.076
13445TIP3    H240281   3.413   6.882   0.072
13446TIP3   OH240282   3.685   3.469   3.934
13446TIP3    H140283   3.738   3.397   3.968
13446TIP3    H240284   3.651   3.513   4.012
13447TIP3   OH240285   5.114   0.013   0.800
13447TIP3    H140286   5.076   0.099   0.783
13447TIP3    H240287   5.194   0.032   0.850
13448TIP3   OH240288   4.632   0.264   4.947
13448TIP3    H140289   4.620   0.329   4.878
13448TIP3    H240290   4.686   0.308   5.013
13449TIP3   OH240291   4.491   7.153   5.229
13449TIP3    H140292   4.467   7.135   5.320
13449TIP3    H240293   4.564   7.094   5.212
13450TIP3   OH240294   6.939   7.074   1.561
13450TIP3    H140295   6.900   7.108   1.641
13450TIP3    H240296   6.866   7.031   1.516
13451TIP3   OH240297   4.177   6.824   0.087
13451TIP3    H140298   4.131   6.783   0.160
13451TIP3    H240299   4.242   6.881   0.127
13452TIP3   OH240300   4.752   7.631   0.899
13452TIP3    H140301   4.742   7.577   0.821
13452TIP3    H240302   4.728   7.719   0.871
13453TIP3   OH240303   1.838   2.136   5.265
13453TIP3    H140304   1.874   2.049   5.251
13453TIP3    H240305   1.899   2.195   5.221
13454TIP3   OH240306   3.352   4.221   4.345
13454TIP3    H140307   3.271   4.173   4.361
13454TIP3    H240308   3.357   4.230   4.250
13455TIP3   OH240309   2.378   7.386   2.925
13455TIP3    H140310   2.394   7.328   2.999
13455TIP3    H240311   2.463   7.427   2.908
13456TIP3   OH240312   8.119   3.365   0.525
13456TIP3    H140313   8.211   3.365   0.496
13456TIP3    H240314   8.124   3.360   0.620
13457TIP3   OH240315   2.770   6.255   6.482
13457TIP3    H140316   2.745   6.316   6.412
13457TIP3    H240317   2.807   6.311   6.551
13458TIP3   OH240318   0.100   0.366   6.729
13458TIP3    H140319   0.009   0.356   6.754
13458TIP3    H240320   0.138   0.278   6.739
13459TIP3   OH240321   6.417   4.534   4.784
13459TIP3    H140322   6.492   4.547   4.843
13459TIP3    H240323   6.384   4.447   4.806
13460TIP3   OH240324   1.867   1.837   3.937
13460TIP3    H140325   1.902   1.844   4.026
13460TIP3    H240326   1.943   1.846   3.880
13461TIP3   OH240327   7.735   7.647   3.802
13461TIP3    H140328   7.702   7.734   3.779
13461TIP3    H240329   7.824   7.662   3.833
13462TIP3   OH240330   6.884   3.518   4.259
13462TIP3    H140331   6.893   3.430   4.221
13462TIP3    H240332   6.909   3.506   4.351
13463TIP3   OH240333   1.396   5.327   6.280
13463TIP3    H140334   1.471   5.379   6.253
13463TIP3    H240335   1.427   5.279   6.357
13464TIP3   OH240336   2.439   2.765   6.289
13464TIP3    H140337   2.508   2.715   6.245
13464TIP3    H240338   2.360   2.712   6.277
13465TIP3   OH240339   4.895   1.833   1.063
13465TIP3    H140340   4.855   1.747   1.078
13465TIP3    H240341   4.852   1.867   0.985
13466TIP3   OH240342   7.992   3.730   6.611
13466TIP3    H140343   7.937   3.693   6.680
13466TIP3    H240344   8.049   3.658   6.584
13467TIP3   OH240345   4.667   1.498   2.578
13467TIP3    H140346   4.656   1.432   2.510
13467TIP3    H240347   4.761   1.519   2.576
13468TIP3   OH240348   3.195   2.504   4.558
13468TIP3    H140349   3.183   2.413   4.533
13468TIP3    H240350   3.187   2.505   4.653
13469TIP3   OH240351   4.120   1.456   5.515
13469TIP3    H140352   4.167   1.387   5.468
13469TIP3    H240353   4.029   1.427   5.518
13470TIP3   OH240354   5.091   2.411   2.804
13470TIP3    H140355   5.010   2.366   2.828
13470TIP3    H240356   5.147   2.342   2.769
13471TIP3   OH240357   1.242   6.064   2.416
13471TIP3    H140358   1.219   6.118   2.492
13471TIP3    H240359   1.259   6.126   2.346
13472TIP3   OH240360   6.705   4.705   4.666
13472TIP3    H140361   6.744   4.619   4.676
13472TIP3    H240362   6.778   4.766   4.678
13473TIP3   OH240363   2.030   3.477   4.848
13473TIP3    H140364   1.940   3.492   4.819
13473TIP3    H240365   2.028   3.490   4.943
13474TIP3   OH240366   7.940   6.269   6.689
13474TIP3    H140367   8.016   6.314   6.725
13474TIP3    H240368   7.887   6.246   6.766
13475TIP3   OH240369   2.838   3.107   2.376
13475TIP3    H140370   2.809   3.051   2.448
13475TIP3    H240371   2.914   3.062   2.340
13476TIP3   OH240372   6.426   0.840   1.297
13476TIP3    H140373   6.437   0.764   1.239
13476TIP3    H240374   6.397   0.910   1.240
13477TIP3   OH240375   0.346   2.055   1.794
13477TIP3    H140376   0.380   1.974   1.757
13477TIP3    H240377   0.345   2.117   1.721
13478TIP3   OH240378   1.950   2.092   0.681
13478TIP3    H140379   1.903   2.082   0.598
13478TIP3    H240380   1.884   2.127   0.741
13479TIP3   OH240381   7.193   4.723   5.171
13479TIP3    H140382   7.156   4.793   5.117
13479TIP3    H240383   7.282   4.710   5.137
13480TIP3   OH240384   6.250   2.910   3.171
13480TIP3    H140385   6.308   2.982   3.145
13480TIP3    H240386   6.167   2.930   3.127
13481TIP3   OH240387   3.341   6.740   2.194
13481TIP3    H140388   3.282   6.665   2.190
13481TIP3    H240389   3.415   6.709   2.246
13482TIP3   OH240390   3.137   1.870   2.466
13482TIP3    H140391   3.123   1.892   2.374
13482TIP3    H240392   3.129   1.953   2.512
13483TIP3   OH240393   6.452   1.054   5.353
13483TIP3    H140394   6.495   1.127   5.307
13483TIP3    H240395   6.515   1.027   5.419
13484TIP3   OH240396   4.475   1.547   3.393
13484TIP3    H140397   4.530   1.497   3.454
13484TIP3    H240398   4.484   1.501   3.310
13485TIP3   OH240399   6.752   4.732   6.650
13485TIP3    H140400   6.792   4.798   6.594
13485TIP3    H240401   6.781   4.754   6.738
13486TIP3   OH240402   0.454   2.255   6.270
13486TIP3    H140403   0.503   2.175   6.254
13486TIP3    H240404   0.424   2.247   6.361
13487TIP3   OH240405   0.252   2.010   6.010
13487TIP3    H140406   0.288   2.063   5.939
13487TIP3    H240407   0.291   1.923   5.998
13488TIP3   OH240408   4.793   1.552   4.400
13488TIP3    H140409   4.722   1.546   4.336
13488TIP3    H240410   4.781   1.637   4.442
13489TIP3   OH240411   7.547   7.132   0.054
13489TIP3    H140412   7.568   7.147   0.146
13489TIP3    H240413   7.494   7.052   0.055
13490TIP3   OH240414   2.910   6.502   1.412
13490TIP3    H140415   2.894   6.594   1.389
13490TIP3    H240416   3.005   6.492   1.407
13491TIP3   OH240417   6.410   6.099   5.402
13491TIP3    H140418   6.444   6.166   5.343
13491TIP3    H240419   6.370   6.148   5.474
13492TIP3   OH240420   4.677   6.861   4.113
13492TIP3    H140421   4.681   6.826   4.024
13492TIP3    H240422   4.592   6.904   4.119
13493TIP3   OH240423   6.519   5.563   3.111
13493TIP3    H140424   6.547   5.634   3.053
13493TIP3    H240425   6.560   5.583   3.195
13494TIP3   OH240426   1.643   4.468   5.908
13494TIP3    H140427   1.562   4.493   5.954
13494TIP3    H240428   1.712   4.513   5.957
13495TIP3   OH240429   6.565   0.517   4.042
13495TIP3    H140430   6.491   0.486   4.093
13495TIP3    H240431   6.538   0.603   4.010
13496TIP3   OH240432   8.037   7.664   2.433
13496TIP3    H140433   8.087   7.639   2.510
13496TIP3    H240434   8.103   7.697   2.371
13497TIP3   OH240435   1.481   2.371   0.708
13497TIP3    H140436   1.481   2.449   0.653
13497TIP3    H240437   1.506   2.403   0.795
13498TIP3   OH240438   4.686   7.223   1.886
13498TIP3    H140439   4.727   7.295   1.933
13498TIP3    H240440   4.687   7.249   1.794
13499TIP3   OH240441   5.263   0.722   4.799
13499TIP3    H140442   5.316   0.801   4.788
13499TIP3    H240443   5.311   0.655   4.751
13500TIP3   OH240444   2.031   4.562   0.905
13500TIP3    H140445   1.983   4.629   0.857
13500TIP3    H240446   2.122   4.576   0.883
13501TIP3   OH240447   1.253   0.281   5.991
13501TIP3    H140448   1.244   0.206   6.049
13501TIP3    H240449   1.201   0.259   5.914
13502TIP3   OH240450   3.797   1.764   0.040
13502TIP3    H140451   3.817   1.833  -0.023
13502TIP3    H240452   3.772   1.810   0.120
13503TIP3   OH240453   7.765   5.540   3.796
13503TIP3    H140454   7.811   5.504   3.720
13503TIP3    H240455   7.732   5.625   3.767
13504TIP3   OH240456   1.707   6.993   4.432
13504TIP3    H140457   1.785   7.048   4.437
13504TIP3    H240458   1.725   6.931   4.362
13505TIP3   OH240459   1.544   2.957   3.641
13505TIP3    H140460   1.486   3.011   3.587
13505TIP3    H240461   1.516   2.974   3.731
13506TIP3   OH240462   3.231   6.763   6.283
13506TIP3    H140463   3.145   6.801   6.267
13506TIP3    H240464   3.248   6.779   6.376
13507TIP3   OH240465   7.250   1.886   5.828
13507TIP3    H140466   7.234   1.798   5.795
13507TIP3    H240467   7.336   1.910   5.792
13508TIP3   OH240468   6.168   6.186   1.968
13508TIP3    H140469   6.195   6.260   1.914
13508TIP3    H240470   6.218   6.196   2.049
13509TIP3   OH240471   3.239   6.187   3.339
13509TIP3    H140472   3.326   6.195   3.300
13509TIP3    H240473   3.183   6.158   3.267
13510TIP3   OH240474   5.247   5.969   5.780
13510TIP3    H140475   5.186   5.899   5.757
13510TIP3    H240476   5.276   5.947   5.869
13511TIP3   OH240477   7.055   0.495   4.528
13511TIP3    H140478   7.122   0.428   4.542
13511TIP3    H240479   7.023   0.479   4.439
13512TIP3   OH240480   7.682   4.141   4.373
13512TIP3    H140481   7.622   4.096   4.433
13512TIP3    H240482   7.644   4.125   4.286
13513TIP3   OH240483   5.634   2.739   2.136
13513TIP3    H140484   5.558   2.757   2.081
13513TIP3    H240485   5.631   2.807   2.203
13514TIP3   OH240486   3.535   1.091   5.602
13514TIP3    H140487   3.605   1.028   5.620
13514TIP3    H240488   3.472   1.042   5.548
13515TIP3   OH240489   1.363   1.921   2.439
13515TIP3    H140490   1.271   1.920   2.414
13515TIP3    H240491   1.369   1.855   2.509
13516TIP3   OH240492   0.066   4.213   4.407
13516TIP3    H140493   0.079   4.299   4.366
13516TIP3    H240494   0.155   4.177   4.414
13517TIP3   OH240495   7.859   2.476   5.030
13517TIP3    H140496   7.892   2.471   5.120
13517TIP3    H240497   7.846   2.385   5.003
13518TIP3   OH240498   0.371   1.110   2.697
13518TIP3    H140499   0.361   1.178   2.764
13518TIP3    H240500   0.371   1.028   2.746
13519TIP3   OH240501   0.382   5.370   0.541
13519TIP3    H140502   0.414   5.409   0.461
13519TIP3    H240503   0.290   5.396   0.545
13520TIP3   OH240504   5.682   4.745   5.894
13520TIP3    H140505   5.590   4.752   5.921
13520TIP3    H240506   5.722   4.827   5.923
13521TIP3   OH240507   5.641   4.771   2.003
13521TIP3    H140508   5.679   4.857   1.984
13521TIP3    H240509   5.633   4.768   2.098
13522TIP3   OH240510   0.414   2.136   2.053
13522TIP3    H140511   0.452   2.220   2.079
13522TIP3    H240512   0.411   2.141   1.957
13523TIP3   OH240513   1.141   3.996   1.116
13523TIP3    H140514   1.154   4.069   1.177
13523TIP3    H240515   1.229   3.960   1.103
13524TIP3   OH240516   4.877   4.731   6.667
13524TIP3    H140517   4.830   4.648   6.673
13524TIP3    H240518   4.925   4.726   6.584
13525TIP3   OH240519   0.040   2.845   5.825
13525TIP3    H140520   0.070   2.840   5.915
13525TIP3    H240521   0.093   2.780   5.778
13526TIP3   OH240522   6.294   7.088   5.364
13526TIP3    H140523   6.269   7.000   5.393
13526TIP3    H240524   6.221   7.117   5.310
13527TIP3   OH240525   5.691   0.374   0.433
13527TIP3    H140526   5.621   0.316   0.467
13527TIP3    H240527   5.648   0.426   0.366
13528TIP3   OH240528   3.193   7.557   2.822
13528TIP3    H140529   3.127   7.521   2.882
13528TIP3    H240530   3.217   7.484   2.766
13529TIP3   OH240531   2.563   6.453   6.666
13529TIP3    H140532   2.532   6.518   6.728
13529TIP3    H240533   2.596   6.503   6.591
13530TIP3   OH240534   8.271   6.872   0.311
13530TIP3    H140535   8.350   6.915   0.279
13530TIP3    H240536   8.222   6.850   0.232
13531TIP3   OH240537   7.156   3.915   5.127
13531TIP3    H140538   7.208   3.995   5.123
13531TIP3    H240539   7.221   3.844   5.122
13532TIP3   OH240540   0.925   7.769   2.010
13532TIP3    H140541   0.876   7.687   1.999
13532TIP3    H240542   0.860   7.833   2.037
13533TIP3   OH240543   2.995   7.754   0.195
13533TIP3    H140544   2.974   7.718   0.282
13533TIP3    H240545   2.918   7.806   0.172
13534TIP3   OH240546   0.852   0.103   0.272
13534TIP3    H140547   0.841   0.186   0.225
13534TIP3    H240548   0.785   0.045   0.234
13535TIP3   OH240549   6.889   0.994   1.095
13535TIP3    H140550   6.972   1.011   1.140
13535TIP3    H240551   6.888   0.900   1.082
13536TIP3   OH240552   1.547   4.158   5.283
13536TIP3    H140553   1.495   4.083   5.313
13536TIP3    H240554   1.611   4.119   5.223
13537TIP3   OH240555   3.519   5.210   6.143
13537TIP3    H140556   3.432   5.226   6.106
13537TIP3    H240557   3.503   5.151   6.217
13538TIP3   OH240558   7.327   2.557   3.052
13538TIP3    H140559   7.249   2.549   3.107
13538TIP3    H240560   7.300   2.522   2.967
13539TIP3   OH240561   0.084   3.315   0.417
13539TIP3    H140562   0.148   3.252   0.383
13539TIP3    H240563   0.108   3.326   0.509
13540TIP3   OH240564   3.826   6.127   6.026
13540TIP3    H140565   3.798   6.040   6.052
13540TIP3    H240566   3.882   6.112   5.949
13541TIP3   OH240567   7.498   7.804   3.690
13541TIP3    H140568   7.489   7.824   3.597
13541TIP3    H240569   7.416   7.759   3.713
13542TIP3   OH240570   6.704   0.445   6.516
13542TIP3    H140571   6.771   0.421   6.580
13542TIP3    H240572   6.732   0.403   6.435
13543TIP3   OH240573   7.963   1.821   0.759
13543TIP3    H140574   7.870   1.834   0.779
13543TIP3    H240575   7.998   1.772   0.833
13544TIP3   OH240576   0.083   6.189   5.962
13544TIP3    H140577   0.036   6.148   5.889
13544TIP3    H240578   0.142   6.120   5.994
13545TIP3   OH240579   3.533   1.408   3.608
13545TIP3    H140580   3.500   1.466   3.677
13545TIP3    H240581   3.519   1.319   3.642
13546TIP3   OH240582   5.860   2.300   2.082
13546TIP3    H140583   5.888   2.223   2.131
13546TIP3    H240584   5.922   2.368   2.106
13547TIP3   OH240585   2.235   3.438   5.197
13547TIP3    H140586   2.258   3.525   5.166
13547TIP3    H240587   2.315   3.387   5.189
13548TIP3   OH240588   4.038   1.793   3.409
13548TIP3    H140589   4.052   1.885   3.388
13548TIP3    H240590   4.119   1.750   3.382
13549TIP3   OH240591   1.074   4.158   6.493
13549TIP3    H140592   1.042   4.076   6.529
13549TIP3    H240593   1.002   4.190   6.438
13550TIP3   OH240594   6.532   2.785   4.061
13550TIP3    H140595   6.568   2.808   4.146
13550TIP3    H240596   6.523   2.869   4.015
13551TIP3   OH240597   3.141   5.318   3.985
13551TIP3    H140598   3.123   5.250   4.049
13551TIP3    H240599   3.059   5.328   3.937
13552TIP3   OH240600   6.968   5.638   0.083
13552TIP3    H140601   7.051   5.597   0.056
13552TIP3    H240602   6.994   5.724   0.117
13553TIP3   OH240603   0.952   6.308   1.699
13553TIP3    H140604   0.949   6.378   1.634
13553TIP3    H240605   0.861   6.287   1.717
13554TIP3   OH240606   2.295   3.104   6.677
13554TIP3    H140607   2.285   3.014   6.708
13554TIP3    H240608   2.331   3.095   6.588
13555TIP3   OH240609   3.048   3.316   5.495
13555TIP3    H140610   3.000   3.389   5.532
13555TIP3    H240611   2.980   3.255   5.464
13556TIP3   OH240612   5.752   6.319   1.298
13556TIP3    H140613   5.846   6.335   1.295
13556TIP3    H240614   5.734   6.300   1.390
13557TIP3   OH240615   7.945   2.066   1.434
13557TIP3    H140616   7.951   2.144   1.380
13557TIP3    H240617   7.980   2.092   1.519
13558TIP3   OH240618   6.388   3.231   2.583
13558TIP3    H140619   6.372   3.244   2.489
13558TIP3    H240620   6.308   3.261   2.626
13559TIP3   OH240621   1.108   2.231   5.957
13559TIP3    H140622   1.201   2.233   5.981
13559TIP3    H240623   1.081   2.141   5.975
13560TIP3   OH240624   7.390   4.776   2.210
13560TIP3    H140625   7.338   4.850   2.241
13560TIP3    H240626   7.388   4.784   2.114
13561TIP3   OH240627   3.472   5.573   6.079
13561TIP3    H140628   3.457   5.631   6.004
13561TIP3    H240629   3.566   5.554   6.076
13562TIP3   OH240630   6.205   3.000   0.848
13562TIP3    H140631   6.182   2.944   0.774
13562TIP3    H240632   6.299   3.015   0.839
13563TIP3   OH240633   1.152   0.716   0.303
13563TIP3    H140634   1.128   0.647   0.241
13563TIP3    H240635   1.243   0.697   0.326
13564TIP3   OH240636   3.857   6.905   2.041
13564TIP3    H140637   3.865   6.810   2.056
13564TIP3    H240638   3.800   6.935   2.112
13565TIP3   OH240639   6.045   7.532   2.310
13565TIP3    H140640   6.069   7.480   2.233
13565TIP3    H240641   6.090   7.615   2.298
13566TIP3   OH240642   4.695   5.543   0.231
13566TIP3    H140643   4.718   5.557   0.139
13566TIP3    H240644   4.612   5.496   0.228
13567TIP3   OH240645   1.924   4.919   1.144
13567TIP3    H140646   1.868   4.997   1.155
13567TIP3    H240647   1.862   4.846   1.143
13568TIP3   OH240648   7.828   5.622   4.310
13568TIP3    H140649   7.798   5.712   4.294
13568TIP3    H240650   7.803   5.574   4.231
13569TIP3   OH240651   3.311   1.193   5.782
13569TIP3    H140652   3.285   1.283   5.800
13569TIP3    H240653   3.368   1.200   5.705
13570TIP3   OH240654   5.193   3.163   2.241
13570TIP3    H140655   5.280   3.187   2.210
13570TIP3    H240656   5.176   3.223   2.314
13571TIP3   OH240657   2.430   4.992   2.310
13571TIP3    H140658   2.388   4.907   2.325
13571TIP3    H240659   2.384   5.029   2.234
13572TIP3   OH240660   6.687   7.559   4.302
13572TIP3    H140661   6.768   7.512   4.289
13572TIP3    H240662   6.623   7.492   4.326
13573TIP3   OH240663   1.975   1.240   3.797
13573TIP3    H140664   1.930   1.318   3.832
13573TIP3    H240665   1.974   1.178   3.870
13574TIP3   OH240666   5.534   5.854   3.083
13574TIP3    H140667   5.479   5.932   3.088
13574TIP3    H240668   5.603   5.869   3.148
13575TIP3   OH240669   7.931   7.455   6.571
13575TIP3    H140670   8.007   7.403   6.598
13575TIP3    H240671   7.892   7.404   6.500
13576TIP3   OH240672   6.427   3.175   6.753
13576TIP3    H140673   6.368   3.148   6.682
13576TIP3    H240674   6.491   3.104   6.758
13577TIP3   OH240675   7.058   6.685   1.936
13577TIP3    H140676   6.977   6.735   1.923
13577TIP3    H240677   7.081   6.700   2.027
13578TIP3   OH240678   2.099   6.575   1.783
13578TIP3    H140679   2.191   6.562   1.805
13578TIP3    H240680   2.096   6.663   1.745
13579TIP3   OH240681   3.113   3.614   4.209
13579TIP3    H140682   3.075   3.637   4.125
13579TIP3    H240683   3.199   3.655   4.210
13580TIP3   OH240684   5.370   1.742   1.034
13580TIP3    H140685   5.303   1.717   1.098
13580TIP3    H240686   5.328   1.808   0.980
13581TIP3   OH240687   4.585   7.630   1.815
13581TIP3    H140688   4.651   7.617   1.883
13581TIP3    H240689   4.624   7.593   1.736
13582TIP3   OH240690   6.769   1.585   2.493
13582TIP3    H140691   6.688   1.534   2.503
13582TIP3    H240692   6.784   1.587   2.398
13583TIP3   OH240693   5.371   3.364   4.967
13583TIP3    H140694   5.416   3.324   4.892
13583TIP3    H240695   5.396   3.456   4.964
13584TIP3   OH240696   7.513   6.600   5.944
13584TIP3    H140697   7.476   6.643   5.867
13584TIP3    H240698   7.453   6.527   5.961
13585TIP3   OH240699   5.906   4.171   6.163
13585TIP3    H140700   5.851   4.203   6.234
13585TIP3    H240701   5.990   4.153   6.204
13586TIP3   OH240702   2.282   5.661   2.952
13586TIP3    H140703   2.259   5.578   2.910
13586TIP3    H240704   2.275   5.643   3.046
13587TIP3   OH240705   2.087   3.206   2.162
13587TIP3    H140706   2.064   3.115   2.144
13587TIP3    H240707   2.137   3.203   2.244
13588TIP3   OH240708   7.792   1.586   1.967
13588TIP3    H140709   7.875   1.615   2.006
13588TIP3    H240710   7.766   1.658   1.910
13589TIP3   OH240711   7.024   2.137   2.882
13589TIP3    H140712   7.037   2.213   2.824
13589TIP3    H240713   6.940   2.155   2.926
13590TIP3   OH240714   7.343   7.356   3.042
13590TIP3    H140715   7.365   7.431   2.987
13590TIP3    H240716   7.255   7.331   3.013
13591TIP3   OH240717   2.577   5.920   6.311
13591TIP3    H140718   2.670   5.939   6.323
13591TIP3    H240719   2.536   5.954   6.391
13592TIP3   OH240720   3.457   3.811   2.698
13592TIP3    H140721   3.439   3.759   2.619
13592TIP3    H240722   3.544   3.782   2.725
13593TIP3   OH240723   0.610   7.497   4.093
13593TIP3    H140724   0.639   7.421   4.042
13593TIP3    H240725   0.688   7.551   4.101
13594TIP3   OH240726   7.771   5.259   2.080
13594TIP3    H140727   7.829   5.325   2.118
13594TIP3    H240728   7.683   5.288   2.101
13595TIP3   OH240729   6.542   7.221   4.634
13595TIP3    H140730   6.630   7.239   4.601
13595TIP3    H240731   6.488   7.210   4.556
13596TIP3   OH240732   1.512   7.418   2.424
13596TIP3    H140733   1.434   7.363   2.433
13596TIP3    H240734   1.581   7.367   2.467
13597TIP3   OH240735   7.709   3.964   6.395
13597TIP3    H140736   7.667   3.925   6.472
13597TIP3    H240737   7.791   4.002   6.429
13598TIP3   OH240738   7.301   6.515   0.203
13598TIP3    H140739   7.334   6.489   0.290
13598TIP3    H240740   7.373   6.494   0.143
13599TIP3   OH240741   8.233   1.433   0.070
13599TIP3    H140742   8.247   1.492   0.144
13599TIP3    H240743   8.223   1.346   0.110
13600TIP3   OH240744   7.290   1.737   0.631
13600TIP3    H140745   7.348   1.674   0.674
13600TIP3    H240746   7.321   1.741   0.541
13601TIP3   OH240747   6.975   2.428   0.294
13601TIP3    H140748   6.965   2.502   0.235
13601TIP3    H240749   6.894   2.426   0.345
13602TIP3   OH240750   4.178   5.561   2.315
13602TIP3    H140751   4.210   5.548   2.405
13602TIP3    H240752   4.258   5.577   2.264
13603TIP3   OH240753   0.464   6.323   4.724
13603TIP3    H140754   0.428   6.235   4.730
13603TIP3    H240755   0.523   6.320   4.648
13604TIP3   OH240756   5.505   3.658   2.101
13604TIP3    H140757   5.438   3.710   2.056
13604TIP3    H240758   5.585   3.672   2.049
13605TIP3   OH240759   3.949   5.857   3.310
13605TIP3    H140760   4.039   5.884   3.289
13605TIP3    H240761   3.940   5.771   3.268
13606TIP3   OH240762   3.955   4.270   6.695
13606TIP3    H140763   4.020   4.201   6.684
13606TIP3    H240764   3.876   4.235   6.655
13607TIP3   OH240765   1.523   6.568   2.326
13607TIP3    H140766   1.572   6.596   2.249
13607TIP3    H240767   1.564   6.487   2.353
13608TIP3   OH240768   7.573   1.777   6.025
13608TIP3    H140769   7.595   1.864   6.056
13608TIP3    H240770   7.547   1.729   6.103
13609TIP3   OH240771   0.225   2.205   5.401
13609TIP3    H140772   0.228   2.296   5.371
13609TIP3    H240773   0.201   2.155   5.323
13610TIP3   OH240774   8.279   2.923   4.158
13610TIP3    H140775   8.366   2.893   4.184
13610TIP3    H240776   8.290   2.951   4.067
13611TIP3   OH240777   6.810   2.755   3.537
13611TIP3    H140778   6.728   2.726   3.498
13611TIP3    H240779   6.842   2.823   3.478
13612TIP3   OH240780   3.948   5.928   5.282
13612TIP3    H140781   3.924   5.957   5.194
13612TIP3    H240782   3.930   5.834   5.282
13613TIP3   OH240783   6.304   6.809   5.427
13613TIP3    H140784   6.390   6.823   5.466
13613TIP3    H240785   6.316   6.737   5.366
13614TIP3   OH240786   2.239   4.407   6.728
13614TIP3    H140787   2.206   4.323   6.760
13614TIP3    H240788   2.334   4.400   6.739
13615TIP3   OH240789   2.646   0.174   5.080
13615TIP3    H140790   2.559   0.136   5.071
13615TIP3    H240791   2.671   0.200   4.992
13616TIP3   OH240792   7.336   3.164   3.559
13616TIP3    H140793   7.395   3.230   3.524
13616TIP3    H240794   7.289   3.208   3.630
13617TIP3   OH240795   3.220   0.255   0.641
13617TIP3    H140796   3.251   0.234   0.730
13617TIP3    H240797   3.161   0.183   0.620
13618TIP3   OH240798   5.591   2.196   1.987
13618TIP3    H140799   5.671   2.247   1.999
13618TIP3    H240800   5.522   2.260   1.974
13619TIP3   OH240801   6.558   6.029   0.309
13619TIP3    H140802   6.615   6.085   0.360
13619TIP3    H240803   6.494   5.995   0.372
13620TIP3   OH240804   3.949   5.356   0.301
13620TIP3    H140805   4.031   5.382   0.343
13620TIP3    H240806   3.973   5.344   0.209
13621TIP3   OH240807   2.518   3.429   1.241
13621TIP3    H140808   2.504   3.441   1.147
13621TIP3    H240809   2.510   3.517   1.278
13622TIP3   OH240810   6.381   1.313   6.359
13622TIP3    H140811   6.382   1.226   6.399
13622TIP3    H240812   6.388   1.297   6.265
13623TIP3   OH240813   5.072   4.748   3.110
13623TIP3    H140814   4.977   4.746   3.095
13623TIP3    H240815   5.110   4.722   3.026
13624TIP3   OH240816   3.362   4.403   5.544
13624TIP3    H140817   3.287   4.347   5.564
13624TIP3    H240818   3.349   4.480   5.599
13625TIP3   OH240819   2.405   2.942   0.355
13625TIP3    H140820   2.401   2.854   0.393
13625TIP3    H240821   2.317   2.978   0.369
13626TIP3   OH240822   6.997   7.274   3.776
13626TIP3    H140823   7.059   7.239   3.712
13626TIP3    H240824   6.924   7.305   3.723
13627TIP3   OH240825   1.845   3.898   6.652
13627TIP3    H140826   1.852   3.844   6.730
13627TIP3    H240827   1.796   3.976   6.680
13628TIP3   OH240828   7.763   6.308   0.446
13628TIP3    H140829   7.792   6.237   0.390
13628TIP3    H240830   7.740   6.265   0.529
13629TIP3   OH240831   7.330   2.650   0.478
13629TIP3    H140832   7.402   2.588   0.478
13629TIP3    H240833   7.362   2.725   0.528
13630TIP3   OH240834   1.484   1.547   3.013
13630TIP3    H140835   1.411   1.491   3.039
13630TIP3    H240836   1.559   1.487   3.008
13631TIP3   OH240837   7.131   3.179   5.756
13631TIP3    H140838   7.183   3.242   5.806
13631TIP3    H240839   7.192   3.141   5.694
13632TIP3   OH240840   4.818   4.835   5.789
13632TIP3    H140841   4.821   4.823   5.884
13632TIP3    H240842   4.901   4.800   5.758
13633TIP3   OH240843   5.409   5.917   5.121
13633TIP3    H140844   5.418   5.833   5.166
13633TIP3    H240845   5.417   5.983   5.190
13634TIP3   OH240846   4.787   0.128   2.332
13634TIP3    H140847   4.813   0.211   2.292
13634TIP3    H240848   4.704   0.106   2.291
13635TIP3   OH240849   1.069   2.756   1.814
13635TIP3    H140850   1.054   2.699   1.889
13635TIP3    H240851   1.164   2.767   1.809
13636TIP3   OH240852   7.168   0.329   5.499
13636TIP3    H140853   7.103   0.300   5.563
13636TIP3    H240854   7.168   0.261   5.432
13637TIP3   OH240855   1.316   1.732   5.390
13637TIP3    H140856   1.290   1.769   5.305
13637TIP3    H240857   1.382   1.667   5.368
13638TIP3   OH240858   5.121   6.593   5.281
13638TIP3    H140859   5.208   6.621   5.254
13638TIP3    H240860   5.098   6.523   5.220
13639TIP3   OH240861   5.072   7.222   2.506
13639TIP3    H140862   5.021   7.267   2.572
13639TIP3    H240863   5.163   7.246   2.525
13640TIP3   OH240864   0.188   0.519   0.777
13640TIP3    H140865   0.094   0.525   0.759
13640TIP3    H240866   0.229   0.519   0.690
13641TIP3   OH240867   0.826   1.669   6.771
13641TIP3    H140868   0.860   1.759   6.773
13641TIP3    H240869   0.881   1.624   6.707
13642TIP3   OH240870   6.075   4.231   6.729
13642TIP3    H140871   6.136   4.292   6.772
13642TIP3    H240872   6.066   4.264   6.640
13643TIP3   OH240873   1.109   2.470   5.288
13643TIP3    H140874   1.144   2.503   5.204
13643TIP3    H240875   1.185   2.432   5.332
13644TIP3   OH240876   0.406   0.754   4.537
13644TIP3    H140877   0.418   0.801   4.620
13644TIP3    H240878   0.490   0.764   4.493
13645TIP3   OH240879   2.999   5.475   0.868
13645TIP3    H140880   3.031   5.485   0.957
13645TIP3    H240881   3.032   5.389   0.841
13646TIP3   OH240882   3.948   3.754   3.310
13646TIP3    H140883   3.866   3.704   3.311
13646TIP3    H240884   3.940   3.813   3.234
13647TIP3   OH240885   1.939   2.472   2.993
13647TIP3    H140886   1.991   2.551   2.980
13647TIP3    H240887   1.925   2.467   3.087
13648TIP3   OH240888   1.561   3.414   5.907
13648TIP3    H140889   1.550   3.353   5.833
13648TIP3    H240890   1.656   3.419   5.920
13649TIP3   OH240891   1.879   1.666   0.147
13649TIP3    H140892   1.812   1.731   0.127
13649TIP3    H240893   1.948   1.716   0.190
13650TIP3   OH240894   4.231   3.840   6.428
13650TIP3    H140895   4.178   3.894   6.370
13650TIP3    H240896   4.179   3.832   6.508
13651TIP3   OH240897   6.416   2.569   0.203
13651TIP3    H140898   6.396   2.588   0.295
13651TIP3    H240899   6.338   2.523   0.171
13652TIP3   OH240900   7.339   2.375   6.580
13652TIP3    H140901   7.347   2.283   6.608
13652TIP3    H240902   7.385   2.379   6.497
13653TIP3   OH240903   8.178   6.893   0.732
13653TIP3    H140904   8.250   6.894   0.668
13653TIP3    H240905   8.135   6.808   0.718
13654TIP3   OH240906   6.675   4.976   5.221
13654TIP3    H140907   6.754   4.924   5.233
13654TIP3    H240908   6.621   4.924   5.161
13655TIP3   OH240909   2.803   4.602   3.795
13655TIP3    H140910   2.723   4.649   3.773
13655TIP3    H240911   2.855   4.605   3.714
13656TIP3   OH240912   2.352   2.537   5.001
13656TIP3    H140913   2.411   2.549   4.927
13656TIP3    H240914   2.268   2.573   4.972
13657TIP3   OH240915   0.842   4.614   3.744
13657TIP3    H140916   0.863   4.530   3.783
13657TIP3    H240917   0.751   4.606   3.715
13658TIP3   OH240918   2.026   1.099   0.275
13658TIP3    H140919   2.004   1.131   0.363
13658TIP3    H240920   2.116   1.129   0.261
13659TIP3   OH240921   8.038   2.079   0.378
13659TIP3    H140922   8.054   1.997   0.332
13659TIP3    H240923   7.998   2.136   0.311
13660TIP3   OH240924   5.056   1.509   6.270
13660TIP3    H140925   4.999   1.444   6.311
13660TIP3    H240926   5.005   1.590   6.272
13661TIP3   OH240927   8.171   7.310   6.110
13661TIP3    H140928   8.091   7.335   6.156
13661TIP3    H240929   8.241   7.323   6.174
13662TIP3   OH240930   3.668   5.504   2.097
13662TIP3    H140931   3.757   5.507   2.132
13662TIP3    H240932   3.626   5.433   2.146
13663TIP3   OH240933   5.770   3.620   0.795
13663TIP3    H140934   5.743   3.644   0.707
13663TIP3    H240935   5.742   3.694   0.849
13664TIP3   OH240936   0.489   5.964   1.055
13664TIP3    H140937   0.483   6.059   1.045
13664TIP3    H240938   0.565   5.950   1.112
13665TIP3   OH240939   2.569   0.983   4.703
13665TIP3    H140940   2.599   0.897   4.673
13665TIP3    H240941   2.581   0.981   4.798
13666TIP3   OH240942   1.470   5.942   0.273
13666TIP3    H140943   1.450   5.920   0.182
13666TIP3    H240944   1.443   5.865   0.323
13667TIP3   OH240945   3.877   4.891   6.436
13667TIP3    H140946   3.918   4.837   6.505
13667TIP3    H240947   3.818   4.949   6.483
13668TIP3   OH240948   1.678   2.716   1.940
13668TIP3    H140949   1.682   2.712   1.844
13668TIP3    H240950   1.585   2.705   1.960
13669TIP3   OH240951   2.888   1.266   2.194
13669TIP3    H140952   2.977   1.265   2.159
13669TIP3    H240953   2.899   1.293   2.286
13670TIP3   OH240954   5.179   5.656   0.747
13670TIP3    H140955   5.128   5.652   0.666
13670TIP3    H240956   5.234   5.734   0.737
13671TIP3   OH240957   6.247   0.650   5.097
13671TIP3    H140958   6.255   0.706   5.174
13671TIP3    H240959   6.324   0.594   5.099
13672TIP3   OH240960   6.699   4.009   0.865
13672TIP3    H140961   6.605   4.009   0.884
13672TIP3    H240962   6.704   4.012   0.770
13673TIP3   OH240963   3.085   2.192   0.159
13673TIP3    H140964   3.070   2.251   0.232
13673TIP3    H240965   3.050   2.108   0.188
13674TIP3   OH240966   3.004   6.921   6.254
13674TIP3    H140967   2.954   6.896   6.176
13674TIP3    H240968   3.008   7.016   6.250
13675TIP3   OH240969   5.419   3.923   6.741
13675TIP3    H140970   5.461   3.910   6.656
13675TIP3    H240971   5.329   3.947   6.720
13676TIP3   OH240972   2.374   6.870   2.973
13676TIP3    H140973   2.463   6.889   3.004
13676TIP3    H240974   2.355   6.941   2.911
13677TIP3   OH240975   8.158   2.049   4.384
13677TIP3    H140976   8.233   2.083   4.433
13677TIP3    H240977   8.092   2.118   4.391
13678TIP3   OH240978   2.024   7.454   2.685
13678TIP3    H140979   2.057   7.514   2.617
13678TIP3    H240980   2.040   7.501   2.767
13679TIP3   OH240981   3.385   6.644   3.936
13679TIP3    H140982   3.339   6.717   3.896
13679TIP3    H240983   3.428   6.600   3.863
13680TIP3   OH240984   0.708   2.832   5.603
13680TIP3    H140985   0.737   2.919   5.575
13680TIP3    H240986   0.766   2.772   5.557
13681TIP3   OH240987   3.397   3.319   3.151
13681TIP3    H140988   3.346   3.378   3.096
13681TIP3    H240989   3.437   3.257   3.089
13682TIP3   OH240990   3.487   7.223   0.812
13682TIP3    H140991   3.418   7.289   0.801
13682TIP3    H240992   3.497   7.185   0.724
13683TIP3   OH240993   1.751   4.624   2.336
13683TIP3    H140994   1.834   4.667   2.354
13683TIP3    H240995   1.754   4.605   2.242
13684TIP3   OH240996   0.172   2.499   5.919
13684TIP3    H140997   0.124   2.431   5.966
13684TIP3    H240998   0.264   2.479   5.936
13685TIP3   OH240999   2.048   3.485   6.343
13685TIP3    H141000   2.062   3.530   6.259
13685TIP3    H241001   2.030   3.556   6.405
13686TIP3   OH241002   4.457   2.887   5.308
13686TIP3    H141003   4.402   2.947   5.360
13686TIP3    H241004   4.543   2.892   5.349
13687TIP3   OH241005   2.280   1.843   2.728
13687TIP3    H141006   2.241   1.924   2.761
13687TIP3    H241007   2.343   1.818   2.796
13688TIP3   OH241008   0.926   7.400   5.958
13688TIP3    H141009   0.982   7.399   6.035
13688TIP3    H241010   0.962   7.468   5.902
13689TIP3   OH241011   3.101   4.190   2.331
13689TIP3    H141012   3.106   4.243   2.251
13689TIP3    H241013   3.187   4.199   2.371
13690TIP3   OH241014   6.170   6.402   5.905
13690TIP3    H141015   6.255   6.430   5.873
13690TIP3    H241016   6.177   6.307   5.914
13691TIP3   OH241017   7.324   4.950   3.947
13691TIP3    H141018   7.417   4.933   3.935
13691TIP3    H241019   7.296   4.885   4.012
13692TIP3   OH241020   4.595   4.733   6.435
13692TIP3    H141021   4.535   4.676   6.387
13692TIP3    H241022   4.598   4.696   6.523
13693TIP3   OH241023   2.181   5.516   4.869
13693TIP3    H141024   2.267   5.500   4.908
13693TIP3    H241025   2.171   5.448   4.803
13694TIP3   OH241026   4.647   6.684   3.313
13694TIP3    H141027   4.663   6.777   3.298
13694TIP3    H241028   4.630   6.677   3.407
13695TIP3   OH241029   0.262   2.763   6.047
13695TIP3    H141030   0.226   2.675   6.043
13695TIP3    H241031   0.352   2.751   6.077
13696TIP3   OH241032   5.247   1.033   3.912
13696TIP3    H141033   5.286   0.964   3.966
13696TIP3    H241034   5.220   1.100   3.974
13697TIP3   OH241035   2.256   2.499   3.704
13697TIP3    H141036   2.185   2.555   3.735
13697TIP3    H241037   2.215   2.415   3.687
13698TIP3   OH241038   6.487   0.731   5.628
13698TIP3    H141039   6.396   0.747   5.603
13698TIP3    H241040   6.484   0.648   5.676
13699TIP3   OH241041   7.018   4.685   1.763
13699TIP3    H141042   7.052   4.773   1.777
13699TIP3    H241043   7.023   4.672   1.668
13700TIP3   OH241044   1.457   4.137   6.367
13700TIP3    H141045   1.457   4.080   6.444
13700TIP3    H241046   1.549   4.140   6.340
13701TIP3   OH241047   5.184   7.490   4.831
13701TIP3    H141048   5.161   7.575   4.868
13701TIP3    H241049   5.273   7.473   4.864
13702TIP3   OH241050   1.755   1.922   0.105
13702TIP3    H141051   1.741   2.016   0.093
13702TIP3    H241052   1.695   1.897   0.175
13703TIP3   OH241053   2.776   2.842   1.542
13703TIP3    H141054   2.863   2.858   1.506
13703TIP3    H241055   2.725   2.918   1.515
13704TIP3   OH241056   0.090   6.664   6.706
13704TIP3    H141057   0.132   6.578   6.699
13704TIP3    H241058   0.163   6.725   6.723
13705TIP3   OH241059   6.727   2.426   0.439
13705TIP3    H141060   6.653   2.461   0.389
13705TIP3    H241061   6.687   2.388   0.517
13706TIP3   OH241062   1.154   2.910   5.452
13706TIP3    H141063   1.146   2.829   5.503
13706TIP3    H241064   1.248   2.925   5.445
13707TIP3   OH241065   8.053   5.900   3.419
13707TIP3    H141066   8.062   5.854   3.502
13707TIP3    H241067   8.002   5.978   3.440
13708TIP3   OH241068   3.042   6.692   3.341
13708TIP3    H141069   3.108   6.623   3.345
13708TIP3    H241070   2.966   6.651   3.302
13709TIP3   OH241071   6.548   0.490   4.926
13709TIP3    H141072   6.634   0.463   4.958
13709TIP3    H241073   6.491   0.415   4.943
13710TIP3   OH241074   2.261   3.946   6.368
13710TIP3    H141075   2.196   3.912   6.306
13710TIP3    H241076   2.270   4.038   6.346
13711TIP3   OH241077   5.602   0.555   0.232
13711TIP3    H141078   5.612   0.579   0.140
13711TIP3    H241079   5.539   0.617   0.267
13712TIP3   OH241080   4.914   1.392   0.410
13712TIP3    H141081   4.964   1.470   0.437
13712TIP3    H241082   4.833   1.427   0.372
13713TIP3   OH241083   1.270   3.237   3.327
13713TIP3    H141084   1.253   3.319   3.281
13713TIP3    H241085   1.267   3.170   3.260
13714TIP3   OH241086   7.597   2.586   0.850
13714TIP3    H141087   7.511   2.549   0.868
13714TIP3    H241088   7.639   2.522   0.791
13715TIP3   OH241089   5.156   0.573   5.383
13715TIP3    H141090   5.214   0.610   5.318
13715TIP3    H241091   5.089   0.640   5.397
13716TIP3   OH241092   0.308   5.739   1.056
13716TIP3    H141093   0.241   5.781   1.002
13716TIP3    H241094   0.381   5.800   1.055
13717TIP3   OH241095   7.792   3.891   0.712
13717TIP3    H141096   7.794   3.978   0.673
13717TIP3    H241097   7.715   3.849   0.674
13718TIP3   OH241098   0.718   1.070   2.484
13718TIP3    H141099   0.722   0.994   2.542
13718TIP3    H241100   0.730   1.035   2.396
13719TIP3   OH241101   7.909   3.530   0.147
13719TIP3    H141102   7.814   3.543   0.137
13719TIP3    H241103   7.940   3.611   0.188
13720TIP3   OH241104   2.674   3.692   6.680
13720TIP3    H141105   2.596   3.744   6.661
13720TIP3    H241106   2.640   3.613   6.722
13721TIP3   OH241107   1.817   4.899   3.379
13721TIP3    H141108   1.737   4.943   3.408
13721TIP3    H241109   1.796   4.869   3.291
13722TIP3   OH241110   7.158   5.516   4.718
13722TIP3    H141111   7.164   5.555   4.805
13722TIP3    H241112   7.072   5.474   4.716
13723TIP3   OH241113   3.278   2.802   5.689
13723TIP3    H141114   3.365   2.794   5.649
13723TIP3    H241115   3.295   2.843   5.774
13724TIP3   OH241116   6.806   7.480   0.707
13724TIP3    H141117   6.828   7.560   0.754
13724TIP3    H241118   6.728   7.502   0.657
13725TIP3   OH241119   6.146   4.976   2.608
13725TIP3    H141120   6.068   5.030   2.597
13725TIP3    H241121   6.201   4.997   2.533
13726TIP3   OH241122   2.125   0.259   5.458
13726TIP3    H141123   2.032   0.242   5.438
13726TIP3    H241124   2.172   0.220   5.384
13727TIP3   OH241125   7.706   0.399   4.307
13727TIP3    H141126   7.644   0.453   4.356
13727TIP3    H241127   7.653   0.356   4.240
13728TIP3   OH241128   3.866   5.747   1.789
13728TIP3    H141129   3.873   5.653   1.803
13728TIP3    H241130   3.774   5.768   1.805
13729TIP3   OH241131   1.344   7.737   2.082
13729TIP3    H141132   1.338   7.671   2.013
13729TIP3    H241133   1.437   7.761   2.084
13730TIP3   OH241134   1.783   1.130   6.688
13730TIP3    H141135   1.698   1.110   6.726
13730TIP3    H241136   1.782   1.225   6.676
13731TIP3   OH241137   5.818   4.639   4.441
13731TIP3    H141138   5.793   4.689   4.364
13731TIP3    H241139   5.770   4.679   4.513
13732TIP3   OH241140   7.835   4.487   0.532
13732TIP3    H141141   7.757   4.522   0.489
13732TIP3    H241142   7.849   4.546   0.607
13733TIP3   OH241143   7.663   5.071   4.636
13733TIP3    H141144   7.726   5.082   4.564
13733TIP3    H241145   7.581   5.049   4.593
13734TIP3   OH241146   6.636   1.722   4.408
13734TIP3    H141147   6.653   1.637   4.448
13734TIP3    H241148   6.719   1.744   4.365
13735TIP3   OH241149   4.843   3.646   3.112
13735TIP3    H141150   4.908   3.590   3.153
13735TIP3    H241151   4.830   3.610   3.025
13736TIP3   OH241152   6.754   2.575   2.122
13736TIP3    H141153   6.798   2.600   2.041
13736TIP3    H241154   6.671   2.538   2.094
13737TIP3   OH241155   3.984   6.463   0.581
13737TIP3    H141156   3.913   6.510   0.625
13737TIP3    H241157   4.017   6.402   0.647
13738TIP3   OH241158   7.896   4.297   3.255
13738TIP3    H141159   7.894   4.385   3.217
13738TIP3    H241160   7.924   4.240   3.184
13739TIP3   OH241161   2.998   0.225   5.806
13739TIP3    H141162   2.981   0.177   5.725
13739TIP3    H241163   2.911   0.236   5.846
13740TIP3   OH241164   3.944   1.691   6.745
13740TIP3    H141165   3.988   1.735   6.818
13740TIP3    H241166   4.011   1.687   6.676
13741TIP3   OH241167   4.298   6.993   0.714
13741TIP3    H141168   4.365   6.939   0.756
13741TIP3    H241169   4.224   6.990   0.775
13742TIP3   OH241170   5.378   2.123   5.564
13742TIP3    H141171   5.294   2.109   5.608
13742TIP3    H241172   5.424   2.039   5.574
13743TIP3   OH241173   1.686   7.211   5.542
13743TIP3    H141174   1.719   7.248   5.459
13743TIP3    H241175   1.735   7.258   5.610
13744TIP3   OH241176   5.394   3.227   0.331
13744TIP3    H141177   5.453   3.301   0.349
13744TIP3    H241178   5.380   3.186   0.417
13745TIP3   OH241179   7.745   6.581   4.817
13745TIP3    H141180   7.777   6.512   4.760
13745TIP3    H241181   7.817   6.597   4.878
13746TIP3   OH241182   3.271   6.082   2.416
13746TIP3    H141183   3.193   6.049   2.371
13746TIP3    H241184   3.333   6.009   2.413
13747TIP3   OH241185   4.304   0.844   5.517
13747TIP3    H141186   4.215   0.845   5.553
13747TIP3    H241187   4.292   0.859   5.423
13748TIP3   OH241188   8.218   0.305   0.706
13748TIP3    H141189   8.280   0.377   0.694
13748TIP3    H241190   8.183   0.289   0.618
13749TIP3   OH241191   2.201   5.396   6.489
13749TIP3    H141192   2.191   5.301   6.483
13749TIP3    H241193   2.273   5.416   6.430
13750TIP3   OH241194   0.472   1.346   5.988
13750TIP3    H141195   0.433   1.335   6.075
13750TIP3    H241196   0.552   1.396   6.004
13751TIP3   OH241197   0.280   5.483   6.768
13751TIP3    H141198   0.368   5.467   6.733
13751TIP3    H241199   0.254   5.400   6.807
13752TIP3   OH241200   6.528   1.944   5.461
13752TIP3    H141201   6.436   1.959   5.440
13752TIP3    H241202   6.576   2.004   5.404
13753TIP3   OH241203   6.521   6.809   1.107
13753TIP3    H141204   6.543   6.724   1.069
13753TIP3    H241205   6.529   6.870   1.033
13754TIP3   OH241206   0.312   5.047   2.177
13754TIP3    H141207   0.393   5.080   2.216
13754TIP3    H241208   0.273   5.123   2.135
13755TIP3   OH241209   4.956   6.018   2.311
13755TIP3    H141210   4.936   6.005   2.403
13755TIP3    H241211   4.885   6.074   2.278
13756TIP3   OH241212   8.113   5.122   1.082
13756TIP3    H141213   8.071   5.115   0.996
13756TIP3    H241214   8.044   5.100   1.144
13757TIP3   OH241215   7.961   5.941   4.949
13757TIP3    H141216   8.049   5.907   4.966
13757TIP3    H241217   7.918   5.940   5.035
13758TIP3   OH241218   0.381   1.509   3.668
13758TIP3    H141219   0.449   1.540   3.728
13758TIP3    H241220   0.395   1.415   3.662
13759TIP3   OH241221   2.125   1.310   1.908
13759TIP3    H141222   2.152   1.219   1.915
13759TIP3    H241223   2.110   1.338   1.999
13760TIP3   OH241224   0.908   2.525   6.266
13760TIP3    H141225   0.825   2.571   6.279
13760TIP3    H241226   0.931   2.543   6.175
13761TIP3   OH241227   8.172   4.393   5.037
13761TIP3    H141228   8.207   4.468   5.086
13761TIP3    H241229   8.249   4.352   4.998
13762TIP3   OH241230   3.695   0.865   3.335
13762TIP3    H141231   3.774   0.917   3.323
13762TIP3    H241232   3.718   0.801   3.402
13763TIP3   OH241233   1.031   7.319   6.206
13763TIP3    H141234   0.941   7.290   6.220
13763TIP3    H241235   1.082   7.268   6.269
13764TIP3   OH241236   1.878   0.278   5.760
13764TIP3    H141237   1.788   0.283   5.790
13764TIP3    H241238   1.916   0.206   5.810
13765TIP3   OH241239   5.898   3.808   2.207
13765TIP3    H141240   5.880   3.868   2.134
13765TIP3    H241241   5.881   3.859   2.286
13766TIP3   OH241242   7.109   4.860   5.427
13766TIP3    H141243   7.125   4.812   5.508
13766TIP3    H241244   7.187   4.847   5.374
13767TIP3   OH241245   1.435   4.311   0.752
13767TIP3    H141246   1.429   4.380   0.818
13767TIP3    H241247   1.428   4.229   0.802
13768TIP3   OH241248   1.186   1.589   3.114
13768TIP3    H141249   1.237   1.512   3.138
13768TIP3    H241250   1.100   1.576   3.155
13769TIP3   OH241251   1.580   1.008   5.083
13769TIP3    H141252   1.670   0.988   5.056
13769TIP3    H241253   1.585   1.097   5.118
13770TIP3   OH241254   0.398   2.243   1.143
13770TIP3    H141255   0.400   2.272   1.051
13770TIP3    H241256   0.338   2.303   1.186
13771TIP3   OH241257   2.895   7.350   4.299
13771TIP3    H141258   2.816   7.342   4.245
13771TIP3    H241259   2.884   7.284   4.367
13772TIP3   OH241260   1.220   2.254   5.603
13772TIP3    H141261   1.249   2.339   5.637
13772TIP3    H241262   1.286   2.230   5.538
13773TIP3   OH241263   6.644   7.275   6.341
13773TIP3    H141264   6.581   7.234   6.282
13773TIP3    H241265   6.729   7.259   6.300
13774TIP3   OH241266   4.457   5.842   5.786
13774TIP3    H141267   4.542   5.799   5.779
13774TIP3    H241268   4.477   5.936   5.780
13775TIP3   OH241269   7.550   1.948   4.341
13775TIP3    H141270   7.500   1.894   4.402
13775TIP3    H241271   7.557   2.033   4.384
13776TIP3   OH241272   6.511   2.133   0.874
13776TIP3    H141273   6.417   2.146   0.880
13776TIP3    H241274   6.531   2.073   0.946
13777TIP3   OH241275   1.080   0.086   6.731
13777TIP3    H141276   1.087   0.145   6.806
13777TIP3    H241277   0.986   0.076   6.717
13778TIP3   OH241278   2.800   1.698   0.338
13778TIP3    H141279   2.818   1.646   0.259
13778TIP3    H241280   2.772   1.633   0.403
13779TIP3   OH241281   5.467   7.035   3.533
13779TIP3    H141282   5.442   6.970   3.598
13779TIP3    H241283   5.441   6.996   3.449
13780TIP3   OH241284   3.035   7.082   3.883
13780TIP3    H141285   3.042   7.115   3.794
13780TIP3    H241286   2.973   7.010   3.878
13781TIP3   OH241287   7.862   2.469   3.179
13781TIP3    H141288   7.816   2.386   3.174
13781TIP3    H241289   7.799   2.534   3.147
13782TIP3   OH241290   1.149   6.026   4.222
13782TIP3    H141291   1.064   6.038   4.179
13782TIP3    H241292   1.188   5.953   4.174
13783TIP3   OH241293   4.165   5.163   0.572
13783TIP3    H141294   4.251   5.179   0.611
13783TIP3    H241295   4.104   5.173   0.644
13784TIP3   OH241296   2.950   5.027   5.715
13784TIP3    H141297   2.998   4.949   5.741
13784TIP3    H241298   2.972   5.041   5.623
13785TIP3   OH241299   4.387   5.099   5.477
13785TIP3    H141300   4.427   5.052   5.404
13785TIP3    H241301   4.461   5.136   5.525
13786TIP3   OH241302   1.806   6.879   3.820
13786TIP3    H141303   1.747   6.938   3.867
13786TIP3    H241304   1.790   6.793   3.859
13787TIP3   OH241305   1.377   6.257   5.952
13787TIP3    H141306   1.462   6.298   5.937
13787TIP3    H241307   1.332   6.316   6.014
13788TIP3   OH241308   0.220   6.606   4.050
13788TIP3    H141309   0.260   6.678   4.099
13788TIP3    H241310   0.151   6.573   4.108
13789TIP3   OH241311   0.061   7.234   3.284
13789TIP3    H141312   0.008   7.176   3.340
13789TIP3    H241313   0.015   7.234   3.200
13790TIP3   OH241314   4.815   5.535   2.336
13790TIP3    H141315   4.734   5.520   2.385
13790TIP3    H241316   4.879   5.477   2.376
13791TIP3   OH241317   2.398   1.619   2.492
13791TIP3    H141318   2.424   1.683   2.558
13791TIP3    H241319   2.302   1.620   2.495
13792TIP3   OH241320   4.227   0.008   0.935
13792TIP3    H141321   4.250   0.032   0.845
13792TIP3    H241322   4.149  -0.047   0.926
13793TIP3   OH241323   3.939   0.900   3.643
13793TIP3    H141324   3.928   0.864   3.731
13793TIP3    H241325   4.033   0.917   3.635
13794TIP3   OH241326   5.289   1.772   4.726
13794TIP3    H141327   5.375   1.812   4.717
13794TIP3    H241328   5.303   1.697   4.784
13795TIP3   OH241329   4.944   2.275   1.721
13795TIP3    H141330   4.910   2.357   1.758
13795TIP3    H241331   5.025   2.301   1.677
13796TIP3   OH241332   3.086   4.627   3.303
13796TIP3    H141333   3.050   4.567   3.237
13796TIP3    H241334   3.177   4.600   3.313
13797TIP3   OH241335   2.061   6.043   2.852
13797TIP3    H141336   1.997   6.003   2.793
13797TIP3    H241337   2.099   6.114   2.800
13798TIP3   OH241338   7.270   2.322   0.642
13798TIP3    H141339   7.281   2.373   0.562
13798TIP3    H241340   7.338   2.254   0.636
13799TIP3   OH241341   7.035   3.438   0.198
13799TIP3    H141342   7.060   3.530   0.187
13799TIP3    H241343   6.948   3.441   0.237
13800TIP3   OH241344   8.086   1.117   1.196
13800TIP3    H141345   7.995   1.088   1.198
13800TIP3    H241346   8.084   1.201   1.151
13801TIP3   OH241347   2.234   5.810   3.978
13801TIP3    H141348   2.267   5.733   3.931
13801TIP3    H241349   2.312   5.849   4.017
13802TIP3   OH241350   6.240   2.002   6.073
13802TIP3    H141351   6.319   2.052   6.092
13802TIP3    H241352   6.246   1.925   6.131
13803TIP3   OH241353   1.914   5.574   5.419
13803TIP3    H141354   1.993   5.581   5.366
13803TIP3    H241355   1.843   5.561   5.356
13804TIP3   OH241356   6.806   1.220   3.193
13804TIP3    H141357   6.862   1.297   3.201
13804TIP3    H241358   6.724   1.245   3.235
13805TIP3   OH241359   4.036   1.613   2.713
13805TIP3    H141360   3.984   1.661   2.649
13805TIP3    H241361   4.110   1.579   2.662
13806TIP3   OH241362   0.493   0.845   4.830
13806TIP3    H141363   0.493   0.940   4.834
13806TIP3    H241364   0.467   0.817   4.918
13807TIP3   OH241365   8.081   7.348   2.824
13807TIP3    H141366   8.060   7.310   2.739
13807TIP3    H241367   8.007   7.405   2.845
13808TIP3   OH241368   7.807   6.461   4.436
13808TIP3    H141369   7.804   6.556   4.425
13808TIP3    H241370   7.866   6.432   4.367
13809TIP3   OH241371   3.892   5.196   2.607
13809TIP3    H141372   3.936   5.145   2.675
13809TIP3    H241373   3.930   5.164   2.525
13810TIP3   OH241374   1.546   1.291   0.421
13810TIP3    H141375   1.532   1.306   0.515
13810TIP3    H241376   1.594   1.368   0.392
13811TIP3   OH241377   8.228   5.534   2.217
13811TIP3    H141378   8.228   5.625   2.189
13811TIP3    H241379   8.138   5.504   2.203
13812TIP3   OH241380   7.769   3.203   5.324
13812TIP3    H141381   7.754   3.167   5.237
13812TIP3    H241382   7.863   3.222   5.327
13813TIP3   OH241383   8.274   5.193   0.482
13813TIP3    H141384   8.179   5.203   0.483
13813TIP3    H241385   8.298   5.183   0.575
13814TIP3   OH241386   6.248   0.477   3.249
13814TIP3    H141387   6.188   0.533   3.199
13814TIP3    H241388   6.192   0.434   3.314
13815TIP3   OH241389   1.077   2.941   3.704
13815TIP3    H141390   0.990   2.946   3.744
13815TIP3    H241391   1.065   2.885   3.628
13816TIP3   OH241392   1.497   5.198   1.139
13816TIP3    H141393   1.426   5.189   1.076
13816TIP3    H241394   1.466   5.150   1.217
13817TIP3   OH241395   1.195   5.519   6.224
13817TIP3    H141396   1.256   5.446   6.223
13817TIP3    H241397   1.246   5.594   6.254
13818TIP3   OH241398   6.791   2.174   3.051
13818TIP3    H141399   6.702   2.169   3.018
13818TIP3    H241400   6.792   2.115   3.126
13819TIP3   OH241401   0.038   4.429   0.870
13819TIP3    H141402  -0.007   4.369   0.930
13819TIP3    H241403  -0.014   4.509   0.872
13820TIP3   OH241404   3.883   2.399   1.656
13820TIP3    H141405   3.904   2.446   1.575
13820TIP3    H241406   3.847   2.466   1.714
13821TIP3   OH241407   0.668   7.400   1.727
13821TIP3    H141408   0.749   7.360   1.759
13821TIP3    H241409   0.654   7.475   1.786
13822TIP3   OH241410   3.483   5.217   4.973
13822TIP3    H141411   3.465   5.285   5.039
13822TIP3    H241412   3.546   5.159   5.015
13823TIP3   OH241413   1.950   2.330   2.363
13823TIP3    H141414   1.932   2.370   2.448
13823TIP3    H241415   1.896   2.251   2.361
13824TIP3   OH241416   2.015   2.281   5.118
13824TIP3    H141417   2.055   2.198   5.094
13824TIP3    H241418   2.084   2.328   5.166
13825TIP3   OH241419   5.097   0.959   0.537
13825TIP3    H141420   5.146   0.877   0.539
13825TIP3    H241421   5.157   1.021   0.496
13826TIP3   OH241422   0.578   0.160   6.616
13826TIP3    H141423   0.641   0.221   6.655
13826TIP3    H241424   0.535   0.212   6.548
13827TIP3   OH241425   8.151   4.706   6.394
13827TIP3    H141426   8.130   4.642   6.326
13827TIP3    H241427   8.117   4.667   6.475
13828TIP3   OH241428   7.246   5.176   3.459
13828TIP3    H141429   7.174   5.208   3.405
13828TIP3    H241430   7.305   5.133   3.398
13829TIP3   OH241431   5.446   6.378   1.289
13829TIP3    H141432   5.405   6.464   1.304
13829TIP3    H241433   5.530   6.384   1.335
13830TIP3   OH241434   7.207   1.313   2.464
13830TIP3    H141435   7.119   1.310   2.501
13830TIP3    H241436   7.241   1.399   2.491
13831TIP3   OH241437   4.025   5.302   1.003
13831TIP3    H141438   3.942   5.312   0.956
13831TIP3    H241439   4.000   5.304   1.096
13832TIP3   OH241440   1.321   2.763   3.257
13832TIP3    H141441   1.246   2.726   3.210
13832TIP3    H241442   1.296   2.756   3.349
13833TIP3   OH241443   4.468   3.901   2.284
13833TIP3    H141444   4.482   3.847   2.362
13833TIP3    H241445   4.552   3.946   2.270
13834TIP3   OH241446   6.734   6.009   4.134
13834TIP3    H141447   6.738   6.102   4.112
13834TIP3    H241448   6.807   5.970   4.086
13835TIP3   OH241449   6.931   2.717   0.232
13835TIP3    H141450   6.944   2.760   0.317
13835TIP3    H241451   6.985   2.767   0.171
13836TIP3   OH241452   2.608   1.063   2.259
13836TIP3    H141453   2.514   1.048   2.246
13836TIP3    H241454   2.651   1.008   2.194
13837TIP3   OH241455   5.294   4.985   4.726
13837TIP3    H141456   5.300   5.080   4.722
13837TIP3    H241457   5.208   4.966   4.688
13838TIP3   OH241458   7.804   7.316   0.954
13838TIP3    H141459   7.866   7.303   0.882
13838TIP3    H241460   7.830   7.399   0.993
13839TIP3   OH241461   1.308   2.862   2.646
13839TIP3    H141462   1.238   2.797   2.642
13839TIP3    H241463   1.313   2.896   2.557
13840TIP3   OH241464   6.527   3.910   6.665
13840TIP3    H141465   6.618   3.923   6.693
13840TIP3    H241466   6.489   3.855   6.733
13841TIP3   OH241467   0.623   1.055   6.515
13841TIP3    H141468   0.586   1.010   6.591
13841TIP3    H241469   0.568   1.131   6.502
13842TIP3   OH241470   7.841   4.789   2.766
13842TIP3    H141471   7.929   4.754   2.748
13842TIP3    H241472   7.830   4.778   2.861
13843TIP3   OH241473   1.973   3.285   0.169
13843TIP3    H141474   1.934   3.372   0.174
13843TIP3    H241475   2.057   3.298   0.125
13844TIP3   OH241476   7.100   1.545   1.589
13844TIP3    H141477   7.037   1.506   1.649
13844TIP3    H241478   7.146   1.611   1.641
13845TIP3   OH241479   2.183   5.573   2.460
13845TIP3    H141480   2.278   5.557   2.457
13845TIP3    H241481   2.144   5.499   2.414
13846TIP3   OH241482   1.794   3.304   3.006
13846TIP3    H141483   1.802   3.368   2.935
13846TIP3    H241484   1.877   3.256   3.006
13847TIP3   OH241485   5.542   1.689   4.533
13847TIP3    H141486   5.542   1.773   4.579
13847TIP3    H241487   5.604   1.634   4.583
13848TIP3   OH241488   0.160   2.561   3.342
13848TIP3    H141489   0.166   2.640   3.395
13848TIP3    H241490   0.081   2.517   3.371
13849TIP3   OH241491   3.074   4.903   3.121
13849TIP3    H141492   3.041   4.831   3.175
13849TIP3    H241493   3.016   4.976   3.142
13850TIP3   OH241494   2.588   5.538   5.193
13850TIP3    H141495   2.679   5.568   5.190
13850TIP3    H241496   2.542   5.607   5.241
13851TIP3   OH241497   1.845   3.833   0.660
13851TIP3    H141498   1.781   3.779   0.706
13851TIP3    H241499   1.803   3.919   0.655
13852TIP3   OH241500   2.692   1.597   4.036
13852TIP3    H141501   2.623   1.623   4.097
13852TIP3    H241502   2.676   1.504   4.021
13853TIP3   OH241503   5.950   6.185   2.243
13853TIP3    H141504   5.887   6.175   2.314
13853TIP3    H241505   6.015   6.247   2.276
13854TIP3   OH241506   6.157   0.311   5.775
13854TIP3    H141507   6.092   0.242   5.761
13854TIP3    H241508   6.230   0.267   5.818
13855TIP3   OH241509   3.989   5.096   2.369
13855TIP3    H141510   4.004   5.002   2.378
13855TIP3    H241511   3.950   5.105   2.281
13856TIP3   OH241512   1.290   4.276   2.942
13856TIP3    H141513   1.302   4.327   2.862
13856TIP3    H241514   1.338   4.325   3.009
13857TIP3   OH241515   0.129   5.627   6.404
13857TIP3    H141516   0.172   5.706   6.436
13857TIP3    H241517   0.122   5.641   6.309
13858TIP3   OH241518   5.586   3.937   1.939
13858TIP3    H141519   5.533   3.985   1.875
13858TIP3    H241520   5.609   4.001   2.005
13859TIP3   OH241521   5.491   7.800   5.574
13859TIP3    H141522   5.544   7.868   5.532
13859TIP3    H241523   5.406   7.807   5.532
13860TIP3   OH241524   0.116   5.917   4.090
13860TIP3    H141525   0.167   5.854   4.039
13860TIP3    H241526   0.141   5.899   4.181
13861TIP3   OH241527   1.529   6.526   1.928
13861TIP3    H141528   1.502   6.585   1.858
13861TIP3    H241529   1.602   6.571   1.971
13862TIP3   OH241530   5.957   4.274   5.312
13862TIP3    H141531   5.977   4.200   5.370
13862TIP3    H241532   5.960   4.351   5.369
13863TIP3   OH241533   0.026   5.311   4.661
13863TIP3    H141534   0.050   5.236   4.716
13863TIP3    H241535   0.012   5.273   4.574
13864TIP3   OH241536   0.157   7.810   6.095
13864TIP3    H141537   0.215   7.885   6.086
13864TIP3    H241538   0.190   7.765   6.173
13865TIP3   OH241539   2.452   1.825   5.862
13865TIP3    H141540   2.368   1.867   5.881
13865TIP3    H241541   2.429   1.737   5.832
13866TIP3   OH241542   0.035   4.457   6.716
13866TIP3    H141543   0.005   4.548   6.706
13866TIP3    H241544   0.022   4.417   6.631
13867TIP3   OH241545   3.511   3.538   5.905
13867TIP3    H141546   3.486   3.588   5.983
13867TIP3    H241547   3.474   3.451   5.920
13868TIP3   OH241548   6.520   0.163   5.204
13868TIP3    H141549   6.578   0.107   5.153
13868TIP3    H241550   6.556   0.160   5.293
13869TIP3   OH241551   5.278   0.221   0.950
13869TIP3    H141552   5.319   0.139   0.980
13869TIP3    H241553   5.319   0.289   1.004
13870TIP3   OH241554   2.326   7.226   1.291
13870TIP3    H141555   2.276   7.253   1.368
13870TIP3    H241556   2.360   7.140   1.314
13871TIP3   OH241557   8.148   2.728   6.756
13871TIP3    H141558   8.192   2.749   6.674
13871TIP3    H241559   8.082   2.663   6.732
13872TIP3   OH241560   6.310   1.152   2.730
13872TIP3    H141561   6.387   1.196   2.693
13872TIP3    H241562   6.241   1.218   2.726
13873TIP3   OH241563   7.155   4.958   1.819
13873TIP3    H141564   7.080   4.991   1.770
13873TIP3    H241565   7.228   5.013   1.791
13874TIP3   OH241566   1.158   3.008   2.081
13874TIP3    H141567   1.162   2.917   2.052
13874TIP3    H241568   1.086   3.010   2.144
13875TIP3   OH241569   7.582   5.978   0.646
13875TIP3    H141570   7.539   5.964   0.730
13875TIP3    H241571   7.666   6.017   0.668
13876TIP3   OH241572   2.847   2.773   5.955
13876TIP3    H141573   2.925   2.733   5.916
13876TIP3    H241574   2.868   2.866   5.962
13877TIP3   OH241575   2.096   2.082   6.380
13877TIP3    H141576   2.131   2.079   6.291
13877TIP3    H241577   2.002   2.094   6.369
13878TIP3   OH241578   1.319   2.047   3.796
13878TIP3    H141579   1.410   2.040   3.769
13878TIP3    H241580   1.269   2.053   3.715
13879TIP3   OH241581   5.471   5.329   0.222
13879TIP3    H141582   5.534   5.340   0.151
13879TIP3    H241583   5.519   5.351   0.301
13880TIP3   OH241584   6.067   0.743   4.922
13880TIP3    H141585   6.154   0.721   4.956
13880TIP3    H241586   6.013   0.756   5.000
13881TIP3   OH241587   0.647   5.798   2.282
13881TIP3    H141588   0.664   5.750   2.201
13881TIP3    H241589   0.717   5.863   2.286
13882TIP3   OH241590   5.846   0.684   5.843
13882TIP3    H141591   5.762   0.729   5.850
13882TIP3    H241592   5.905   0.749   5.803
13883TIP3   OH241593   1.240   5.140   2.701
13883TIP3    H141594   1.329   5.173   2.701
13883TIP3    H241595   1.243   5.061   2.646
13884TIP3   OH241596   7.668   3.344   5.711
13884TIP3    H141597   7.671   3.315   5.802
13884TIP3    H241598   7.698   3.434   5.713
13885TIP3   OH241599   3.728   3.418   0.411
13885TIP3    H141600   3.713   3.455   0.498
13885TIP3    H241601   3.757   3.492   0.358
13886TIP3   OH241602   5.881   2.008   0.711
13886TIP3    H141603   5.935   2.010   0.790
13886TIP3    H241604   5.907   1.927   0.667
13887TIP3   OH241605   7.360   2.275   2.623
13887TIP3    H141606   7.360   2.351   2.682
13887TIP3    H241607   7.391   2.310   2.539
13888TIP3   OH241608   6.818   2.607   3.286
13888TIP3    H141609   6.850   2.594   3.375
13888TIP3    H241610   6.839   2.524   3.241
13889TIP3   OH241611   7.905   5.235   2.903
13889TIP3    H141612   7.936   5.191   2.983
13889TIP3    H241613   7.943   5.183   2.832
13890TIP3   OH241614   7.526   6.316   3.844
13890TIP3    H141615   7.594   6.371   3.882
13890TIP3    H241616   7.532   6.233   3.891
13891TIP3   OH241617   4.867   0.670   4.205
13891TIP3    H141618   4.946   0.639   4.161
13891TIP3    H241619   4.819   0.591   4.228
13892TIP3   OH241620   7.135   1.098   6.449
13892TIP3    H141621   7.093   1.167   6.500
13892TIP3    H241622   7.069   1.070   6.386
13893TIP3   OH241623   2.077   4.962   2.250
13893TIP3    H141624   2.123   4.977   2.333
13893TIP3    H241625   2.087   5.044   2.203
13894TIP3   OH241626   1.401   6.225   3.534
13894TIP3    H141627   1.418   6.301   3.478
13894TIP3    H241628   1.438   6.151   3.486
13895TIP3   OH241629   4.257   5.108   4.609
13895TIP3    H141630   4.255   5.013   4.597
13895TIP3    H241631   4.330   5.122   4.669
13896TIP3   OH241632   5.898   7.563   3.077
13896TIP3    H141633   5.993   7.553   3.085
13896TIP3    H241634   5.868   7.578   3.166
13897TIP3   OH241635   4.268   5.025   3.043
13897TIP3    H141636   4.210   5.046   3.117
13897TIP3    H241637   4.309   4.942   3.068
13898TIP3   OH241638   4.784   1.502   6.040
13898TIP3    H141639   4.756   1.525   6.129
13898TIP3    H241640   4.837   1.576   6.011
13899TIP3   OH241641   5.281   5.747   2.218
13899TIP3    H141642   5.274   5.691   2.295
13899TIP3    H241643   5.330   5.695   2.154
13900TIP3   OH241644   8.099   7.718   6.241
13900TIP3    H141645   8.148   7.678   6.313
13900TIP3    H241646   8.031   7.653   6.220
13901TIP3   OH241647   1.169   5.708   5.452
13901TIP3    H141648   1.243   5.662   5.412
13901TIP3    H241649   1.203   5.738   5.537
13902TIP3   OH241650   2.290   7.730   6.221
13902TIP3    H141651   2.241   7.721   6.303
13902TIP3    H241652   2.375   7.692   6.241
13903TIP3   OH241653   2.317   1.200   5.404
13903TIP3    H141654   2.325   1.119   5.454
13903TIP3    H241655   2.407   1.222   5.379
13904TIP3   OH241656   0.428   5.798   0.302
13904TIP3    H141657   0.453   5.890   0.314
13904TIP3    H241658   0.347   5.789   0.353
13905TIP3   OH241659   1.667   6.414   1.287
13905TIP3    H141660   1.713   6.338   1.251
13905TIP3    H241661   1.593   6.378   1.335
13906TIP3   OH241662   5.163   4.211   2.192
13906TIP3    H141663   5.166   4.305   2.173
13906TIP3    H241664   5.082   4.199   2.241
13907TIP3   OH241665   5.862   7.117   3.017
13907TIP3    H141666   5.805   7.192   2.997
13907TIP3    H241667   5.830   7.085   3.101
13908TIP3   OH241668   5.081   6.099   0.839
13908TIP3    H141669   5.168   6.139   0.845
13908TIP3    H241670   5.028   6.163   0.793
13909TIP3   OH241671   4.407   0.515   4.133
13909TIP3    H141672   4.378   0.590   4.185
13909TIP3    H241673   4.476   0.550   4.077
13910TIP3   OH241674   6.306   6.430   2.750
13910TIP3    H141675   6.248   6.480   2.808
13910TIP3    H241676   6.258   6.349   2.732
13911TIP3   OH241677   2.033   6.444   4.971
13911TIP3    H141678   1.961   6.389   4.941
13911TIP3    H241679   2.022   6.527   4.925
13912TIP3   OH241680   6.701   5.564   4.147
13912TIP3    H141681   6.651   5.488   4.178
13912TIP3    H241682   6.786   5.557   4.190
13913TIP3   OH241683   5.594   2.110   5.325
13913TIP3    H141684   5.675   2.063   5.344
13913TIP3    H241685   5.558   2.132   5.410
13914TIP3   OH241686   7.351   6.578   1.295
13914TIP3    H141687   7.401   6.657   1.314
13914TIP3    H241688   7.398   6.536   1.223
13915TIP3   OH241689   4.737   1.760   5.570
13915TIP3    H141690   4.702   1.708   5.642
13915TIP3    H241691   4.708   1.715   5.491
13916TIP3   OH241692   6.580   7.513   4.724
13916TIP3    H141693   6.566   7.421   4.746
13916TIP3    H241694   6.564   7.518   4.630
13917TIP3   OH241695   4.652   7.136   0.756
13917TIP3    H141696   4.630   7.099   0.842
13917TIP3    H241697   4.647   7.231   0.769
13918TIP3   OH241698   2.770   0.093   1.774
13918TIP3    H141699   2.746   0.131   1.690
13918TIP3    H241700   2.761   0.166   1.836
13919TIP3   OH241701   6.059   3.179   2.480
13919TIP3    H141702   6.050   3.185   2.385
13919TIP3    H241703   6.076   3.269   2.508
13920TIP3   OH241704   5.834   1.593   4.377
13920TIP3    H141705   5.775   1.596   4.303
13920TIP3    H241706   5.823   1.505   4.414
13921TIP3   OH241707   4.590   2.147   5.171
13921TIP3    H141708   4.569   2.054   5.182
13921TIP3    H241709   4.552   2.189   5.248
13922TIP3   OH241710   0.820   4.916   4.217
13922TIP3    H141711   0.803   4.995   4.166
13922TIP3    H241712   0.793   4.938   4.306
13923TIP3   OH241713   0.333   6.791   5.724
13923TIP3    H141714   0.351   6.814   5.815
13923TIP3    H241715   0.371   6.705   5.713
13924TIP3   OH241716   4.989   7.773   1.563
13924TIP3    H141717   5.082   7.786   1.585
13924TIP3    H241718   4.989   7.762   1.468
13925TIP3   OH241719   2.880   1.110   6.101
13925TIP3    H141720   2.868   1.184   6.160
13925TIP3    H241721   2.961   1.068   6.129
13926TIP3   OH241722   3.914   2.481   2.443
13926TIP3    H141723   3.978   2.409   2.442
13926TIP3    H241724   3.955   2.549   2.496
13927TIP3   OH241725   2.078   4.839   0.325
13927TIP3    H141726   2.007   4.902   0.317
13927TIP3    H241727   2.043   4.770   0.380
13928TIP3   OH241728   2.081   5.788   1.076
13928TIP3    H141729   2.018   5.764   1.145
13928TIP3    H241730   2.030   5.841   1.015
13929TIP3   OH241731   4.846   0.950   4.999
13929TIP3    H141732   4.822   1.035   4.961
13929TIP3    H241733   4.775   0.892   4.975
13930TIP3   OH241734   1.901   3.535   2.363
13930TIP3    H141735   1.821   3.574   2.398
13930TIP3    H241736   1.890   3.441   2.374
13931TIP3   OH241737   6.257   1.571   5.400
13931TIP3    H141738   6.173   1.555   5.357
13931TIP3    H241739   6.248   1.530   5.486
13932TIP3   OH241740   4.257   4.296   4.226
13932TIP3    H141741   4.237   4.228   4.290
13932TIP3    H241742   4.184   4.293   4.164
13933TIP3   OH241743   6.952   2.225   1.854
13933TIP3    H141744   7.031   2.171   1.855
13933TIP3    H241745   6.969   2.294   1.918
13934TIP3   OH241746   5.958   6.714   1.546
13934TIP3    H141747   5.919   6.777   1.486
13934TIP3    H241748   6.043   6.692   1.507
13935TIP3   OH241749   1.390   6.347   5.075
13935TIP3    H141750   1.329   6.409   5.034
13935TIP3    H241751   1.408   6.384   5.161
13936TIP3   OH241752   3.285   3.376   5.406
13936TIP3    H141753   3.277   3.454   5.352
13936TIP3    H241754   3.201   3.369   5.451
13937TIP3   OH241755   0.860   5.376   0.812
13937TIP3    H141756   0.893   5.369   0.723
13937TIP3    H241757   0.810   5.458   0.812
13938TIP3   OH241758   6.533   7.800   2.371
13938TIP3    H141759   6.577   7.841   2.296
13938TIP3    H241760   6.441   7.794   2.344
13939TIP3   OH241761   1.643   0.028   5.941
13939TIP3    H141762   1.557  -0.014   5.929
13939TIP3    H241763   1.656   0.031   6.036
13940TIP3   OH241764   5.520   0.058   5.637
13940TIP3    H141765   5.446   0.116   5.656
13940TIP3    H241766   5.481  -0.016   5.590
13941TIP3   OH241767   0.947   2.019   2.133
13941TIP3    H141768   1.037   1.988   2.141
13941TIP3    H241769   0.897   1.964   2.194
13942TIP3   OH241770   4.860   5.076   2.946
13942TIP3    H141771   4.783   5.042   2.992
13942TIP3    H241772   4.930   5.072   3.010
13943TIP3   OH241773   5.047   6.758   3.627
13943TIP3    H141774   5.067   6.813   3.702
13943TIP3    H241775   5.126   6.762   3.573
13944TIP3   OH241776   3.551   0.053   4.862
13944TIP3    H141777   3.489   0.103   4.810
13944TIP3    H241778   3.501   0.023   4.938
13945TIP3   OH241779   2.856   4.312   1.942
13945TIP3    H141780   2.814   4.265   2.015
13945TIP3    H241781   2.787   4.321   1.877
13946TIP3   OH241782   1.089   5.232   1.335
13946TIP3    H141783   1.116   5.184   1.413
13946TIP3    H241784   1.009   5.277   1.362
13947TIP3   OH241785   1.299   2.988   6.428
13947TIP3    H141786   1.378   3.042   6.429
13947TIP3    H241787   1.237   3.034   6.484
13948TIP3   OH241788   2.736   2.074   3.946
13948TIP3    H141789   2.733   1.981   3.972
13948TIP3    H241790   2.829   2.093   3.938
13949TIP3   OH241791   2.490   6.749   5.881
13949TIP3    H141792   2.445   6.756   5.797
13949TIP3    H241793   2.433   6.794   5.943
13950TIP3   OH241794   5.004   4.376   0.918
13950TIP3    H141795   5.087   4.389   0.964
13950TIP3    H241796   5.024   4.396   0.827
13951TIP3   OH241797   5.559   1.748   2.825
13951TIP3    H141798   5.630   1.747   2.889
13951TIP3    H241799   5.530   1.656   2.820
13952TIP3   OH241800   7.042   0.854   3.476
13952TIP3    H141801   6.949   0.861   3.498
13952TIP3    H241802   7.044   0.794   3.401
13953TIP3   OH241803   0.075   0.105   2.908
13953TIP3    H141804   0.158   0.058   2.899
13953TIP3    H241805   0.099   0.186   2.952
13954TIP3   OH241806   2.945   5.689   4.961
13954TIP3    H141807   2.892   5.611   4.945
13954TIP3    H241808   2.888   5.762   4.937
13955TIP3   OH241809   7.211   2.270   4.701
13955TIP3    H141810   7.234   2.181   4.726
13955TIP3    H241811   7.256   2.285   4.618
13956TIP3   OH241812   3.990   5.056   0.874
13956TIP3    H141813   3.996   5.141   0.917
13956TIP3    H241814   3.977   4.993   0.945
13957TIP3   OH241815   1.213   6.399   1.478
13957TIP3    H141816   1.154   6.379   1.405
13957TIP3    H241817   1.203   6.493   1.492
13958TIP3   OH241818   5.130   4.550   5.924
13958TIP3    H141819   5.040   4.520   5.939
13958TIP3    H241820   5.174   4.475   5.882
13959TIP3   OH241821   2.351   1.046   2.963
13959TIP3    H141822   2.316   1.109   2.900
13959TIP3    H241823   2.412   1.096   3.017
13960TIP3   OH241824   3.819   2.105   6.069
13960TIP3    H141825   3.799   2.192   6.104
13960TIP3    H241826   3.883   2.121   6.000
13961TIP3   OH241827   3.128   3.675   0.046
13961TIP3    H141828   3.087   3.701  -0.037
13961TIP3    H241829   3.092   3.589   0.065
13962TIP3   OH241830   0.182   0.721   6.514
13962TIP3    H141831   0.235   0.800   6.501
13962TIP3    H241832   0.122   0.744   6.585
13963TIP3   OH241833   2.569   5.905   5.678
13963TIP3    H141834   2.604   5.818   5.700
13963TIP3    H241835   2.644   5.952   5.642
13964TIP3   OH241836   3.347   1.490   1.821
13964TIP3    H141837   3.434   1.517   1.849
13964TIP3    H241838   3.345   1.395   1.837
13965TIP3   OH241839   7.523   0.297   4.087
13965TIP3    H141840   7.448   0.244   4.113
13965TIP3    H241841   7.582   0.236   4.043
13966TIP3   OH241842   4.414   5.208   0.701
13966TIP3    H141843   4.442   5.194   0.610
13966TIP3    H241844   4.447   5.131   0.748
13967TIP3   OH241845   5.585   0.578   0.822
13967TIP3    H141846   5.642   0.591   0.747
13967TIP3    H241847   5.511   0.528   0.786
13968TIP3   OH241848   1.873   7.668   3.194
13968TIP3    H141849   1.897   7.753   3.157
13968TIP3    H241850   1.843   7.688   3.283
13969TIP3   OH241851   0.277   5.202   1.081
13969TIP3    H141852   0.238   5.282   1.115
13969TIP3    H241853   0.233   5.132   1.129
13970TIP3   OH241854   3.951   1.742   1.338
13970TIP3    H141855   3.933   1.785   1.421
13970TIP3    H241856   4.046   1.751   1.326
13971TIP3   OH241857   0.906   4.837   3.872
13971TIP3    H141858   0.865   4.777   3.811
13971TIP3    H241859   0.924   4.916   3.821
13972TIP3   OH241860   0.036   4.556   3.414
13972TIP3    H141861   0.045   4.635   3.360
13972TIP3    H241862  -0.012   4.495   3.358
13973TIP3   OH241863   5.824   3.071   5.798
13973TIP3    H141864   5.763   3.035   5.862
13973TIP3    H241865   5.800   3.164   5.791
13974TIP3   OH241866   7.230   0.834   1.496
13974TIP3    H141867   7.185   0.881   1.566
13974TIP3    H241868   7.323   0.844   1.517
13975TIP3   OH241869   7.979   0.320   1.569
13975TIP3    H141870   7.990   0.338   1.662
13975TIP3    H241871   7.944   0.401   1.533
13976TIP3   OH241872   1.557   5.252   0.120
13976TIP3    H141873   1.602   5.269   0.203
13976TIP3    H241874   1.481   5.199   0.145
13977TIP3   OH241875   2.367   7.193   2.132
13977TIP3    H141876   2.430   7.223   2.067
13977TIP3    H241877   2.298   7.259   2.131
13978TIP3   OH241878   0.494   6.757   1.033
13978TIP3    H141879   0.433   6.729   0.965
13978TIP3    H241880   0.525   6.842   1.004
13979TIP3   OH241881   4.399   0.801   6.695
13979TIP3    H141882   4.318   0.844   6.725
13979TIP3    H241883   4.407   0.724   6.750
13980TIP3   OH241884   1.778   4.725   4.770
13980TIP3    H141885   1.708   4.686   4.823
13980TIP3    H241886   1.801   4.656   4.707
13981TIP3   OH241887   2.552   3.601   6.406
13981TIP3    H141888   2.619   3.533   6.407
13981TIP3    H241889   2.508   3.592   6.491
13982TIP3   OH241890   2.628   0.445   4.075
13982TIP3    H141891   2.559   0.508   4.056
13982TIP3    H241892   2.697   0.497   4.117
13983TIP3   OH241893   4.118   5.254   2.973
13983TIP3    H141894   4.153   5.203   3.046
13983TIP3    H241895   4.194   5.292   2.930
13984TIP3   OH241896   3.373   1.929   2.821
13984TIP3    H141897   3.298   1.970   2.866
13984TIP3    H241898   3.385   1.982   2.742
13985TIP3   OH241899   3.720   6.105   6.423
13985TIP3    H141900   3.751   6.016   6.406
13985TIP3    H241901   3.760   6.158   6.354
13986TIP3   OH241902   8.028   6.593   3.382
13986TIP3    H141903   7.997   6.515   3.335
13986TIP3    H241904   8.013   6.664   3.320
13987TIP3   OH241905   6.042   6.930   4.385
13987TIP3    H141906   5.989   6.925   4.465
13987TIP3    H241907   6.130   6.908   4.414
13988TIP3   OH241908   2.420   3.550   5.532
13988TIP3    H141909   2.447   3.585   5.617
13988TIP3    H241910   2.366   3.474   5.553
13989TIP3   OH241911   7.843   5.610   5.418
13989TIP3    H141912   7.783   5.551   5.372
13989TIP3    H241913   7.929   5.593   5.379
13990TIP3   OH241914   3.611   0.983   0.318
13990TIP3    H141915   3.693   1.029   0.300
13990TIP3    H241916   3.543   1.039   0.279
13991TIP3   OH241917   3.248   7.290   2.748
13991TIP3    H141918   3.294   7.257   2.671
13991TIP3    H241919   3.156   7.287   2.724
13992TIP3   OH241920   7.534   5.579   2.867
13992TIP3    H141921   7.614   5.600   2.916
13992TIP3    H241922   7.516   5.488   2.889
13993TIP3   OH241923   5.386   5.089   2.410
13993TIP3    H141924   5.416   5.087   2.501
13993TIP3    H241925   5.377   4.997   2.386
13994TIP3   OH241926   1.294   2.972   1.245
13994TIP3    H141927   1.234   3.014   1.306
13994TIP3    H241928   1.291   3.027   1.167
13995TIP3   OH241929   3.021   7.095   2.398
13995TIP3    H141930   2.933   7.083   2.362
13995TIP3    H241931   3.070   7.018   2.368
13996TIP3   OH241932   4.568   3.624   4.124
13996TIP3    H141933   4.564   3.707   4.078
13996TIP3    H241934   4.622   3.568   4.068
13997TIP3   OH241935   4.658   2.594   5.588
13997TIP3    H141936   4.642   2.515   5.639
13997TIP3    H241937   4.597   2.588   5.515
13998TIP3   OH241938   4.832   2.160   2.122
13998TIP3    H141939   4.825   2.128   2.032
13998TIP3    H241940   4.904   2.223   2.119
13999TIP3   OH241941   0.386   7.330   2.729
13999TIP3    H141942   0.291   7.336   2.719
13999TIP3    H241943   0.401   7.356   2.820
14000TIP3   OH241944   2.295   2.109   5.150
14000TIP3    H141945   2.339   2.161   5.083
14000TIP3    H241946   2.361   2.044   5.176
14001TIP3   OH241947   2.045   4.106   6.175
14001TIP3    H141948   1.969   4.102   6.117
14001TIP3    H241949   2.106   4.041   6.140
14002TIP3   OH241950   0.266   4.778   1.755
14002TIP3    H141951   0.336   4.779   1.690
14002TIP3    H241952   0.195   4.828   1.715
14003TIP3   OH241953   3.808   1.170   1.745
14003TIP3    H141954   3.882   1.222   1.716
14003TIP3    H241955   3.731   1.215   1.710
14004TIP3   OH241956   0.779   5.359   6.446
14004TIP3    H141957   0.824   5.329   6.525
14004TIP3    H241958   0.827   5.438   6.419
14005TIP3   OH241959   3.792   5.137   5.372
14005TIP3    H141960   3.876   5.093   5.359
14005TIP3    H241961   3.728   5.079   5.332
14006TIP3   OH241962   4.847   3.962   1.750
14006TIP3    H141963   4.918   4.024   1.734
14006TIP3    H241964   4.794   4.004   1.819
14007TIP3   OH241965   5.729   6.163   6.668
14007TIP3    H141966   5.655   6.207   6.711
14007TIP3    H241967   5.786   6.137   6.740
14008TIP3   OH241968   1.014   0.317   1.927
14008TIP3    H141969   1.040   0.314   2.019
14008TIP3    H241970   0.998   0.409   1.909
14009TIP3   OH241971   6.319   7.500   5.788
14009TIP3    H141972   6.288   7.513   5.698
14009TIP3    H241973   6.405   7.542   5.791
14010TIP3   OH241974   0.463   4.745   0.028
14010TIP3    H141975   0.404   4.670   0.033
14010TIP3    H241976   0.537   4.713  -0.024
14011TIP3   OH241977   0.700   1.093   1.595
14011TIP3    H141978   0.650   1.153   1.539
14011TIP3    H241979   0.790   1.122   1.588
14012TIP3   OH241980   3.160   5.296   1.632
14012TIP3    H141981   3.236   5.308   1.688
14012TIP3    H241982   3.094   5.257   1.689
14013TIP3   OH241983   5.385   1.725   6.564
14013TIP3    H141984   5.356   1.813   6.590
14013TIP3    H241985   5.471   1.715   6.603
14014TIP3   OH241986   3.860   1.865   1.599
14014TIP3    H141987   3.859   1.782   1.648
14014TIP3    H241988   3.879   1.931   1.665
14015TIP3   OH241989   1.180   7.129   1.134
14015TIP3    H141990   1.188   7.083   1.218
14015TIP3    H241991   1.086   7.127   1.114
14016TIP3   OH241992   2.548   4.813   5.949
14016TIP3    H141993   2.561   4.874   5.877
14016TIP3    H241994   2.566   4.866   6.028
14017TIP3   OH241995   7.524   7.330   6.050
14017TIP3    H141996   7.510   7.420   6.020
14017TIP3    H241997   7.617   7.314   6.033
14018TIP3   OH241998   7.558   4.502   2.462
14018TIP3    H141999   7.581   4.518   2.554
14018TIP3    H242000   7.482   4.443   2.467
14019TIP3   OH242001   0.755   5.045   4.560
14019TIP3    H142002   0.812   4.979   4.599
14019TIP3    H242003   0.667   5.022   4.590
14020TIP3   OH242004   2.313   6.066   1.791
14020TIP3    H142005   2.289   6.064   1.884
14020TIP3    H242006   2.267   6.143   1.756
14021TIP3   OH242007   5.783   0.915   6.546
14021TIP3    H142008   5.875   0.886   6.541
14021TIP3    H242009   5.767   0.926   6.639
14022TIP3   OH242010   4.101   6.752   0.335
14022TIP3    H142011   4.148   6.742   0.417
14022TIP3    H242012   4.025   6.695   0.343
14023TIP3   OH242013   7.013   1.136   0.046
14023TIP3    H142014   6.990   1.050   0.011
14023TIP3    H242015   6.934   1.165   0.092
14024TIP3   OH242016   2.651   2.461   4.461
14024TIP3    H142017   2.686   2.546   4.434
14024TIP3    H242018   2.699   2.439   4.541
14025TIP3   OH242019   7.449   6.208   0.526
14025TIP3    H142020   7.422   6.119   0.549
14025TIP3    H242021   7.446   6.256   0.609
14026TIP3   OH242022   4.656   4.815   2.859
14026TIP3    H142023   4.574   4.770   2.839
14026TIP3    H242024   4.631   4.907   2.867
14027TIP3   OH242025   1.688   1.956   2.882
14027TIP3    H142026   1.698   1.922   2.971
14027TIP3    H242027   1.774   1.946   2.842
14028TIP3   OH242028   4.634   7.392   2.800
14028TIP3    H142029   4.562   7.417   2.858
14028TIP3    H242030   4.647   7.299   2.817
14029TIP3   OH242031   6.143   7.159   3.142
14029TIP3    H142032   6.064   7.117   3.108
14029TIP3    H242033   6.213   7.133   3.082
14030TIP3   OH242034   0.456   3.652   4.222
14030TIP3    H142035   0.464   3.562   4.190
14030TIP3    H242036   0.540   3.670   4.264
14031TIP3   OH242037   6.835   6.324   4.622
14031TIP3    H142038   6.929   6.328   4.635
14031TIP3    H242039   6.807   6.416   4.620
14032TIP3   OH242040   1.534   2.616   5.187
14032TIP3    H142041   1.568   2.610   5.097
14032TIP3    H242042   1.611   2.638   5.240
14033TIP3   OH242043   6.817   1.167   2.708
14033TIP3    H142044   6.819   1.259   2.737
14033TIP3    H242045   6.727   1.154   2.678
14034TIP3   OH242046   2.962   3.563   1.023
14034TIP3    H142047   2.996   3.648   1.049
14034TIP3    H242048   3.038   3.504   1.026
14035TIP3   OH242049   4.092   4.658   4.017
14035TIP3    H142050   4.079   4.668   4.112
14035TIP3    H242051   4.152   4.728   3.994
14036TIP3   OH242052   1.676   6.377   6.199
14036TIP3    H142053   1.622   6.379   6.278
14036TIP3    H242054   1.705   6.467   6.187
14037TIP3   OH242055   2.774   2.075   4.882
14037TIP3    H142056   2.830   2.114   4.949
14037TIP3    H242057   2.693   2.054   4.928
14038TIP3   OH242058   0.561   6.638   2.245
14038TIP3    H142059   0.509   6.718   2.253
14038TIP3    H242060   0.501   6.568   2.268
14039TIP3   OH242061   3.355   4.658   0.166
14039TIP3    H142062   3.269   4.622   0.146
14039TIP3    H242063   3.369   4.636   0.258
14040TIP3   OH242064   4.118   3.699   2.062
14040TIP3    H142065   4.103   3.684   1.969
14040TIP3    H242066   4.035   3.736   2.094
14041TIP3   OH242067   6.678   7.723   5.477
14041TIP3    H142068   6.737   7.789   5.513
14041TIP3    H242069   6.616   7.773   5.424
14042TIP3   OH242070   6.360   7.400   5.057
14042TIP3    H142071   6.343   7.469   4.993
14042TIP3    H242072   6.455   7.398   5.066
14043TIP3   OH242073   5.107   3.259   1.860
14043TIP3    H142074   5.157   3.329   1.903
14043TIP3    H242075   5.104   3.189   1.924
14044TIP3   OH242076   6.009   6.005   3.177
14044TIP3    H142077   6.051   5.989   3.261
14044TIP3    H242078   6.074   5.978   3.112
14045TIP3   OH242079   0.911   1.018   0.685
14045TIP3    H142080   0.878   0.951   0.745
14045TIP3    H242081   0.873   0.994   0.600
14046TIP3   OH242082   1.370   7.318   0.721
14046TIP3    H142083   1.391   7.228   0.745
14046TIP3    H242084   1.370   7.318   0.625
14047TIP3   OH242085   5.778   1.130   3.449
14047TIP3    H142086   5.772   1.225   3.449
14047TIP3    H242087   5.704   1.102   3.504
14048TIP3   OH242088   6.098   6.464   3.765
14048TIP3    H142089   6.017   6.462   3.714
14048TIP3    H242090   6.082   6.406   3.839
14049TIP3   OH242091   3.330   6.363   2.484
14049TIP3    H142092   3.243   6.351   2.522
14049TIP3    H242093   3.353   6.277   2.449
14050TIP3   OH242094   7.551   1.632   5.775
14050TIP3    H142095   7.543   1.659   5.867
14050TIP3    H242096   7.600   1.703   5.734
14051TIP3   OH242097   3.731   3.978   4.370
14051TIP3    H142098   3.794   3.971   4.298
14051TIP3    H242099   3.781   4.019   4.441
14052TIP3   OH242100   3.392   1.033   1.679
14052TIP3    H142101   3.369   1.068   1.593
14052TIP3    H242102   3.433   0.949   1.661
14053TIP3   OH242103   5.949   2.705   6.658
14053TIP3    H142104   5.884   2.766   6.692
14053TIP3    H242105   5.964   2.733   6.568
14054TIP3   OH242106   6.361   1.820   3.719
14054TIP3    H142107   6.285   1.782   3.675
14054TIP3    H242108   6.342   1.812   3.812
14055TIP3   OH242109   7.268   1.565   2.681
14055TIP3    H142110   7.275   1.480   2.724
14055TIP3    H242111   7.345   1.569   2.624
14056TIP3   OH242112   1.763   6.489   5.083
14056TIP3    H142113   1.820   6.430   5.132
14056TIP3    H242114   1.744   6.442   5.002
14057TIP3   OH242115   4.831   2.584   2.678
14057TIP3    H142116   4.753   2.619   2.636
14057TIP3    H242117   4.874   2.661   2.716
14058TIP3   OH242118   8.270   4.257   0.141
14058TIP3    H142119   8.219   4.254   0.222
14058TIP3    H242120   8.207   4.280   0.073
14059TIP3   OH242121   6.467   0.622   2.970
14059TIP3    H142122   6.427   0.554   2.917
14059TIP3    H242123   6.490   0.691   2.908
14060TIP3   OH242124   2.583   7.738   5.473
14060TIP3    H142125   2.546   7.785   5.398
14060TIP3    H242126   2.510   7.686   5.507
14061TIP3   OH242127   5.499   0.130   6.061
14061TIP3    H142128   5.446   0.207   6.076
14061TIP3    H242129   5.467   0.066   6.125
14062TIP3   OH242130   2.065   1.089   6.736
14062TIP3    H142131   2.126   1.059   6.668
14062TIP3    H242132   2.054   1.182   6.718
14063TIP3   OH242133   7.270   1.511   6.240
14063TIP3    H142134   7.191   1.483   6.285
14063TIP3    H242135   7.238   1.568   6.169
14064TIP3   OH242136   2.837   6.559   0.392
14064TIP3    H142137   2.930   6.577   0.406
14064TIP3    H242138   2.794   6.643   0.410
14065TIP3   OH242139   3.958   1.412   4.986
14065TIP3    H142140   3.933   1.363   4.908
14065TIP3    H242141   3.970   1.502   4.955
14066TIP3   OH242142   0.854   7.109   0.855
14066TIP3    H142143   0.917   7.147   0.793
14066TIP3    H242144   0.769   7.137   0.823
14067TIP3   OH242145   7.009   3.770   2.233
14067TIP3    H142146   6.959   3.693   2.260
14067TIP3    H242147   7.050   3.744   2.150
14068TIP3   OH242148   6.091   7.456   1.287
14068TIP3    H142149   6.022   7.520   1.270
14068TIP3    H242150   6.173   7.504   1.269
14069TIP3   OH242151   5.915   0.855   0.886
14069TIP3    H142152   5.928   0.885   0.796
14069TIP3    H242153   5.830   0.811   0.885
14070TIP3   OH242154   0.245   4.017   1.766
14070TIP3    H142155   0.279   4.080   1.830
14070TIP3    H242156   0.153   4.005   1.790
14071TIP3   OH242157   7.370   6.750   5.340
14071TIP3    H142158   7.342   6.841   5.335
14071TIP3    H242159   7.442   6.744   5.277
14072TIP3   OH242160   0.947   0.356   4.038
14072TIP3    H142161   1.001   0.418   3.989
14072TIP3    H242162   0.912   0.408   4.111
14073TIP3   OH242163   5.082   3.994   3.775
14073TIP3    H142164   5.018   4.039   3.720
14073TIP3    H242165   5.165   4.038   3.756
14074TIP3   OH242166   4.164   5.403   0.444
14074TIP3    H142167   4.175   5.317   0.484
14074TIP3    H242168   4.230   5.459   0.486
14075TIP3   OH242169   5.914   4.619   6.096
14075TIP3    H142170   5.945   4.708   6.078
14075TIP3    H242171   5.989   4.576   6.137
14076TIP3   OH242172   4.602   7.429   5.295
14076TIP3    H142173   4.604   7.367   5.368
14076TIP3    H242174   4.546   7.387   5.229
14077TIP3   OH242175   1.658   1.933   2.533
14077TIP3    H142176   1.564   1.924   2.545
14077TIP3    H242177   1.690   1.962   2.619
14078TIP3   OH242178   7.483   3.497   6.302
14078TIP3    H142179   7.529   3.573   6.268
14078TIP3    H242180   7.539   3.423   6.280
14079TIP3   OH242181   4.743   1.442   2.100
14079TIP3    H142182   4.712   1.495   2.174
14079TIP3    H242183   4.696   1.359   2.108
14080TIP3   OH242184   4.825   5.728   5.204
14080TIP3    H142185   4.878   5.780   5.263
14080TIP3    H242186   4.749   5.784   5.184
14081TIP3   OH242187   0.490   5.856   4.573
14081TIP3    H142188   0.481   5.818   4.660
14081TIP3    H242189   0.498   5.781   4.514
14082TIP3   OH242190   6.098   6.125   3.735
14082TIP3    H142191   6.048   6.173   3.669
14082TIP3    H242192   6.098   6.182   3.812
14083TIP3   OH242193   0.557   0.093   1.813
14083TIP3    H142194   0.530   0.011   1.770
14083TIP3    H242195   0.652   0.084   1.821
14084TIP3   OH242196   7.841   6.259   1.210
14084TIP3    H142197   7.886   6.285   1.291
14084TIP3    H242198   7.808   6.171   1.229
14085TIP3   OH242199   6.450   3.788   0.785
14085TIP3    H142200   6.453   3.717   0.849
14085TIP3    H242201   6.358   3.810   0.779
14086TIP3   OH242202   5.265   0.236   0.654
14086TIP3    H142203   5.259   0.221   0.749
14086TIP3    H242204   5.181   0.275   0.631
14087TIP3   OH242205   2.828   2.195   5.374
14087TIP3    H142206   2.794   2.183   5.463
14087TIP3    H242207   2.846   2.288   5.367
14088TIP3   OH242208   1.171   6.059   2.816
14088TIP3    H142209   1.162   6.154   2.824
14088TIP3    H242210   1.090   6.024   2.855
14089TIP3   OH242211   3.074   3.311   1.284
14089TIP3    H142212   2.979   3.325   1.278
14089TIP3    H242213   3.108   3.341   1.200
14090TIP3   OH242214   7.853   4.804   1.112
14090TIP3    H142215   7.837   4.735   1.177
14090TIP3    H242216   7.825   4.885   1.155
14091TIP3   OH242217   3.619   4.990   3.793
14091TIP3    H142218   3.599   5.081   3.775
14091TIP3    H242219   3.712   4.981   3.774
14092TIP3   OH242220   3.835   3.707   3.669
14092TIP3    H142221   3.746   3.678   3.647
14092TIP3    H242222   3.891   3.636   3.636
14093TIP3   OH242223   1.635   1.826   5.527
14093TIP3    H142224   1.705   1.769   5.560
14093TIP3    H242225   1.592   1.773   5.459
14094TIP3   OH242226   5.679   0.184   4.488
14094TIP3    H142227   5.704   0.271   4.459
14094TIP3    H242228   5.596   0.167   4.443
14095TIP3   OH242229   6.396   1.087   0.046
14095TIP3    H142230   6.433   1.001   0.027
14095TIP3    H242231   6.398   1.094   0.141
14096TIP3   OH242232   4.471   2.866   1.741
14096TIP3    H142233   4.403   2.797   1.737
14096TIP3    H242234   4.502   2.874   1.650
14097TIP3   OH242235   6.091   1.708   1.766
14097TIP3    H142236   6.138   1.775   1.817
14097TIP3    H242237   6.015   1.686   1.820
14098TIP3   OH242238   3.672   1.441   1.384
14098TIP3    H142239   3.674   1.426   1.290
14098TIP3    H242240   3.765   1.453   1.408
14099TIP3   OH242241   4.753   1.158   5.676
14099TIP3    H142242   4.719   1.068   5.671
14099TIP3    H242243   4.824   1.153   5.741
14100TIP3   OH242244   0.357   1.278   6.228
14100TIP3    H142245   0.351   1.186   6.203
14100TIP3    H242246   0.267   1.302   6.253
14101TIP3   OH242247   1.077   1.513   0.428
14101TIP3    H142248   1.161   1.475   0.454
14101TIP3    H242249   1.063   1.585   0.489
14102TIP3   OH242250   4.009   2.134   2.707
14102TIP3    H142251   4.047   2.213   2.744
14102TIP3    H242252   3.999   2.075   2.782
14103TIP3   OH242253   7.085   5.965   4.417
14103TIP3    H142254   7.145   5.910   4.467
14103TIP3    H242255   7.035   5.904   4.363
14104TIP3   OH242256   3.378   0.436   0.213
14104TIP3    H142257   3.364   0.417   0.306
14104TIP3    H242258   3.433   0.364   0.182
14105TIP3   OH242259   4.330   3.449   6.408
14105TIP3    H142260   4.352   3.505   6.483
14105TIP3    H242261   4.243   3.414   6.430
14106TIP3   OH242262   1.008   7.239   2.072
14106TIP3    H142263   0.948   7.171   2.102
14106TIP3    H242264   1.087   7.227   2.125
14107TIP3   OH242265   0.464   1.726   2.378
14107TIP3    H142266   0.500   1.711   2.291
14107TIP3    H242267   0.447   1.638   2.413
14108TIP3   OH242268   3.297   3.425   1.555
14108TIP3    H142269   3.251   3.357   1.505
14108TIP3    H242270   3.314   3.494   1.491
14109TIP3   OH242271   4.277   0.810   6.436
14109TIP3    H142272   4.280   0.906   6.432
14109TIP3    H242273   4.311   0.789   6.523
14110TIP3   OH242274   7.912   4.730   1.950
14110TIP3    H142275   7.958   4.683   1.881
14110TIP3    H242276   7.822   4.739   1.918
14111TIP3   OH242277   4.556   3.323   3.801
14111TIP3    H142278   4.603   3.358   3.725
14111TIP3    H242279   4.597   3.366   3.876
14112TIP3   OH242280   2.197   5.936   4.302
14112TIP3    H142281   2.194   5.930   4.398
14112TIP3    H242282   2.176   5.848   4.272
14113TIP3   OH242283   0.972   0.498   2.488
14113TIP3    H142284   1.054   0.539   2.514
14113TIP3    H242285   0.993   0.449   2.409
14114TIP3   OH242286   6.672   0.821   5.460
14114TIP3    H142287   6.601   0.810   5.523
14114TIP3    H242288   6.714   0.903   5.487
14115TIP3   OH242289   7.036   7.313   6.484
14115TIP3    H142290   7.016   7.262   6.562
14115TIP3    H242291   7.131   7.308   6.475
14116TIP3   OH242292   4.080   3.960   3.134
14116TIP3    H142293   3.997   3.938   3.091
14116TIP3    H242294   4.108   4.042   3.094
14117TIP3   OH242295   4.742   3.476   3.999
14117TIP3    H142296   4.775   3.393   4.032
14117TIP3    H242297   4.804   3.501   3.931
14118TIP3   OH242298   3.433   2.959   5.874
14118TIP3    H142299   3.480   2.899   5.933
14118TIP3    H242300   3.494   2.974   5.802
14119TIP3   OH242301   7.823   5.200   0.917
14119TIP3    H142302   7.757   5.141   0.880
14119TIP3    H242303   7.777   5.284   0.924
14120TIP3   OH242304   7.821   7.036   6.549
14120TIP3    H142305   7.890   7.063   6.489
14120TIP3    H242306   7.814   6.941   6.536
14121TIP3   OH242307   2.664   2.637   6.147
14121TIP3    H142308   2.720   2.666   6.075
14121TIP3    H242309   2.631   2.552   6.119
14122TIP3   OH242310   5.309   4.349   5.092
14122TIP3    H142311   5.216   4.339   5.072
14122TIP3    H242312   5.312   4.353   5.188
14123TIP3   OH242313   4.040   4.000   1.799
14123TIP3    H142314   4.028   4.045   1.882
14123TIP3    H242315   4.114   3.942   1.813
14124TIP3   OH242316   2.378   0.168   4.129
14124TIP3    H142317   2.358   0.216   4.209
14124TIP3    H242318   2.424   0.232   4.074
14125TIP3   OH242319   4.113   1.038   6.536
14125TIP3    H142320   4.151   1.105   6.593
14125TIP3    H242321   4.102   1.081   6.451
14126TIP3   OH242322   1.936   1.128   1.532
14126TIP3    H142323   1.875   1.187   1.488
14126TIP3    H242324   1.880   1.075   1.589
14127TIP3   OH242325   1.460   2.688   5.490
14127TIP3    H142326   1.479   2.766   5.542
14127TIP3    H242327   1.536   2.678   5.433
14128TIP3   OH242328   5.141   6.431   1.231
14128TIP3    H142329   5.229   6.465   1.214
14128TIP3    H242330   5.123   6.371   1.158
14129TIP3   OH242331   5.238   5.090   1.695
14129TIP3    H142332   5.180   5.159   1.663
14129TIP3    H242333   5.276   5.127   1.775
14130TIP3   OH242334   6.930   6.981   5.537
14130TIP3    H142335   6.887   6.958   5.619
14130TIP3    H242336   6.935   7.077   5.538
14131TIP3   OH242337   4.709   5.466   5.040
14131TIP3    H142338   4.721   5.518   5.120
14131TIP3    H242339   4.656   5.522   4.983
14132TIP3   OH242340   5.729   2.882   5.152
14132TIP3    H142341   5.786   2.807   5.133
14132TIP3    H242342   5.770   2.923   5.228
14133TIP3   OH242343   8.186   4.707   2.157
14133TIP3    H142344   8.219   4.639   2.216
14133TIP3    H242345   8.243   4.701   2.080
14134TIP3   OH242346   3.142   1.738   3.645
14134TIP3    H142347   3.073   1.767   3.585
14134TIP3    H242348   3.106   1.751   3.732
14135TIP3   OH242349   0.167   0.891   3.635
14135TIP3    H142350   0.107   0.965   3.627
14135TIP3    H242351   0.213   0.907   3.717
14136TIP3   OH242352   5.289   1.381   2.440
14136TIP3    H142353   5.204   1.342   2.463
14136TIP3    H242354   5.276   1.416   2.352
14137TIP3   OH242355   3.106   0.619   2.783
14137TIP3    H142356   3.098   0.665   2.867
14137TIP3    H242357   3.134   0.531   2.807
14138TIP3   OH242358   0.202   0.643   6.251
14138TIP3    H142359   0.233   0.667   6.338
14138TIP3    H242360   0.278   0.655   6.194
14139TIP3   OH242361   3.864   7.652   0.488
14139TIP3    H142362   3.855   7.703   0.407
14139TIP3    H242363   3.950   7.676   0.522
14140TIP3   OH242364   0.883   1.883   3.737
14140TIP3    H142365   0.963   1.935   3.746
14140TIP3    H242366   0.822   1.923   3.799
14141TIP3   OH242367   4.377   0.786   5.779
14141TIP3    H142368   4.355   0.693   5.769
14141TIP3    H242369   4.343   0.826   5.698
14142TIP3   OH242370   8.279   4.181   0.423
14142TIP3    H142371   8.216   4.251   0.439
14142TIP3    H242372   8.346   4.193   0.491
14143TIP3   OH242373   2.432   0.482   6.224
14143TIP3    H142374   2.444   0.492   6.319
14143TIP3    H242375   2.338   0.494   6.211
14144TIP3   OH242376   0.920   1.910   1.103
14144TIP3    H142377   0.933   2.000   1.072
14144TIP3    H242378   0.917   1.918   1.198
14145TIP3   OH242379   5.031   1.213   3.717
14145TIP3    H142380   5.066   1.159   3.788
14145TIP3    H242381   4.950   1.250   3.753
14146TIP3   OH242382   2.273   4.890   3.689
14146TIP3    H142383   2.246   4.799   3.699
14146TIP3    H242384   2.336   4.889   3.617
14147TIP3   OH242385   4.131   7.009   3.386
14147TIP3    H142386   4.124   6.974   3.475
14147TIP3    H242387   4.149   6.932   3.332
14148TIP3   OH242388   0.716   3.247   4.019
14148TIP3    H142389   0.686   3.197   3.943
14148TIP3    H242390   0.792   3.295   3.988
14149TIP3   OH242391   2.300   3.743   2.846
14149TIP3    H142392   2.317   3.755   2.753
14149TIP3    H242393   2.219   3.691   2.849
14150TIP3   OH242394   1.275   4.759   3.870
14150TIP3    H142395   1.208   4.763   3.802
14150TIP3    H242396   1.250   4.685   3.925
14151TIP3   OH242397   3.815   0.136   6.288
14151TIP3    H142398   3.733   0.158   6.245
14151TIP3    H242399   3.805   0.166   6.378
14152TIP3   OH242400   4.983   5.635   0.929
14152TIP3    H142401   5.021   5.597   0.850
14152TIP3    H242402   4.916   5.695   0.897
14153TIP3   OH242403   3.878   0.749   1.231
14153TIP3    H142404   3.802   0.699   1.202
14153TIP3    H242405   3.908   0.794   1.152
14154TIP3   OH242406   5.070   7.535   1.835
14154TIP3    H142407   5.103   7.450   1.804
14154TIP3    H242408   4.993   7.552   1.780
14155TIP3   OH242409   7.548   0.864   4.472
14155TIP3    H142410   7.604   0.920   4.419
14155TIP3    H242411   7.516   0.798   4.411
14156TIP3   OH242412   5.373   1.820   2.515
14156TIP3    H142413   5.324   1.796   2.437
14156TIP3    H242414   5.396   1.735   2.555
14157TIP3   OH242415   1.998   5.065   5.820
14157TIP3    H142416   2.010   5.102   5.907
14157TIP3    H242417   2.085   5.070   5.779
14158TIP3   OH242418   1.023   1.624   4.011
14158TIP3    H142419   0.953   1.689   4.020
14158TIP3    H242420   1.050   1.631   3.920
14159TIP3   OH242421   7.451   1.475   2.503
14159TIP3    H142422   7.469   1.498   2.411
14159TIP3    H242423   7.533   1.439   2.535
14160TIP3   OH242424   2.292   4.104   0.611
14160TIP3    H142425   2.213   4.154   0.631
14160TIP3    H242426   2.349   4.167   0.566
14161TIP3   OH242427   2.878   3.850   0.232
14161TIP3    H142428   2.811   3.835   0.298
14161TIP3    H242429   2.936   3.916   0.270
14162TIP3   OH242430   0.212   4.715   2.720
14162TIP3    H142431   0.204   4.663   2.640
14162TIP3    H242432   0.202   4.652   2.791
14163TIP3   OH242433   4.991   5.342   2.472
14163TIP3    H142434   4.928   5.279   2.506
14163TIP3    H242435   5.050   5.290   2.417
14164TIP3   OH242436   5.187   1.638   6.077
14164TIP3    H142437   5.141   1.584   6.141
14164TIP3    H242438   5.187   1.585   5.997
14165TIP3   OH242439   7.107   5.643   6.559
14165TIP3    H142440   7.126   5.735   6.539
14165TIP3    H242441   7.157   5.593   6.494
14166TIP3   OH242442   4.405   2.602   0.337
14166TIP3    H142443   4.325   2.635   0.296
14166TIP3    H242444   4.443   2.679   0.379
14167TIP3   OH242445   1.788   7.141   6.331
14167TIP3    H142446   1.797   7.051   6.300
14167TIP3    H242447   1.733   7.134   6.409
14168TIP3   OH242448   5.355   3.973   3.238
14168TIP3    H142449   5.402   4.042   3.191
14168TIP3    H242450   5.424   3.915   3.270
14169TIP3   OH242451   2.381   5.810   0.126
14169TIP3    H142452   2.455   5.869   0.143
14169TIP3    H242453   2.403   5.729   0.172
14170TIP3   OH242454   6.763   3.545   2.983
14170TIP3    H142455   6.820   3.592   3.044
14170TIP3    H242456   6.819   3.527   2.907
14171TIP3   OH242457   2.521   0.688   3.960
14171TIP3    H142458   2.443   0.632   3.964
14171TIP3    H242459   2.496   0.767   4.008
14172TIP3   OH242460   0.591   0.224   0.823
14172TIP3    H142461   0.610   0.195   0.913
14172TIP3    H242462   0.496   0.216   0.815
14173TIP3   OH242463   4.649   6.736   4.986
14173TIP3    H142464   4.613   6.820   4.959
14173TIP3    H242465   4.623   6.675   4.917
14174TIP3   OH242466   0.450   0.901   0.553
14174TIP3    H142467   0.476   0.809   0.552
14174TIP3    H242468   0.528   0.949   0.525
14175TIP3   OH242469   2.750   6.801   5.806
14175TIP3    H142470   2.666   6.757   5.823
14175TIP3    H242471   2.725   6.891   5.784
14176TIP3   OH242472   2.634   0.305   3.819
14176TIP3    H142473   2.726   0.279   3.817
14176TIP3    H242474   2.634   0.389   3.863
14177TIP3   OH242475   3.589   7.422   0.285
14177TIP3    H142476   3.587   7.341   0.233
14177TIP3    H242477   3.551   7.488   0.227
14178TIP3   OH242478   0.201   6.997   2.852
14178TIP3    H142479   0.275   6.942   2.826
14178TIP3    H242480   0.137   6.985   2.782
14179TIP3   OH242481   5.331   4.361   6.311
14179TIP3    H142482   5.346   4.290   6.249
14179TIP3    H242483   5.373   4.438   6.272
14180TIP3   OH242484   3.229   1.038   5.133
14180TIP3    H142485   3.302   1.053   5.073
14180TIP3    H242486   3.212   1.123   5.172
14181TIP3   OH242487   3.417   3.543   3.551
14181TIP3    H142488   3.382   3.575   3.634
14181TIP3    H242489   3.503   3.509   3.574
14182TIP3   OH242490   6.049   4.942   4.440
14182TIP3    H142491   6.144   4.958   4.444
14182TIP3    H242492   6.038   4.885   4.364
14183TIP3   OH242493   0.904   6.401   6.563
14183TIP3    H142494   0.948   6.446   6.635
14183TIP3    H242495   0.964   6.408   6.490
14184TIP3   OH242496   0.848   1.873   1.889
14184TIP3    H142497   0.924   1.852   1.834
14184TIP3    H242498   0.885   1.909   1.969
14185TIP3   OH242499   6.595   2.934   2.049
14185TIP3    H142500   6.690   2.923   2.045
14185TIP3    H242501   6.581   3.004   2.114
14186TIP3   OH242502   3.196   3.294   4.510
14186TIP3    H142503   3.275   3.346   4.522
14186TIP3    H242504   3.219   3.207   4.542
14187TIP3   OH242505   2.528   1.073   4.284
14187TIP3    H142506   2.575   1.076   4.367
14187TIP3    H242507   2.474   1.152   4.284
14188TIP3   OH242508   7.315   5.821   3.556
14188TIP3    H142509   7.367   5.797   3.480
14188TIP3    H242510   7.328   5.749   3.618
14189TIP3   OH242511   3.723   4.522   5.066
14189TIP3    H142512   3.798   4.512   5.124
14189TIP3    H242513   3.704   4.434   5.035
14190TIP3   OH242514   1.207   3.411   1.242
14190TIP3    H142515   1.244   3.465   1.311
14190TIP3    H242516   1.201   3.470   1.166
14191TIP3   OH242517   2.893   3.978   1.011
14191TIP3    H142518   2.914   4.012   1.098
14191TIP3    H242519   2.969   3.925   0.987
14192TIP3   OH242520   7.344   3.080   1.227
14192TIP3    H142521   7.314   3.056   1.139
14192TIP3    H242522   7.341   3.176   1.228
14193TIP3   OH242523   7.732   6.681   2.711
14193TIP3    H142524   7.764   6.685   2.621
14193TIP3    H242525   7.729   6.588   2.731
14194TIP3   OH242526   5.951   1.928   6.658
14194TIP3    H142527   6.040   1.935   6.693
14194TIP3    H242528   5.958   1.953   6.566
14195TIP3   OH242529   0.450   2.408   4.055
14195TIP3    H142530   0.366   2.380   4.093
14195TIP3    H242531   0.446   2.378   3.964
14196TIP3   OH242532   0.198   3.031   2.113
14196TIP3    H142533   0.262   3.101   2.126
14196TIP3    H242534   0.244   2.965   2.062
14197TIP3   OH242535   7.864   3.966   5.046
14197TIP3    H142536   7.900   3.987   4.961
14197TIP3    H242537   7.834   3.875   5.038
14198TIP3   OH242538   1.837   2.124   6.306
14198TIP3    H142539   1.772   2.180   6.264
14198TIP3    H242540   1.786   2.063   6.359
14199TIP3   OH242541   2.320   6.473   2.493
14199TIP3    H142542   2.247   6.445   2.548
14199TIP3    H242543   2.395   6.424   2.526
14200TIP3   OH242544   2.052   3.981   4.482
14200TIP3    H142545   2.120   3.968   4.417
14200TIP3    H242546   2.057   3.904   4.538
14201TIP3   OH242547   2.937   3.265   4.319
14201TIP3    H142548   3.002   3.293   4.383
14201TIP3    H242549   2.854   3.300   4.352
14202TIP3   OH242550   1.511   0.741   3.432
14202TIP3    H142551   1.498   0.657   3.388
14202TIP3    H242552   1.525   0.718   3.524
14203TIP3   OH242553   3.000   2.541   0.597
14203TIP3    H142554   2.988   2.602   0.524
14203TIP3    H242555   3.069   2.581   0.651
14204TIP3   OH242556   1.961   3.759   1.324
14204TIP3    H142557   2.055   3.776   1.311
14204TIP3    H242558   1.936   3.707   1.247
14205TIP3   OH242559   6.814   7.037   4.961
14205TIP3    H142560   6.762   6.958   4.978
14205TIP3    H242561   6.783   7.100   5.026
14206TIP3   OH242562   7.774   1.067   0.901
14206TIP3    H142563   7.749   1.113   0.821
14206TIP3    H242564   7.700   1.079   0.960
14207TIP3   OH242565   0.674   3.378   5.745
14207TIP3    H142566   0.686   3.472   5.733
14207TIP3    H242567   0.675   3.342   5.657
14208TIP3   OH242568   7.026   3.201   3.864
14208TIP3    H142569   6.979   3.129   3.821
14208TIP3    H242570   6.959   3.244   3.918
14209TIP3   OH242571   2.889   2.183   6.633
14209TIP3    H142572   2.929   2.185   6.546
14209TIP3    H242573   2.820   2.249   6.629
14210TIP3   OH242574   6.557   7.151   5.482
14210TIP3    H142575   6.488   7.129   5.420
14210TIP3    H242576   6.593   7.234   5.449
14211TIP3   OH242577   6.561   6.421   3.248
14211TIP3    H142578   6.524   6.456   3.167
14211TIP3    H242579   6.555   6.326   3.238
14212TIP3   OH242580   5.795   6.364   0.063
14212TIP3    H142581   5.738   6.353   0.139
14212TIP3    H242582   5.832   6.277   0.047
14213TIP3   OH242583   1.345   6.622   5.276
14213TIP3    H142584   1.340   6.532   5.308
14213TIP3    H242585   1.254   6.651   5.269
14214TIP3   OH242586   3.684   0.331   1.363
14214TIP3    H142587   3.670   0.419   1.327
14214TIP3    H242588   3.626   0.328   1.440
14215TIP3   OH242589   1.897   6.434   1.585
14215TIP3    H142590   1.823   6.374   1.596
14215TIP3    H242591   1.867   6.517   1.623
14216TIP3   OH242592   2.982   7.451   1.998
14216TIP3    H142593   2.913   7.387   1.983
14216TIP3    H242594   3.060   7.398   2.017
14217TIP3   OH242595   6.547   6.935   5.009
14217TIP3    H142596   6.484   6.988   5.057
14217TIP3    H242597   6.537   6.961   4.918
14218TIP3   OH242598   7.323   0.861   2.104
14218TIP3    H142599   7.254   0.873   2.039
14218TIP3    H242600   7.364   0.777   2.080
14219TIP3   OH242601   6.043   0.537   2.058
14219TIP3    H142602   5.956   0.499   2.071
14219TIP3    H242603   6.032   0.630   2.079
14220TIP3   OH242604   7.472   0.858   4.845
14220TIP3    H142605   7.445   0.770   4.871
14220TIP3    H242606   7.417   0.878   4.769
14221TIP3   OH242607   6.064   1.454   0.324
14221TIP3    H142608   5.973   1.422   0.323
14221TIP3    H242609   6.103   1.409   0.399
14222TIP3   OH242610   1.342   3.767   4.834
14222TIP3    H142611   1.414   3.714   4.869
14222TIP3    H242612   1.334   3.740   4.743
14223TIP3   OH242613   2.375   0.873   1.292
14223TIP3    H142614   2.315   0.821   1.239
14223TIP3    H242615   2.334   0.959   1.297
14224TIP3   OH242616   4.411   7.406   0.473
14224TIP3    H142617   4.385   7.364   0.555
14224TIP3    H242618   4.334   7.398   0.417
14225TIP3   OH242619   0.030   3.328   2.600
14225TIP3    H142620  -0.028   3.305   2.528
14225TIP3    H242621   0.117   3.332   2.561
14226TIP3   OH242622   5.747   1.756   0.210
14226TIP3    H142623   5.827   1.809   0.210
14226TIP3    H242624   5.753   1.704   0.130
14227TIP3   OH242625   6.413   7.323   0.054
14227TIP3    H142626   6.382   7.360  -0.028
14227TIP3    H242627   6.394   7.389   0.120
14228TIP3   OH242628   7.595   2.991   6.102
14228TIP3    H142629   7.616   3.029   6.187
14228TIP3    H242630   7.648   2.911   6.097
14229TIP3   OH242631   8.071   6.269   2.707
14229TIP3    H142632   7.986   6.232   2.683
14229TIP3    H242633   8.126   6.254   2.630
14230TIP3   OH242634   7.502   1.613   1.117
14230TIP3    H142635   7.474   1.679   1.180
14230TIP3    H242636   7.475   1.648   1.032
14231TIP3   OH242637   6.887   7.477   3.065
14231TIP3    H142638   6.896   7.477   2.970
14231TIP3    H242639   6.851   7.391   3.086
14232TIP3   OH242640   5.486   7.624   0.885
14232TIP3    H142641   5.573   7.591   0.908
14232TIP3    H242642   5.503   7.703   0.834
14233TIP3   OH242643   1.181   1.410   4.065
14233TIP3    H142644   1.127   1.339   4.099
14233TIP3    H242645   1.118   1.478   4.041
14234TIP3   OH242646   4.923   1.275   5.937
14234TIP3    H142647   5.015   1.297   5.949
14234TIP3    H242648   4.875   1.352   5.967
14235TIP3   OH242649   8.230   0.633   6.681
14235TIP3    H142650   8.153   0.587   6.648
14235TIP3    H242651   8.301   0.569   6.674
14236TIP3   OH242652   3.145   6.147   0.910
14236TIP3    H142653   3.204   6.138   0.984
14236TIP3    H242654   3.126   6.241   0.907
14237TIP3   OH242655   1.516   3.747   6.263
14237TIP3    H142656   1.537   3.753   6.357
14237TIP3    H242657   1.443   3.807   6.251
14238TIP3   OH242658   6.495   2.984   5.867
14238TIP3    H142659   6.415   2.952   5.826
14238TIP3    H242660   6.487   2.958   5.959
14239TIP3   OH242661   8.031   2.325   0.072
14239TIP3    H142662   8.032   2.405   0.018
14239TIP3    H242663   7.939   2.304   0.083
14240TIP3   OH242664   6.842   2.098   5.599
14240TIP3    H142665   6.916   2.047   5.631
14240TIP3    H242666   6.765   2.057   5.639
14241TIP3   OH242667   3.682   0.771   0.087
14241TIP3    H142668   3.608   0.757   0.146
14241TIP3    H242669   3.660   0.852   0.041
14242TIP3   OH242670   6.258   6.063   3.543
14242TIP3    H142671   6.297   6.145   3.513
14242TIP3    H242672   6.198   6.089   3.613
14243TIP3   OH242673   1.524   3.092   0.741
14243TIP3    H142674   1.495   3.032   0.672
14243TIP3    H242675   1.443   3.115   0.787
14244TIP3   OH242676   5.833   2.007   1.582
14244TIP3    H142677   5.897   1.970   1.521
14244TIP3    H242678   5.885   2.051   1.649
14245TIP3   OH242679   3.032   2.522   0.099
14245TIP3    H142680   3.115   2.542   0.056
14245TIP3    H242681   3.010   2.434   0.069
14246TIP3   OH242682   2.435   4.383   3.224
14246TIP3    H142683   2.442   4.289   3.240
14246TIP3    H242684   2.438   4.422   3.311
14247TIP3   OH242685   2.631   4.841   5.187
14247TIP3    H142686   2.631   4.928   5.146
14247TIP3    H242687   2.576   4.787   5.130
14248TIP3   OH242688   4.225   3.194   6.524
14248TIP3    H142689   4.222   3.110   6.478
14248TIP3    H242690   4.289   3.181   6.594
14249TIP3   OH242691   1.024   2.501   4.270
14249TIP3    H142692   1.100   2.449   4.245
14249TIP3    H242693   0.970   2.441   4.321
14250TIP3   OH242694   2.617   7.648   3.335
14250TIP3    H142695   2.565   7.698   3.272
14250TIP3    H242696   2.693   7.703   3.352
14251TIP3   OH242697   7.598   0.786   1.128
14251TIP3    H142698   7.539   0.727   1.174
14251TIP3    H242699   7.631   0.846   1.196
14252TIP3   OH242700   5.179   0.841   1.381
14252TIP3    H142701   5.237   0.776   1.342
14252TIP3    H242702   5.091   0.803   1.374
14253TIP3   OH242703   1.406   4.216   6.092
14253TIP3    H142704   1.414   4.202   6.186
14253TIP3    H242705   1.339   4.153   6.064
14254TIP3   OH242706   2.018   5.048   4.786
14254TIP3    H142707   1.941   5.054   4.730
14254TIP3    H242708   2.044   4.956   4.782
14255TIP3   OH242709   1.435   3.464   5.539
14255TIP3    H142710   1.353   3.513   5.536
14255TIP3    H242711   1.501   3.525   5.506
14256TIP3   OH242712   2.445   6.117   5.569
14256TIP3    H142713   2.474   6.030   5.595
14256TIP3    H242714   2.401   6.104   5.485
14257TIP3   OH242715   0.214   6.991   0.201
14257TIP3    H142716   0.207   7.072   0.151
14257TIP3    H242717   0.307   6.981   0.219
14258TIP3   OH242718   6.836   4.972   5.868
14258TIP3    H142719   6.903   5.016   5.920
14258TIP3    H242720   6.885   4.919   5.806
14259TIP3   OH242721   0.928   5.439   4.995
14259TIP3    H142722   0.981   5.385   4.936
14259TIP3    H242723   0.892   5.377   5.058
14260TIP3   OH242724   6.707   1.946   1.651
14260TIP3    H142725   6.660   1.929   1.733
14260TIP3    H242726   6.772   1.875   1.646
14261TIP3   OH242727   0.410   1.050   3.187
14261TIP3    H142728   0.469   1.101   3.131
14261TIP3    H242729   0.338   1.025   3.130
14262TIP3   OH242730   4.036   7.598   5.823
14262TIP3    H142731   4.006   7.511   5.850
14262TIP3    H242732   4.119   7.610   5.869
14263TIP3   OH242733   4.558   3.253   0.801
14263TIP3    H142734   4.594   3.271   0.888
14263TIP3    H242735   4.629   3.275   0.740
14264TIP3   OH242736   5.688   6.658   1.665
14264TIP3    H142737   5.771   6.705   1.663
14264TIP3    H242738   5.681   6.623   1.754
14265TIP3   OH242739   6.310   5.310   1.448
14265TIP3    H142740   6.270   5.281   1.365
14265TIP3    H242741   6.303   5.405   1.446
14266TIP3   OH242742   4.104   6.228   0.364
14266TIP3    H142743   4.145   6.293   0.308
14266TIP3    H242744   4.162   6.222   0.440
14267TIP3   OH242745   2.439   1.687   6.731
14267TIP3    H142746   2.373   1.754   6.748
14267TIP3    H242747   2.462   1.653   6.817
14268TIP3   OH242748   7.798   1.615   3.982
14268TIP3    H142749   7.734   1.656   3.924
14268TIP3    H242750   7.765   1.526   3.995
14269TIP3   OH242751   2.454   5.718   4.451
14269TIP3    H142752   2.467   5.724   4.357
14269TIP3    H242753   2.375   5.770   4.467
14270TIP3   OH242754   3.802   6.985   0.134
14270TIP3    H142755   3.758   6.911   0.176
14270TIP3    H242756   3.803   7.054   0.200
14271TIP3   OH242757   4.846   6.372   4.116
14271TIP3    H142758   4.926   6.326   4.142
14271TIP3    H242759   4.864   6.404   4.028
14272TIP3   OH242760   0.509   5.144   2.945
14272TIP3    H142761   0.526   5.226   2.899
14272TIP3    H242762   0.436   5.104   2.897
14273TIP3   OH242763   7.632   0.634   1.511
14273TIP3    H142764   7.580   0.714   1.522
14273TIP3    H242765   7.567   0.564   1.509
14274TIP3   OH242766   7.767   2.600   2.691
14274TIP3    H142767   7.828   2.614   2.763
14274TIP3    H242768   7.759   2.686   2.649
14275TIP3   OH242769   2.319   3.003   4.109
14275TIP3    H142770   2.409   2.999   4.142
14275TIP3    H242771   2.301   2.914   4.078
14276TIP3   OH242772   7.628   1.969   6.504
14276TIP3    H142773   7.713   1.931   6.524
14276TIP3    H242774   7.648   2.058   6.475
14277TIP3   OH242775   5.843   4.737   3.015
14277TIP3    H142776   5.896   4.665   2.982
14277TIP3    H242777   5.868   4.747   3.107
14278TIP3   OH242778   5.437   0.801   5.621
14278TIP3    H142779   5.395   0.837   5.543
14278TIP3    H242780   5.529   0.823   5.611
14279TIP3   OH242781   7.245   1.471   0.423
14279TIP3    H142782   7.329   1.517   0.419
14279TIP3    H242783   7.241   1.420   0.342
14280TIP3   OH242784   5.801   1.685   3.612
14280TIP3    H142785   5.776   1.757   3.554
14280TIP3    H242786   5.773   1.714   3.699
14281TIP3   OH242787   0.593   7.629   3.641
14281TIP3    H142788   0.533   7.559   3.666
14281TIP3    H242789   0.598   7.622   3.545
14282TIP3   OH242790   3.276   2.638   4.113
14282TIP3    H142791   3.305   2.569   4.173
14282TIP3    H242792   3.182   2.623   4.102
14283TIP3   OH242793   6.702   6.281   0.150
14283TIP3    H142794   6.760   6.324   0.087
14283TIP3    H242795   6.726   6.188   0.146
14284TIP3   OH242796   1.280   7.555   6.347
14284TIP3    H142797   1.313   7.479   6.300
14284TIP3    H242798   1.261   7.619   6.278
14285TIP3   OH242799   1.001   3.425   5.382
14285TIP3    H142800   1.049   3.351   5.344
14285TIP3    H242801   1.025   3.423   5.475
14286TIP3   OH242802   7.589   5.323   1.265
14286TIP3    H142803   7.536   5.402   1.275
14286TIP3    H242804   7.555   5.280   1.187
14287TIP3   OH242805   1.571   6.741   3.333
14287TIP3    H142806   1.498   6.778   3.284
14287TIP3    H242807   1.592   6.660   3.287
14288TIP3   OH242808   6.349   0.992   0.338
14288TIP3    H142809   6.430   0.943   0.327
14288TIP3    H242810   6.378   1.081   0.359
14289TIP3   OH242811   4.097   7.019   4.740
14289TIP3    H142812   4.149   6.980   4.670
14289TIP3    H242813   4.056   7.095   4.700
14290TIP3   OH242814   5.638   3.125   2.869
14290TIP3    H142815   5.654   3.135   2.776
14290TIP3    H242816   5.551   3.163   2.883
14291TIP3   OH242817   2.153   5.034   2.519
14291TIP3    H142818   2.169   4.986   2.600
14291TIP3    H242819   2.117   5.118   2.547
14292TIP3   OH242820   7.914   6.279   1.492
14292TIP3    H142821   7.951   6.351   1.543
14292TIP3    H242822   7.925   6.202   1.547
14293TIP3   OH242823   0.355   5.287   5.708
14293TIP3    H142824   0.274   5.239   5.693
14293TIP3    H242825   0.330   5.357   5.769
14294TIP3   OH242826   7.491   5.063   3.674
14294TIP3    H142827   7.422   4.996   3.678
14294TIP3    H242828   7.548   5.034   3.603
14295TIP3   OH242829   6.672   7.527   6.472
14295TIP3    H142830   6.580   7.531   6.496
14295TIP3    H242831   6.692   7.433   6.467
14296TIP3   OH242832   0.514   1.673   0.654
14296TIP3    H142833   0.439   1.614   0.659
14296TIP3    H242834   0.477   1.760   0.666
14297TIP3   OH242835   0.753   3.399   1.326
14297TIP3    H142836   0.844   3.410   1.354
14297TIP3    H242837   0.720   3.489   1.317
14298TIP3   OH242838   4.374   7.108   1.551
14298TIP3    H142839   4.433   7.127   1.478
14298TIP3    H242840   4.344   7.019   1.535
14299TIP3   OH242841   2.785   2.542   0.890
14299TIP3    H142842   2.791   2.508   0.980
14299TIP3    H242843   2.765   2.465   0.837
14300TIP3   OH242844   6.836   4.076   6.069
14300TIP3    H142845   6.924   4.081   6.033
14300TIP3    H242846   6.810   3.985   6.057
14301TIP3   OH242847   1.003   1.650   0.640
14301TIP3    H142848   0.953   1.713   0.587
14301TIP3    H242849   0.937   1.609   0.696
14302TIP3   OH242850   6.355   1.995   1.634
14302TIP3    H142851   6.327   1.903   1.626
14302TIP3    H242852   6.449   1.990   1.648
14303TIP3   OH242853   4.308   5.465   5.068
14303TIP3    H142854   4.263   5.424   4.995
14303TIP3    H242855   4.300   5.402   5.140
14304TIP3   OH242856   7.135   7.428   1.828
14304TIP3    H142857   7.200   7.364   1.798
14304TIP3    H242858   7.121   7.485   1.752
14305TIP3   OH242859   2.584   0.534   0.633
14305TIP3    H142860   2.549   0.623   0.635
14305TIP3    H242861   2.666   0.541   0.585
14306TIP3   OH242862   7.939   4.858   2.495
14306TIP3    H142863   7.871   4.915   2.459
14306TIP3    H242864   7.899   4.821   2.575
14307TIP3   OH242865   6.838   0.791   5.026
14307TIP3    H142866   6.929   0.818   5.013
14307TIP3    H242867   6.827   0.717   4.966
14308TIP3   OH242868   5.077   0.375   1.295
14308TIP3    H142869   5.001   0.336   1.252
14308TIP3    H242870   5.040   0.419   1.372
14309TIP3   OH242871   4.279   3.667   6.223
14309TIP3    H142872   4.251   3.740   6.279
14309TIP3    H242873   4.318   3.604   6.284
14310TIP3   OH242874   7.295   4.340   0.362
14310TIP3    H142875   7.316   4.256   0.321
14310TIP3    H242876   7.204   4.330   0.391
14311TIP3   OH242877   4.293   6.499   3.890
14311TIP3    H142878   4.387   6.511   3.876
14311TIP3    H242879   4.277   6.534   3.977
14312TIP3   OH242880   3.429   4.093   0.172
14312TIP3    H142881   3.458   4.134   0.091
14312TIP3    H242882   3.413   4.001   0.149
14313TIP3   OH242883   6.149   7.440   2.968
14313TIP3    H142884   6.111   7.357   2.995
14313TIP3    H242885   6.122   7.451   2.877
14314TIP3   OH242886   2.668   6.666   5.379
14314TIP3    H142887   2.688   6.574   5.361
14314TIP3    H242888   2.741   6.696   5.433
14315TIP3   OH242889   4.467   3.356   2.335
14315TIP3    H142890   4.410   3.431   2.349
14315TIP3    H242891   4.482   3.355   2.240
14316TIP3   OH242892   1.014   2.909   2.285
14316TIP3    H142893   0.938   2.851   2.277
14316TIP3    H242894   1.083   2.853   2.320
14317TIP3   OH242895   6.518   2.985   2.780
14317TIP3    H142896   6.434   3.030   2.789
14317TIP3    H242897   6.547   3.005   2.692
14318TIP3   OH242898   2.877   6.768   1.310
14318TIP3    H142899   2.956   6.808   1.347
14318TIP3    H242900   2.895   6.761   1.216
14319TIP3   OH242901   4.542   1.383   3.641
14319TIP3    H142902   4.538   1.436   3.721
14319TIP3    H242903   4.622   1.332   3.649
14320TIP3   OH242904   4.462   2.564   4.205
14320TIP3    H142905   4.399   2.636   4.205
14320TIP3    H242906   4.542   2.602   4.243
14321TIP3   OH242907   6.052   1.307   1.211
14321TIP3    H142908   5.987   1.325   1.279
14321TIP3    H242909   6.001   1.300   1.130
14322TIP3   OH242910   1.048   3.405   5.674
14322TIP3    H142911   0.981   3.378   5.736
14322TIP3    H242912   1.117   3.339   5.682
14323TIP3   OH242913   0.913   0.545   4.955
14323TIP3    H142914   0.996   0.592   4.966
14323TIP3    H242915   0.930   0.458   4.992
14324TIP3   OH242916   2.955   4.526   2.656
14324TIP3    H142917   2.942   4.448   2.602
14324TIP3    H242918   2.903   4.510   2.735
14325TIP3   OH242919   3.802   6.025   4.425
14325TIP3    H142920   3.761   5.959   4.481
14325TIP3    H242921   3.775   6.109   4.463
14326TIP3   OH242922   4.549   3.874   5.523
14326TIP3    H142923   4.481   3.829   5.474
14326TIP3    H242924   4.502   3.919   5.593
14327TIP3   OH242925   4.288   5.190   6.163
14327TIP3    H142926   4.241   5.145   6.092
14327TIP3    H242927   4.239   5.167   6.242
14328TIP3   OH242928   4.486   6.475   1.843
14328TIP3    H142929   4.567   6.425   1.841
14328TIP3    H242930   4.450   6.458   1.930
14329TIP3   OH242931   4.815   6.155   1.539
14329TIP3    H142932   4.795   6.074   1.587
14329TIP3    H242933   4.885   6.131   1.479
14330TIP3   OH242934   3.457   5.906   6.145
14330TIP3    H142935   3.381   5.915   6.088
14330TIP3    H242936   3.460   5.987   6.196
14331TIP3   OH242937   6.934   4.595   5.742
14331TIP3    H142938   6.979   4.679   5.726
14331TIP3    H242939   7.003   4.538   5.776
14332TIP3   OH242940   8.201   4.162   6.236
14332TIP3    H142941   8.114   4.191   6.261
14332TIP3    H242942   8.250   4.158   6.319
14333TIP3   OH242943   3.494   2.561   0.983
14333TIP3    H142944   3.495   2.626   0.912
14333TIP3    H242945   3.582   2.565   1.021
14334TIP3   OH242946   2.332   4.564   6.167
14334TIP3    H142947   2.390   4.608   6.105
14334TIP3    H242948   2.376   4.574   6.252
14335TIP3   OH242949   1.561   0.201   1.525
14335TIP3    H142950   1.525   0.113   1.515
14335TIP3    H242951   1.586   0.227   1.436
14336TIP3   OH242952   2.225   5.518   1.723
14336TIP3    H142953   2.222   5.598   1.671
14336TIP3    H242954   2.298   5.468   1.686
14337TIP3   OH242955   8.212   7.306   1.041
14337TIP3    H142956   8.269   7.285   1.115
14337TIP3    H242957   8.184   7.221   1.008
14338TIP3   OH242958   3.084   3.895   3.154
14338TIP3    H142959   3.168   3.933   3.128
14338TIP3    H242960   3.031   3.970   3.181
14339TIP3   OH242961   0.709   2.691   6.302
14339TIP3    H142962   0.632   2.685   6.245
14339TIP3    H242963   0.723   2.785   6.313
14340TIP3   OH242964   7.680   0.010   5.823
14340TIP3    H142965   7.656   0.074   5.756
14340TIP3    H242966   7.703   0.062   5.900
14341TIP3   OH242967   2.502   5.404   4.531
14341TIP3    H142968   2.541   5.473   4.584
14341TIP3    H242969   2.460   5.450   4.458
14342TIP3   OH242970   1.008   7.006   2.600
14342TIP3    H142971   1.057   7.019   2.682
14342TIP3    H242972   0.975   7.093   2.578
14343TIP3   OH242973   8.268   4.072   2.953
14343TIP3    H142974   8.277   3.976   2.958
14343TIP3    H242975   8.317   4.096   2.874
14344TIP3   OH242976   6.910   6.770   0.618
14344TIP3    H142977   6.988   6.718   0.600
14344TIP3    H242978   6.837   6.708   0.612
14345TIP3   OH242979   5.191   1.036   5.658
14345TIP3    H142980   5.160   1.010   5.571
14345TIP3    H242981   5.154   1.123   5.672
14346TIP3   OH242982   6.922   5.992   5.576
14346TIP3    H142983   7.007   5.993   5.619
14346TIP3    H242984   6.920   5.908   5.529
14347TIP3   OH242985   3.612   4.778   6.531
14347TIP3    H142986   3.601   4.686   6.556
14347TIP3    H242987   3.684   4.809   6.586
14348TIP3   OH242988   0.437   5.776   3.549
14348TIP3    H142989   0.505   5.816   3.604
14348TIP3    H242990   0.485   5.735   3.478
14349TIP3   OH242991   5.306   6.995   6.425
14349TIP3    H142992   5.251   7.031   6.355
14349TIP3    H242993   5.373   7.062   6.439
14350TIP3   OH242994   6.015   0.381   4.047
14350TIP3    H142995   5.996   0.405   3.957
14350TIP3    H242996   6.104   0.344   4.044
14351TIP3   OH242997   1.604   4.353   4.162
14351TIP3    H142998   1.532   4.398   4.118
14351TIP3    H242999   1.673   4.419   4.169
14352TIP3   OH243000   7.106   2.069   0.130
14352TIP3    H143001   7.030   2.072   0.073
14352TIP3    H243002   7.158   2.146   0.105
14353TIP3   OH243003   1.383   2.522   1.813
14353TIP3    H143004   1.344   2.485   1.734
14353TIP3    H243005   1.453   2.462   1.837
14354TIP3   OH243006   2.176   1.273   3.482
14354TIP3    H143007   2.219   1.195   3.448
14354TIP3    H243008   2.091   1.275   3.437
14355TIP3   OH243009   3.823   4.130   1.184
14355TIP3    H143010   3.766   4.185   1.238
14355TIP3    H243011   3.799   4.041   1.207
14356TIP3   OH243012   6.149   4.178   4.284
14356TIP3    H143013   6.139   4.272   4.297
14356TIP3    H243014   6.135   4.140   4.371
14357TIP3   OH243015   8.245   5.142   1.957
14357TIP3    H143016   8.215   5.232   1.967
14357TIP3    H243017   8.329   5.150   1.910
14358TIP3   OH243018   2.349   1.722   0.845
14358TIP3    H143019   2.398   1.665   0.905
14358TIP3    H243020   2.371   1.810   0.873
14359TIP3   OH243021   7.928   2.134   1.733
14359TIP3    H143022   7.865   2.114   1.802
14359TIP3    H243023   7.972   2.051   1.715
14360TIP3   OH243024   6.736   7.140   2.543
14360TIP3    H143025   6.789   7.077   2.495
14360TIP3    H243026   6.738   7.109   2.634
14361TIP3   OH243027   5.601   7.023   4.878
14361TIP3    H143028   5.676   6.970   4.905
14361TIP3    H243029   5.632   7.072   4.802
14362TIP3   OH243030   5.078   5.153   3.631
14362TIP3    H143031   5.153   5.141   3.690
14362TIP3    H243032   5.006   5.177   3.689
14363TIP3   OH243033   1.343   4.281   5.578
14363TIP3    H143034   1.253   4.254   5.562
14363TIP3    H243035   1.376   4.305   5.491
14364TIP3   OH243036   0.968   0.180   1.147
14364TIP3    H143037   1.052   0.135   1.153
14364TIP3    H243038   0.965   0.212   1.057
14365TIP3   OH243039   2.751   1.070   6.358
14365TIP3    H143040   2.674   1.047   6.306
14365TIP3    H243041   2.755   1.166   6.354
14366TIP3   OH243042   1.127   0.359   2.991
14366TIP3    H143043   1.112   0.429   2.927
14366TIP3    H243044   1.039   0.334   3.020
14367TIP3   OH243045   1.165   7.260   6.471
14367TIP3    H143046   1.145   7.208   6.549
14367TIP3    H243047   1.170   7.350   6.503
14368TIP3   OH243048   1.455   3.635   1.161
14368TIP3    H143049   1.434   3.724   1.130
14368TIP3    H243050   1.442   3.640   1.256
14369TIP3   OH243051   3.364   5.438   4.780
14369TIP3    H143052   3.269   5.434   4.783
14369TIP3    H243053   3.392   5.346   4.782
14370TIP3   OH243054   5.477   6.882   0.352
14370TIP3    H143055   5.536   6.887   0.276
14370TIP3    H243056   5.479   6.970   0.389
14371TIP3   OH243057   7.990   5.659   2.032
14371TIP3    H143058   8.053   5.730   2.022
14371TIP3    H243059   7.906   5.698   2.009
14372TIP3   OH243060   1.740   4.946   0.088
14372TIP3    H143061   1.823   4.969   0.046
14372TIP3    H243062   1.682   5.020   0.068
14373TIP3   OH243063   0.466   2.647   6.648
14373TIP3    H143064   0.463   2.732   6.603
14373TIP3    H243065   0.444   2.667   6.739
14374TIP3   OH243066   1.527   0.389   5.458
14374TIP3    H143067   1.590   0.329   5.416
14374TIP3    H243068   1.442   0.364   5.421
14375TIP3   OH243069   0.501   3.547   5.431
14375TIP3    H143070   0.555   3.487   5.482
14375TIP3    H243071   0.518   3.633   5.470
14376TIP3   OH243072   3.894   2.709   4.114
14376TIP3    H143073   3.919   2.801   4.118
14376TIP3    H243074   3.845   2.701   4.031
14377TIP3   OH243075   4.774   0.999   0.065
14377TIP3    H143076   4.711   0.983  -0.005
14377TIP3    H243077   4.759   0.928   0.127
14378TIP3   OH243078   1.341   4.726   1.827
14378TIP3    H143079   1.246   4.712   1.832
14378TIP3    H243080   1.370   4.669   1.756
14379TIP3   OH243081   1.466   5.562   2.993
14379TIP3    H143082   1.410   5.546   2.917
14379TIP3    H243083   1.410   5.611   3.053
14380TIP3   OH243084   0.074   4.260   0.656
14380TIP3    H143085   0.102   4.304   0.736
14380TIP3    H243086   0.032   4.180   0.685
14381TIP3   OH243087   7.770   0.503   1.255
14381TIP3    H143088   7.694   0.480   1.202
14381TIP3    H243089   7.766   0.446   1.331
14382TIP3   OH243090   1.717   2.410   1.509
14382TIP3    H143091   1.654   2.339   1.525
14382TIP3    H243092   1.726   2.413   1.414
14383TIP3   OH243093   0.705   4.822   1.462
14383TIP3    H143094   0.683   4.830   1.369
14383TIP3    H243095   0.724   4.911   1.490
14384TIP3   OH243096   3.167   6.526   6.655
14384TIP3    H143097   3.154   6.610   6.611
14384TIP3    H243098   3.181   6.463   6.584
14385TIP3   OH243099   0.084   6.925   3.265
14385TIP3    H143100   0.067   6.833   3.243
14385TIP3    H243101   0.005   6.954   3.311
14386TIP3   OH243102   7.246   3.199   0.759
14386TIP3    H143103   7.337   3.221   0.739
14386TIP3    H243104   7.221   3.259   0.829
14387TIP3   OH243105   7.892   0.641   1.535
14387TIP3    H143106   7.898   0.736   1.522
14387TIP3    H243107   7.799   0.622   1.526
14388TIP3   OH243108   1.627   0.203   0.711
14388TIP3    H143109   1.629   0.113   0.744
14388TIP3    H243110   1.625   0.257   0.791
14389TIP3   OH243111   7.379   6.925   6.027
14389TIP3    H143112   7.469   6.913   5.996
14389TIP3    H243113   7.343   6.995   5.971
14390TIP3   OH243114   4.077   0.565   3.229
14390TIP3    H143115   4.074   0.581   3.324
14390TIP3    H243116   4.164   0.530   3.214
14391TIP3   OH243117   8.100   3.153   2.846
14391TIP3    H143118   8.103   3.078   2.906
14391TIP3    H243119   8.191   3.171   2.826
14392TIP3   OH243120   3.562   7.486   6.225
14392TIP3    H143121   3.551   7.449   6.313
14392TIP3    H243122   3.487   7.453   6.176
14393TIP3   OH243123   6.087   0.813   2.072
14393TIP3    H143124   6.128   0.891   2.109
14393TIP3    H243125   6.155   0.773   2.019
14394TIP3   OH243126   5.870   2.027   2.962
14394TIP3    H143127   5.843   2.081   2.887
14394TIP3    H243128   5.964   2.018   2.952
14395TIP3   OH243129   4.100   7.031   0.493
14395TIP3    H143130   4.136   6.977   0.423
14395TIP3    H243131   4.165   7.024   0.564
14396TIP3   OH243132   0.499   0.808   5.775
14396TIP3    H143133   0.450   0.766   5.703
14396TIP3    H243134   0.591   0.801   5.748
14397TIP3   OH243135   2.802   6.509   0.936
14397TIP3    H143136   2.718   6.542   0.905
14397TIP3    H243137   2.782   6.466   1.019
14398TIP3   OH243138   7.845   1.958   3.265
14398TIP3    H143139   7.911   2.023   3.290
14398TIP3    H243140   7.823   1.979   3.174
14399TIP3   OH243141   0.604   5.333   5.600
14399TIP3    H143142   0.591   5.272   5.527
14399TIP3    H243143   0.536   5.310   5.663
14400TIP3   OH243144   7.325   5.696   2.208
14400TIP3    H143145   7.288   5.742   2.282
14400TIP3    H243146   7.408   5.661   2.240
14401TIP3   OH243147   2.534   2.415   1.430
14401TIP3    H143148   2.449   2.459   1.430
14401TIP3    H243149   2.553   2.399   1.523
14402TIP3   OH243150   7.810   2.315   0.778
14402TIP3    H143151   7.862   2.351   0.706
14402TIP3    H243152   7.875   2.278   0.838
14403TIP3   OH243153   5.548   3.912   1.191
14403TIP3    H143154   5.476   3.973   1.172
14403TIP3    H243155   5.535   3.888   1.283
14404TIP3   OH243156   3.455   7.535   1.415
14404TIP3    H143157   3.500   7.489   1.344
14404TIP3    H243158   3.521   7.594   1.451
14405TIP3   OH243159   2.861   6.096   0.723
14405TIP3    H143160   2.895   6.182   0.699
14405TIP3    H243161   2.869   6.093   0.818
14406TIP3   OH243162   7.483   0.247   5.256
14406TIP3    H143163   7.492   0.342   5.259
14406TIP3    H243164   7.389   0.231   5.262
14407TIP3   OH243165   5.636   7.390   1.624
14407TIP3    H143166   5.565   7.357   1.570
14407TIP3    H243167   5.695   7.315   1.636
14408TIP3   OH243168   2.527   5.093   6.625
14408TIP3    H143169   2.517   4.998   6.636
14408TIP3    H243170   2.566   5.103   6.538
14409TIP3   OH243171   2.703   2.362   3.034
14409TIP3    H143172   2.668   2.311   3.107
14409TIP3    H243173   2.663   2.449   3.045
14410TIP3   OH243174   0.746   0.341   5.442
14410TIP3    H143175   0.720   0.330   5.351
14410TIP3    H243176   0.664   0.355   5.490
14411TIP3   OH243177   2.633   7.453   0.302
14411TIP3    H143178   2.627   7.548   0.302
14411TIP3    H243179   2.690   7.432   0.228
14412TIP3   OH243180   4.951   3.673   6.690
14412TIP3    H143181   4.932   3.737   6.621
14412TIP3    H243182   5.021   3.619   6.654
14413TIP3   OH243183   2.504   1.810   1.475
14413TIP3    H143184   2.526   1.762   1.396
14413TIP3    H243185   2.589   1.837   1.511
14414TIP3   OH243186   2.733   4.224   4.730
14414TIP3    H143187   2.704   4.288   4.795
14414TIP3    H243188   2.718   4.139   4.773
14415TIP3   OH243189   1.362   5.339   3.719
14415TIP3    H143190   1.361   5.331   3.815
14415TIP3    H243191   1.430   5.278   3.691
14416TIP3   OH243192   6.557   7.479   6.117
14416TIP3    H143193   6.571   7.502   6.209
14416TIP3    H243194   6.464   7.494   6.102
14417TIP3   OH243195   1.710   1.367   1.835
14417TIP3    H143196   1.679   1.386   1.924
14417TIP3    H243197   1.654   1.295   1.805
14418TIP3   OH243198   3.190   1.398   4.488
14418TIP3    H143199   3.229   1.334   4.548
14418TIP3    H243200   3.234   1.381   4.404
14419TIP3   OH243201   1.207   4.954   6.673
14419TIP3    H143202   1.141   4.976   6.608
14419TIP3    H243203   1.202   5.025   6.737
14420TIP3   OH243204   6.529   2.453   2.999
14420TIP3    H143205   6.489   2.385   3.053
14420TIP3    H243206   6.512   2.535   3.047
14421TIP3   OH243207   4.999   2.424   5.811
14421TIP3    H143208   4.950   2.425   5.893
14421TIP3    H243209   4.994   2.514   5.779
14422TIP3   OH243210   1.606   7.551   0.080
14422TIP3    H143211   1.522   7.520   0.044
14422TIP3    H243212   1.669   7.483   0.056
14423TIP3   OH243213   1.219   1.890   4.456
14423TIP3    H143214   1.280   1.962   4.440
14423TIP3    H243215   1.264   1.813   4.420
14424TIP3   OH243216   4.960   0.221   3.621
14424TIP3    H143217   4.880   0.228   3.570
14424TIP3    H243218   5.018   0.287   3.584
14425TIP3   OH243219   0.128   2.910   5.472
14425TIP3    H143220   0.051   2.884   5.422
14425TIP3    H243221   0.175   2.827   5.487
14426TIP3   OH243222   7.473   1.737   4.489
14426TIP3    H143223   7.485   1.705   4.578
14426TIP3    H243224   7.480   1.658   4.434
14427TIP3   OH243225   4.473   4.282   0.204
14427TIP3    H143226   4.510   4.212   0.151
14427TIP3    H243227   4.441   4.239   0.283
14428TIP3   OH243228   5.036   4.238   2.890
14428TIP3    H143229   4.951   4.220   2.849
14428TIP3    H243230   5.042   4.334   2.891
14429TIP3   OH243231   7.265   4.546   3.482
14429TIP3    H143232   7.231   4.529   3.570
14429TIP3    H243233   7.234   4.473   3.430
14430TIP3   OH243234   3.915   7.740   6.352
14430TIP3    H143235   4.004   7.722   6.380
14430TIP3    H243236   3.893   7.668   6.293
14431TIP3   OH243237   0.106   4.728   0.388
14431TIP3    H143238   0.028   4.684   0.422
14431TIP3    H243239   0.076   4.815   0.363
14432TIP3   OH243240   3.528   6.749   5.183
14432TIP3    H143241   3.465   6.818   5.160
14432TIP3    H243242   3.611   6.794   5.196
14433TIP3   OH243243   0.725   1.406   6.218
14433TIP3    H143244   0.783   1.350   6.166
14433TIP3    H243245   0.742   1.381   6.309
14434TIP3   OH243246   1.732   1.037   3.936
14434TIP3    H143247   1.700   0.960   3.982
14434TIP3    H243248   1.820   1.052   3.971
14435TIP3   OH243249   5.743   6.328   2.366
14435TIP3    H143250   5.694   6.386   2.424
14435TIP3    H243251   5.683   6.256   2.348
14436TIP3   OH243252   1.503   3.982   2.051
14436TIP3    H143253   1.587   4.011   2.017
14436TIP3    H243254   1.470   4.056   2.101
14437TIP3   OH243255   8.009   5.210   4.101
14437TIP3    H143256   8.052   5.294   4.081
14437TIP3    H243257   8.082   5.151   4.123
14438TIP3   OH243258   6.505   6.965   4.732
14438TIP3    H143259   6.585   6.926   4.696
14438TIP3    H243260   6.512   7.058   4.710
14439TIP3   OH243261   1.480   3.693   1.427
14439TIP3    H143262   1.419   3.632   1.469
14439TIP3    H243263   1.556   3.695   1.484
14440TIP3   OH243264   6.027   3.364   4.837
14440TIP3    H143265   5.986   3.380   4.752
14440TIP3    H243266   6.115   3.334   4.815
14441TIP3   OH243267   2.246   0.436   1.956
14441TIP3    H143268   2.177   0.384   1.913
14441TIP3    H243269   2.293   0.373   2.011
14442TIP3   OH243270   1.809   2.384   0.867
14442TIP3    H143271   1.765   2.303   0.893
14442TIP3    H243272   1.893   2.381   0.913
14443TIP3   OH243273   1.129   2.991   3.275
14443TIP3    H143274   1.188   2.943   3.217
14443TIP3    H243275   1.064   3.031   3.217
14444TIP3   OH243276   2.416   2.461   6.053
14444TIP3    H143277   2.419   2.527   5.983
14444TIP3    H243278   2.458   2.385   6.015
14445TIP3   OH243279   2.905   2.252   6.330
14445TIP3    H143280   2.972   2.262   6.263
14445TIP3    H243281   2.902   2.158   6.348
14446TIP3   OH243282   1.767   0.891   1.708
14446TIP3    H143283   1.839   0.881   1.770
14446TIP3    H243284   1.689   0.873   1.760
14447TIP3   OH243285   2.520   2.475   0.343
14447TIP3    H143286   2.591   2.432   0.390
14447TIP3    H243287   2.448   2.413   0.346
14448TIP3   OH243288   7.266   4.169   5.186
14448TIP3    H143289   7.249   4.210   5.271
14448TIP3    H243290   7.361   4.156   5.183
14449TIP3   OH243291   6.899   3.867   0.662
14449TIP3    H143292   6.970   3.824   0.710
14449TIP3    H243293   6.894   3.954   0.700
14450TIP3   OH243294   4.589   5.100   6.130
14450TIP3    H143295   4.493   5.104   6.138
14450TIP3    H243296   4.618   5.061   6.213
14451TIP3   OH243297   5.921   0.934   1.889
14451TIP3    H143298   5.966   0.862   1.932
14451TIP3    H243299   5.925   0.913   1.796
14452TIP3   OH243300   7.113   4.453   5.097
14452TIP3    H143301   7.124   4.541   5.132
14452TIP3    H243302   7.038   4.460   5.037
14453TIP3   OH243303   4.285   6.411   5.964
14453TIP3    H143304   4.365   6.362   5.987
14453TIP3    H243305   4.278   6.402   5.869
14454TIP3   OH243306   6.618   6.018   0.755
14454TIP3    H143307   6.713   6.029   0.767
14454TIP3    H243308   6.604   5.923   0.764
14455TIP3   OH243309   8.221   0.632   5.466
14455TIP3    H143310   8.302   0.684   5.459
14455TIP3    H243311   8.179   0.665   5.545
14456TIP3   OH243312   6.753   6.882   4.612
14456TIP3    H143313   6.795   6.806   4.572
14456TIP3    H243314   6.768   6.953   4.550
14457TIP3   OH243315   4.223   1.500   2.529
14457TIP3    H143316   4.259   1.555   2.460
14457TIP3    H243317   4.175   1.431   2.483
14458TIP3   OH243318   7.166   1.173   3.111
14458TIP3    H143319   7.119   1.161   3.028
14458TIP3    H243320   7.259   1.169   3.087
14459TIP3   OH243321   5.036   6.628   2.283
14459TIP3    H143322   4.984   6.558   2.323
14459TIP3    H243323   4.977   6.669   2.220
14460TIP3   OH243324   5.506   4.358   5.915
14460TIP3    H143325   5.515   4.442   5.960
14460TIP3    H243326   5.504   4.381   5.822
14461TIP3   OH243327   2.309   2.376   1.045
14461TIP3    H143328   2.353   2.454   1.011
14461TIP3    H243329   2.372   2.338   1.105
14462TIP3   OH243330   2.866   0.038   2.794
14462TIP3    H143331   2.899  -0.047   2.824
14462TIP3    H243332   2.808   0.067   2.864
14463TIP3   OH243333   1.843   2.024   3.183
14463TIP3    H143334   1.817   1.934   3.165
14463TIP3    H243335   1.761   2.072   3.188
14464TIP3   OH243336   3.143   2.727   1.213
14464TIP3    H143337   3.220   2.780   1.235
14464TIP3    H243338   3.180   2.645   1.179
14465TIP3   OH243339   6.322   1.387   2.287
14465TIP3    H143340   6.286   1.320   2.344
14465TIP3    H243341   6.347   1.458   2.346
14466TIP3   OH243342   1.455   3.740   0.692
14466TIP3    H143343   1.429   3.716   0.602
14466TIP3    H243344   1.514   3.670   0.718
14467TIP3   OH243345   7.219   6.265   6.749
14467TIP3    H143346   7.293   6.323   6.762
14467TIP3    H243347   7.145   6.323   6.733
14468TIP3   OH243348   1.196   6.392   3.657
14468TIP3    H143349   1.259   6.325   3.633
14468TIP3    H243350   1.139   6.401   3.581
14469TIP3   OH243351   6.382   0.138   5.808
14469TIP3    H143352   6.451   0.079   5.780
14469TIP3    H243353   6.415   0.226   5.787
14470TIP3   OH243354   6.339   6.882   1.670
14470TIP3    H143355   6.322   6.802   1.619
14470TIP3    H243356   6.286   6.871   1.749
14471TIP3   OH243357   3.391   1.755   2.259
14471TIP3    H143358   3.326   1.699   2.215
14471TIP3    H243359   3.395   1.834   2.205
14472TIP3   OH243360   5.732   4.078   1.691
14472TIP3    H143361   5.657   4.118   1.736
14472TIP3    H243362   5.753   4.141   1.622
14473TIP3   OH243363   8.033   2.393   4.099
14473TIP3    H143364   7.942   2.421   4.105
14473TIP3    H243365   8.050   2.387   4.005
14474TIP3   OH243366   2.994   5.266   2.110
14474TIP3    H143367   2.960   5.350   2.140
14474TIP3    H243368   3.087   5.282   2.095
14475TIP3   OH243369   4.813   4.566   5.415
14475TIP3    H143370   4.746   4.500   5.432
14475TIP3    H243371   4.891   4.532   5.457
14476TIP3   OH243372   2.870   6.943   1.608
14476TIP3    H143373   2.877   6.852   1.637
14476TIP3    H243374   2.958   6.979   1.620
14477TIP3   OH243375   0.576   1.315   0.300
14477TIP3    H143376   0.527   1.370   0.360
14477TIP3    H243377   0.564   1.226   0.333
14478TIP3   OH243378   1.324   2.176   1.819
14478TIP3    H143379   1.357   2.208   1.735
14478TIP3    H243380   1.394   2.120   1.852
14479TIP3   OH243381   3.409   1.780   3.652
14479TIP3    H143382   3.438   1.713   3.714
14479TIP3    H243383   3.314   1.778   3.657
14480TIP3   OH243384   5.107   4.685   2.222
14480TIP3    H143385   5.020   4.649   2.244
14480TIP3    H243386   5.155   4.610   2.186
14481TIP3   OH243387   5.636   2.598   4.797
14481TIP3    H143388   5.588   2.681   4.800
14481TIP3    H243389   5.726   2.621   4.820
14482TIP3   OH243390   6.275   7.791   2.276
14482TIP3    H143391   6.217   7.801   2.352
14482TIP3    H243392   6.261   7.872   2.225
14483TIP3   OH243393   4.544   5.109   6.578
14483TIP3    H143394   4.554   5.197   6.615
14483TIP3    H243395   4.564   5.050   6.650
14484TIP3   OH243396   4.758   6.457   2.054
14484TIP3    H143397   4.752   6.410   1.971
14484TIP3    H243398   4.820   6.527   2.037
14485TIP3   OH243399   7.641   4.575   0.710
14485TIP3    H143400   7.559   4.625   0.706
14485TIP3    H243401   7.629   4.505   0.646
14486TIP3   OH243402   4.689   3.196   5.677
14486TIP3    H143403   4.660   3.220   5.589
14486TIP3    H243404   4.664   3.104   5.685
14487TIP3   OH243405   6.572   1.664   1.034
14487TIP3    H143406   6.522   1.610   0.972
14487TIP3    H243407   6.623   1.601   1.085
14488TIP3   OH243408   1.517   3.786   1.785
14488TIP3    H143409   1.473   3.850   1.841
14488TIP3    H243410   1.577   3.838   1.732
14489TIP3   OH243411   0.205   5.437   2.585
14489TIP3    H143412   0.198   5.447   2.680
14489TIP3    H243413   0.171   5.349   2.568
14490TIP3   OH243414   0.183   1.941   5.508
14490TIP3    H143415   0.173   2.022   5.458
14490TIP3    H243416   0.264   1.902   5.475
14491TIP3   OH243417   4.691   4.269   5.708
14491TIP3    H143418   4.688   4.255   5.803
14491TIP3    H243419   4.725   4.358   5.699
14492TIP3   OH243420   3.856   3.901   0.885
14492TIP3    H143421   3.817   3.814   0.874
14492TIP3    H243422   3.946   3.884   0.912
14493TIP3   OH243423   4.312   3.135   2.093
14493TIP3    H143424   4.235   3.170   2.138
14493TIP3    H243425   4.281   3.114   2.005
14494TIP3   OH243426   3.679   6.466   5.359
14494TIP3    H143427   3.694   6.472   5.453
14494TIP3    H243428   3.746   6.522   5.320
14495TIP3   OH243429   7.088   1.753   0.813
14495TIP3    H143430   7.128   1.711   0.889
14495TIP3    H243431   7.158   1.754   0.747
14496TIP3   OH243432   1.668   4.981   2.155
14496TIP3    H143433   1.726   4.927   2.100
14496TIP3    H243434   1.585   4.933   2.155
14497TIP3   OH243435   0.862   2.173   3.167
14497TIP3    H143436   0.949   2.168   3.128
14497TIP3    H243437   0.814   2.101   3.126
14498TIP3   OH243438   0.513   6.488   4.360
14498TIP3    H143439   0.546   6.433   4.289
14498TIP3    H243440   0.438   6.441   4.395
14499TIP3   OH243441   0.769   6.252   0.074
14499TIP3    H143442   0.767   6.187   0.145
14499TIP3    H243443   0.843   6.227   0.020
14500TIP3   OH243444   1.946   5.961   3.987
14500TIP3    H143445   1.943   6.043   3.939
14500TIP3    H243446   2.033   5.925   3.969
14501TIP3   OH243447   5.844   4.060   4.559
14501TIP3    H143448   5.821   4.142   4.602
14501TIP3    H243449   5.888   4.009   4.627
14502TIP3   OH243450   4.610   2.966   5.832
14502TIP3    H143451   4.560   3.006   5.903
14502TIP3    H243452   4.584   2.874   5.833
14503TIP3   OH243453   3.286   1.684   1.052
14503TIP3    H143454   3.215   1.652   1.107
14503TIP3    H243455   3.270   1.778   1.044
14504TIP3   OH243456   7.210   1.690   1.052
14504TIP3    H143457   7.261   1.632   1.108
14504TIP3    H243458   7.165   1.748   1.113
14505TIP3   OH243459   7.025   2.987   4.095
14505TIP3    H143460   6.939   3.018   4.066
14505TIP3    H243461   7.085   3.058   4.071
14506TIP3   OH243462   0.366   5.063   0.877
14506TIP3    H143463   0.315   5.110   0.944
14506TIP3    H243464   0.417   4.999   0.927
14507TIP3   OH243465   4.512   6.840   2.390
14507TIP3    H143466   4.516   6.750   2.423
14507TIP3    H243467   4.457   6.834   2.311
14508TIP3   OH243468   0.944   4.745   2.647
14508TIP3    H143469   0.884   4.819   2.648
14508TIP3    H243470   0.943   4.715   2.556
14509TIP3   OH243471   5.362   2.338   2.581
14509TIP3    H143472   5.328   2.337   2.492
14509TIP3    H243473   5.450   2.374   2.573
14510TIP3   OH243474   7.691   7.063   2.433
14510TIP3    H143475   7.670   7.054   2.340
14510TIP3    H243476   7.607   7.081   2.475
14511TIP3   OH243477   5.836   1.618   2.931
14511TIP3    H143478   5.795   1.702   2.945
14511TIP3    H243479   5.909   1.636   2.871
14512TIP3   OH243480   3.894   7.565   2.025
14512TIP3    H143481   3.919   7.549   1.934
14512TIP3    H243482   3.884   7.660   2.031
14513TIP3   OH243483   2.123   2.312   5.484
14513TIP3    H143484   2.200   2.267   5.519
14513TIP3    H243485   2.157   2.392   5.446
14514TIP3   OH243486   2.273   7.678   6.657
14514TIP3    H143487   2.315   7.626   6.725
14514TIP3    H243488   2.254   7.762   6.698
14515TIP3   OH243489   5.403   4.492   2.852
14515TIP3    H143490   5.457   4.438   2.910
14515TIP3    H243491   5.445   4.485   2.767
14516TIP3   OH243492   0.901   7.101   4.867
14516TIP3    H143493   0.837   7.122   4.800
14516TIP3    H243494   0.854   7.109   4.950
14517TIP3   OH243495   6.889   2.137   5.332
14517TIP3    H143496   6.856   2.224   5.308
14517TIP3    H243497   6.850   2.120   5.418
14518TIP3   OH243498   4.298   3.537   5.360
14518TIP3    H143499   4.254   3.498   5.436
14518TIP3    H243500   4.390   3.544   5.387
14519TIP3   OH243501   5.057   2.905   6.145
14519TIP3    H143502   5.125   2.893   6.211
14519TIP3    H243503   4.992   2.838   6.166
14520TIP3   OH243504   5.230   7.814   5.731
14520TIP3    H143505   5.309   7.774   5.765
14520TIP3    H243506   5.164   7.799   5.798
14521TIP3   OH243507   7.961   0.567   0.503
14521TIP3    H143508   7.870   0.597   0.500
14521TIP3    H243509   7.987   0.579   0.594
14522TIP3   OH243510   3.786   5.108   1.771
14522TIP3    H143511   3.760   5.180   1.829
14522TIP3    H243512   3.809   5.036   1.830
14523TIP3   OH243513   0.962   6.712   1.623
14523TIP3    H143514   0.911   6.783   1.660
14523TIP3    H243515   0.898   6.654   1.582
14524TIP3   OH243516   6.160   0.204   3.858
14524TIP3    H143517   6.071   0.213   3.824
14524TIP3    H243518   6.174   0.109   3.861
14525TIP3   OH243519   3.779   0.090   2.861
14525TIP3    H143520   3.709   0.080   2.797
14525TIP3    H243521   3.760   0.173   2.904
14526TIP3   OH243522   4.384   6.881   1.224
14526TIP3    H143523   4.362   6.844   1.310
14526TIP3    H243524   4.319   6.949   1.210
14527TIP3   OH243525   3.561   3.833   6.145
14527TIP3    H143526   3.625   3.762   6.151
14527TIP3    H243527   3.483   3.797   6.188
14528TIP3   OH243528   0.536   0.208   3.322
14528TIP3    H143529   0.587   0.179   3.247
14528TIP3    H243530   0.450   0.168   3.309
14529TIP3   OH243531   2.507   2.563   0.696
14529TIP3    H143532   2.530   2.474   0.722
14529TIP3    H243533   2.562   2.581   0.619
14530TIP3   OH243534   4.535   6.404   5.679
14530TIP3    H143535   4.557   6.497   5.674
14530TIP3    H243536   4.571   6.366   5.598
14531TIP3   OH243537   2.304   4.698   4.326
14531TIP3    H143538   2.251   4.689   4.405
14531TIP3    H243539   2.316   4.609   4.295
14532TIP3   OH243540   7.960   0.293   3.113
14532TIP3    H143541   7.893   0.270   3.177
14532TIP3    H243542   7.995   0.210   3.082
14533TIP3   OH243543   3.020   0.201   0.893
14533TIP3    H143544   3.098   0.147   0.903
14533TIP3    H243545   2.951   0.151   0.937
14534TIP3   OH243546   5.678   5.247   0.640
14534TIP3    H143547   5.697   5.336   0.671
14534TIP3    H243548   5.721   5.190   0.703
14535TIP3   OH243549   7.029   5.341   2.950
14535TIP3    H143550   7.109   5.393   2.956
14535TIP3    H243551   6.959   5.405   2.950
14536TIP3   OH243552   4.475   5.376   4.027
14536TIP3    H143553   4.397   5.341   3.985
14536TIP3    H243554   4.446   5.460   4.064
14537TIP3   OH243555   3.218   5.353   6.421
14537TIP3    H143556   3.184   5.372   6.508
14537TIP3    H243557   3.205   5.433   6.371
14538TIP3   OH243558   4.659   7.756   1.152
14538TIP3    H143559   4.726   7.816   1.185
14538TIP3    H243560   4.696   7.721   1.071
14539TIP3   OH243561   0.815   3.581   4.074
14539TIP3    H143562   0.839   3.492   4.049
14539TIP3    H243563   0.891   3.634   4.050
14540TIP3   OH243564   7.035   2.803   2.394
14540TIP3    H143565   7.060   2.829   2.306
14540TIP3    H243566   6.939   2.793   2.390
14541TIP3   OH243567   7.737   6.744   0.984
14541TIP3    H143568   7.774   6.714   1.067
14541TIP3    H243569   7.666   6.803   1.009
14542TIP3   OH243570   8.210   7.683   4.217
14542TIP3    H143571   8.166   7.638   4.289
14542TIP3    H243572   8.251   7.760   4.257
14543TIP3   OH243573   5.548   7.564   4.469
14543TIP3    H143574   5.564   7.629   4.400
14543TIP3    H243575   5.511   7.615   4.541
14544TIP3   OH243576   2.054   4.604   6.133
14544TIP3    H143577   2.145   4.589   6.156
14544TIP3    H243578   2.034   4.539   6.065
14545TIP3   OH243579   5.664   4.865   0.636
14545TIP3    H143580   5.652   4.933   0.702
14545TIP3    H243581   5.755   4.837   0.646
14546TIP3   OH243582   6.234   6.208   2.940
14546TIP3    H143583   6.152   6.214   2.891
14546TIP3    H243584   6.275   6.127   2.910
14547TIP3   OH243585   6.284   3.013   1.165
14547TIP3    H143586   6.239   2.941   1.121
14547TIP3    H243587   6.342   3.049   1.099
14548TIP3   OH243588   2.025   4.932   6.194
14548TIP3    H143589   2.120   4.944   6.193
14548TIP3    H243590   2.008   4.887   6.276
14549TIP3   OH243591   3.205   1.492   6.755
14549TIP3    H143592   3.183   1.555   6.686
14549TIP3    H243593   3.272   1.436   6.716
14550TIP3   OH243594   4.303   2.586   5.654
14550TIP3    H143595   4.211   2.577   5.679
14550TIP3    H243596   4.307   2.669   5.606
14551TIP3   OH243597   3.712   2.160   5.588
14551TIP3    H143598   3.679   2.072   5.570
14551TIP3    H243599   3.796   2.163   5.543
14552TIP3   OH243600   3.848   1.948   3.803
14552TIP3    H143601   3.931   1.909   3.776
14552TIP3    H243602   3.783   1.880   3.783
14553TIP3   OH243603   7.952   0.667   6.569
14553TIP3    H143604   8.010   0.694   6.640
14553TIP3    H243605   7.865   0.695   6.598
14554TIP3   OH243606   5.547   5.714   4.050
14554TIP3    H143607   5.580   5.667   4.126
14554TIP3    H243608   5.489   5.651   4.006
14555TIP3   OH243609   5.941   2.514   0.523
14555TIP3    H143610   5.885   2.437   0.522
14555TIP3    H243611   5.881   2.587   0.542
14556TIP3   OH243612   1.395   0.736   2.647
14556TIP3    H143613   1.471   0.726   2.590
14556TIP3    H243614   1.328   0.679   2.609
14557TIP3   OH243615   2.058   0.807   3.019
14557TIP3    H143616   1.988   0.755   2.979
14557TIP3    H243617   2.116   0.742   3.059
14558TIP3   OH243618   0.039   4.534   5.520
14558TIP3    H143619   0.050   4.628   5.535
14558TIP3    H243620  -0.048   4.526   5.481
14559TIP3   OH243621   6.279   3.914   5.795
14559TIP3    H143622   6.309   3.864   5.871
14559TIP3    H243623   6.254   3.848   5.731
14560TIP3   OH243624   5.885   3.703   0.040
14560TIP3    H143625   5.913   3.794   0.042
14560TIP3    H243626   5.790   3.706   0.036
14561TIP3   OH243627   5.639   6.931   1.622
14561TIP3    H143628   5.548   6.937   1.593
14561TIP3    H243629   5.655   6.837   1.631
14562TIP3   OH243630   1.152   5.258   6.532
14562TIP3    H143631   1.077   5.304   6.569
14562TIP3    H243632   1.203   5.326   6.489
14563TIP3   OH243633   8.213   1.890   1.318
14563TIP3    H143634   8.238   1.863   1.407
14563TIP3    H243635   8.131   1.938   1.330
14564TIP3   OH243636   6.962   5.121   5.478
14564TIP3    H143637   6.972   5.148   5.569
14564TIP3    H243638   7.003   5.035   5.473
14565TIP3   OH243639   3.065   3.439   2.648
14565TIP3    H143640   3.031   3.524   2.620
14565TIP3    H243641   3.074   3.447   2.743
14566TIP3   OH243642   2.046   7.179   6.502
14566TIP3    H143643   2.022   7.088   6.523
14566TIP3    H243644   2.064   7.218   6.588
14567TIP3   OH243645   3.188   6.715   0.793
14567TIP3    H143646   3.177   6.650   0.723
14567TIP3    H243647   3.148   6.794   0.759
14568TIP3   OH243648   2.540   6.370   5.583
14568TIP3    H143649   2.495   6.286   5.576
14568TIP3    H243650   2.562   6.393   5.493
14569TIP3   OH243651   7.092   6.130   0.023
14569TIP3    H143652   7.108   6.198   0.088
14569TIP3    H243653   7.081   6.050   0.075
14570TIP3   OH243654   3.103   6.089   3.583
14570TIP3    H143655   3.158   6.105   3.507
14570TIP3    H243656   3.151   6.129   3.656
14571TIP3   OH243657   2.523   3.088   0.829
14571TIP3    H143658   2.538   2.998   0.799
14571TIP3    H243659   2.467   3.127   0.762
14572TIP3   OH243660   7.135   3.494   6.020
14572TIP3    H143661   7.044   3.479   5.996
14572TIP3    H243662   7.138   3.479   6.114
14573TIP3   OH243663   1.383   0.971   0.320
14573TIP3    H143664   1.479   0.979   0.318
14573TIP3    H243665   1.367   0.888   0.364
14574TIP3   OH243666   2.577   3.259   5.659
14574TIP3    H143667   2.488   3.280   5.687
14574TIP3    H243668   2.627   3.249   5.740
14575TIP3   OH243669   5.973   0.103   5.760
14575TIP3    H143670   5.918   0.096   5.838
14575TIP3    H243671   5.920   0.069   5.689
14576TIP3   OH243672   5.143   2.986   3.331
14576TIP3    H143673   5.221   3.011   3.282
14576TIP3    H243674   5.159   3.021   3.419
14577TIP3   OH243675   7.519   2.248   1.055
14577TIP3    H143676   7.473   2.296   0.986
14577TIP3    H243677   7.464   2.259   1.132
14578TIP3   OH243678   7.344   7.432   3.930
14578TIP3    H143679   7.395   7.469   4.002
14578TIP3    H243680   7.256   7.468   3.940
14579TIP3   OH243681   0.854   4.776   6.360
14579TIP3    H143682   0.874   4.709   6.426
14579TIP3    H243683   0.759   4.776   6.353
14580TIP3   OH243684   4.288   3.245   3.773
14580TIP3    H143685   4.378   3.212   3.766
14580TIP3    H243686   4.299   3.338   3.791
14581TIP3   OH243687   6.877   6.409   5.660
14581TIP3    H143688   6.949   6.385   5.717
14581TIP3    H243689   6.800   6.408   5.716
14582TIP3   OH243690   3.378   5.605   3.107
14582TIP3    H143691   3.407   5.584   3.196
14582TIP3    H243692   3.441   5.670   3.076
14583TIP3   OH243693   1.791   5.138   1.178
14583TIP3    H143694   1.739   5.157   1.100
14583TIP3    H243695   1.769   5.208   1.239
14584TIP3   OH243696   8.271   3.451   0.198
14584TIP3    H143697   8.293   3.408   0.281
14584TIP3    H243698   8.350   3.501   0.175
14585TIP3   OH243699   7.643   4.831   3.989
14585TIP3    H143700   7.670   4.862   4.075
14585TIP3    H243701   7.696   4.882   3.928
14586TIP3   OH243702   2.808   6.855   0.346
14586TIP3    H143703   2.850   6.939   0.366
14586TIP3    H243704   2.843   6.830   0.261
14587TIP3   OH243705   0.374   2.901   1.475
14587TIP3    H143706   0.327   2.917   1.392
14587TIP3    H243707   0.305   2.891   1.540
14588TIP3   OH243708   2.410   4.524   6.431
14588TIP3    H143709   2.458   4.591   6.479
14588TIP3    H243710   2.465   4.446   6.436
14589TIP3   OH243711   3.888   4.388   1.430
14589TIP3    H143712   3.839   4.350   1.357
14589TIP3    H243713   3.899   4.315   1.492
14590TIP3   OH243714   0.942   0.776   2.730
14590TIP3    H143715   0.882   0.809   2.798
14590TIP3    H243716   1.023   0.825   2.744
14591TIP3   OH243717   0.364   6.246   3.706
14591TIP3    H143718   0.321   6.293   3.777
14591TIP3    H243719   0.317   6.273   3.627
14592TIP3   OH243720   4.487   4.857   1.850
14592TIP3    H143721   4.539   4.934   1.827
14592TIP3    H243722   4.465   4.869   1.942
14593TIP3   OH243723   7.447   6.159   2.154
14593TIP3    H143724   7.378   6.098   2.177
14593TIP3    H243725   7.480   6.192   2.238
14594TIP3   OH243726   1.932   2.974   2.219
14594TIP3    H143727   1.874   2.899   2.233
14594TIP3    H243728   2.015   2.934   2.192
14595TIP3   OH243729   3.015   3.326   3.260
14595TIP3    H143730   3.058   3.362   3.337
14595TIP3    H243731   2.923   3.321   3.285
14596TIP3   OH243732   2.137   4.425   2.643
14596TIP3    H143733   2.060   4.370   2.654
14596TIP3    H243734   2.207   4.364   2.619
14597TIP3   OH243735   6.363   5.191   3.322
14597TIP3    H143736   6.436   5.170   3.381
14597TIP3    H243737   6.293   5.130   3.348
14598TIP3   OH243738   2.912   1.550   0.137
14598TIP3    H143739   2.887   1.528   0.047
14598TIP3    H243740   2.978   1.618   0.127
14599TIP3   OH243741   5.726   1.597   4.700
14599TIP3    H143742   5.710   1.571   4.791
14599TIP3    H243743   5.813   1.562   4.680
14600TIP3   OH243744   5.051   6.993   2.991
14600TIP3    H143745   5.021   6.929   3.056
14600TIP3    H243746   4.972   7.019   2.944
14601TIP3   OH243747   6.433   1.462   0.932
14601TIP3    H143748   6.397   1.465   1.021
14601TIP3    H243749   6.486   1.382   0.930
14602TIP3   OH243750   3.724   3.903   1.267
14602TIP3    H143751   3.769   3.825   1.236
14602TIP3    H243752   3.686   3.877   1.351
14603TIP3   OH243753   6.609   4.685   6.407
14603TIP3    H143754   6.677   4.744   6.375
14603TIP3    H243755   6.631   4.670   6.498
14604TIP3   OH243756   4.239   1.520   4.696
14604TIP3    H143757   4.184   1.457   4.649
14604TIP3    H243758   4.176   1.582   4.734
14605TIP3   OH243759   1.674   5.717   4.948
14605TIP3    H143760   1.649   5.732   4.857
14605TIP3    H243761   1.611   5.769   4.999
14606TIP3   OH243762   1.606   6.065   3.358
14606TIP3    H143763   1.670   6.002   3.390
14606TIP3    H243764   1.625   6.073   3.264
14607TIP3   OH243765   5.403   3.965   0.080
14607TIP3    H143766   5.419   4.046   0.128
14607TIP3    H243767   5.397   3.993  -0.012
14608TIP3   OH243768   5.630   3.331   4.400
14608TIP3    H143769   5.650   3.348   4.308
14608TIP3    H243770   5.584   3.409   4.429
14609TIP3   OH243771   2.660   1.148   4.490
14609TIP3    H143772   2.636   1.105   4.572
14609TIP3    H243773   2.728   1.211   4.515
14610TIP3   OH243774   8.070   5.802   3.983
14610TIP3    H143775   8.040   5.869   4.045
14610TIP3    H243776   8.080   5.723   4.036
14611TIP3   OH243777   6.090   1.316   0.766
14611TIP3    H143778   6.113   1.242   0.823
14611TIP3    H243779   6.089   1.392   0.824
14612TIP3   OH243780   7.263   6.590   6.674
14612TIP3    H143781   7.172   6.610   6.695
14612TIP3    H243782   7.302   6.675   6.654
14613TIP3   OH243783   5.842   1.588   2.190
14613TIP3    H143784   5.788   1.513   2.214
14613TIP3    H243785   5.785   1.664   2.204
14614TIP3   OH243786   7.884   4.288   2.906
14614TIP3    H143787   7.798   4.256   2.879
14614TIP3    H243788   7.869   4.378   2.933
14615TIP3   OH243789   6.749   4.062   0.513
14615TIP3    H143790   6.706   4.147   0.511
14615TIP3    H243791   6.833   4.077   0.469
14616TIP3   OH243792   2.081   2.042   4.885
14616TIP3    H143793   2.088   2.025   4.979
14616TIP3    H243794   2.169   2.024   4.851
14617TIP3   OH243795   7.525   2.076   0.138
14617TIP3    H143796   7.492   2.063   0.227
14617TIP3    H243797   7.458   2.130   0.096
14618TIP3   OH243798   4.541   6.629   3.887
14618TIP3    H143799   4.541   6.584   3.803
14618TIP3    H243800   4.625   6.676   3.889
14619TIP3   OH243801   4.343   3.833   6.007
14619TIP3    H143802   4.279   3.904   6.008
14619TIP3    H243803   4.307   3.766   6.065
14620TIP3   OH243804   5.248   3.189   5.756
14620TIP3    H143805   5.328   3.178   5.808
14620TIP3    H243806   5.261   3.272   5.710
14621TIP3   OH243807   0.571   4.531   3.724
14621TIP3    H143808   0.494   4.560   3.675
14621TIP3    H243809   0.555   4.439   3.742
14622TIP3   OH243810   0.086   1.026   5.572
14622TIP3    H143811   0.103   1.042   5.479
14622TIP3    H243812   0.135   1.095   5.617
14623TIP3   OH243813   0.521   1.980   6.502
14623TIP3    H143814   0.581   1.905   6.502
14623TIP3    H243815   0.462   1.964   6.428
14624TIP3   OH243816   7.499   5.044   0.141
14624TIP3    H143817   7.414   5.003   0.154
14624TIP3    H243818   7.479   5.136   0.123
14625TIP3   OH243819   2.061   1.245   0.517
14625TIP3    H143820   2.037   1.325   0.470
14625TIP3    H243821   1.978   1.213   0.553
14626TIP3   OH243822   0.248   5.455   4.589
14626TIP3    H143823   0.200   5.372   4.589
14626TIP3    H243824   0.262   5.474   4.682
14627TIP3   OH243825   0.031   1.748   3.345
14627TIP3    H143826  -0.040   1.792   3.298
14627TIP3    H243827   0.096   1.729   3.278
14628TIP3   OH243828   4.572   0.257   0.566
14628TIP3    H143829   4.490   0.305   0.558
14628TIP3    H243830   4.612   0.289   0.647
14629TIP3   OH243831   1.661   5.517   4.100
14629TIP3    H143832   1.603   5.440   4.096
14629TIP3    H243833   1.691   5.529   4.010
14630TIP3   OH243834   6.360   5.547   6.654
14630TIP3    H143835   6.417   5.604   6.705
14630TIP3    H243836   6.275   5.552   6.699
14631TIP3   OH243837   0.293   1.320   2.859
14631TIP3    H143838   0.348   1.363   2.924
14631TIP3    H243839   0.211   1.370   2.862
14632TIP3   OH243840   0.747   0.620   0.154
14632TIP3    H143841   0.664   0.660   0.128
14632TIP3    H243842   0.800   0.620   0.075
14633TIP3   OH243843   7.731   5.665   6.628
14633TIP3    H143844   7.761   5.586   6.675
14633TIP3    H243845   7.787   5.735   6.663
14634TIP3   OH243846   6.924   3.363   6.379
14634TIP3    H143847   6.998   3.341   6.322
14634TIP3    H243848   6.888   3.443   6.341
14635TIP3   OH243849   2.951   6.626   4.102
14635TIP3    H143850   2.891   6.603   4.031
14635TIP3    H243851   3.007   6.548   4.111
14636TIP3   OH243852   3.726   2.967   5.294
14636TIP3    H143853   3.800   2.913   5.266
14636TIP3    H243854   3.753   3.056   5.274
14637TIP3   OH243855   3.818   1.500   0.048
14637TIP3    H143856   3.742   1.472   0.101
14637TIP3    H243857   3.804   1.593   0.034
14638TIP3   OH243858   5.068   3.947   5.808
14638TIP3    H143859   5.056   4.034   5.770
14638TIP3    H243860   4.993   3.936   5.867
14639TIP3   OH243861   6.887   7.605   3.679
14639TIP3    H143862   6.891   7.516   3.646
14639TIP3    H243863   6.953   7.652   3.629
14640TIP3   OH243864   0.517   4.031   5.016
14640TIP3    H143865   0.570   4.065   5.088
14640TIP3    H243866   0.507   3.938   5.037
14641TIP3   OH243867   6.137   3.013   5.844
14641TIP3    H143868   6.042   3.014   5.835
14641TIP3    H243869   6.157   3.095   5.890
14642TIP3   OH243870   4.202   0.040   0.582
14642TIP3    H143871   4.176   0.121   0.626
14642TIP3    H243872   4.228   0.069   0.494
14643TIP3   OH243873   2.599   6.402   3.030
14643TIP3    H143874   2.595   6.497   3.031
14643TIP3    H243875   2.597   6.376   3.122
14644TIP3   OH243876   1.459   0.458   3.432
14644TIP3    H143877   1.377   0.433   3.390
14644TIP3    H243878   1.451   0.425   3.522
14645TIP3   OH243879   0.174   7.391   5.235
14645TIP3    H143880   0.206   7.479   5.258
14645TIP3    H243881   0.237   7.359   5.170
14646TIP3   OH243882   6.761   3.356   1.952
14646TIP3    H143883   6.797   3.316   2.032
14646TIP3    H243884   6.726   3.440   1.981
14647TIP3   OH243885   7.845   6.214   5.045
14647TIP3    H143886   7.818   6.186   5.132
14647TIP3    H243887   7.883   6.301   5.058
14648TIP3   OH243888   0.942   1.161   3.267
14648TIP3    H143889   0.881   1.228   3.237
14648TIP3    H243890   0.888   1.100   3.318
14649TIP3   OH243891   7.701   1.048   5.213
14649TIP3    H143892   7.645   1.054   5.290
14649TIP3    H243893   7.774   1.107   5.232
14650TIP3   OH243894   5.135   6.606   5.849
14650TIP3    H143895   5.207   6.634   5.791
14650TIP3    H243896   5.064   6.584   5.789
14651TIP3   OH243897   1.807   4.557   4.185
14651TIP3    H143898   1.831   4.629   4.244
14651TIP3    H243899   1.890   4.526   4.150
14652TIP3   OH243900   4.257   1.489   4.987
14652TIP3    H143901   4.234   1.518   4.898
14652TIP3    H243902   4.181   1.512   5.040
14653TIP3   OH243903   1.330   7.362   2.110
14653TIP3    H143904   1.282   7.427   2.160
14653TIP3    H243905   1.359   7.298   2.174
14654TIP3   OH243906   4.874   2.815   2.829
14654TIP3    H143907   4.956   2.860   2.849
14654TIP3    H243908   4.859   2.759   2.905
14655TIP3   OH243909   7.189   6.721   1.011
14655TIP3    H143910   7.103   6.750   0.982
14655TIP3    H243911   7.224   6.794   1.062
14656TIP3   OH243912   3.427   1.391   6.471
14656TIP3    H143913   3.456   1.326   6.534
14656TIP3    H243914   3.477   1.470   6.493
14657TIP3   OH243915   4.319   0.138   3.984
14657TIP3    H143916   4.405   0.157   3.946
14657TIP3    H243917   4.309   0.201   4.055
14658TIP3   OH243918   0.263   3.546   0.265
14658TIP3    H143919   0.319   3.486   0.315
14658TIP3    H243920   0.240   3.614   0.328
14659TIP3   OH243921   5.435   7.200   5.002
14659TIP3    H143922   5.511   7.155   4.965
14659TIP3    H243923   5.360   7.152   4.967
14660TIP3   OH243924   2.595   7.176   6.038
14660TIP3    H143925   2.527   7.188   5.972
14660TIP3    H243926   2.555   7.120   6.104
14661TIP3   OH243927   6.372   7.495   3.106
14661TIP3    H143928   6.418   7.561   3.054
14661TIP3    H243929   6.288   7.484   3.062
14662TIP3   OH243930   0.072   0.423   4.542
14662TIP3    H143931   0.029   0.390   4.620
14662TIP3    H243932   0.059   0.517   4.545
14663TIP3   OH243933   0.532   3.752   0.634
14663TIP3    H143934   0.465   3.818   0.615
14663TIP3    H243935   0.501   3.672   0.592
14664TIP3   OH243936   4.192   2.195   5.286
14664TIP3    H143937   4.237   2.256   5.345
14664TIP3    H243938   4.111   2.240   5.263
14665TIP3   OH243939   5.808   3.650   3.266
14665TIP3    H143940   5.796   3.678   3.357
14665TIP3    H243941   5.902   3.660   3.250
14666TIP3   OH243942   4.296   1.946   2.880
14666TIP3    H143943   4.308   1.984   2.793
14666TIP3    H243944   4.304   1.852   2.866
14667TIP3   OH243945   1.309   1.752   1.840
14667TIP3    H143946   1.400   1.750   1.809
14667TIP3    H243947   1.314   1.716   1.929
14668TIP3   OH243948   8.076   0.672   0.257
14668TIP3    H143949   8.092   0.767   0.253
14668TIP3    H243950   8.047   0.657   0.347
14669TIP3   OH243951   0.985   2.343   2.536
14669TIP3    H143952   0.892   2.363   2.533
14669TIP3    H243953   1.018   2.372   2.451
14670TIP3   OH243954   2.630   5.657   5.751
14670TIP3    H143955   2.719   5.622   5.742
14670TIP3    H243956   2.593   5.611   5.827
14671TIP3   OH243957   7.558   6.499   0.060
14671TIP3    H143958   7.640   6.534   0.094
14671TIP3    H243959   7.578   6.407   0.041
14672TIP3   OH243960   4.954   7.134   3.962
14672TIP3    H143961   4.957   7.230   3.955
14672TIP3    H243962   4.891   7.117   4.033
14673TIP3   OH243963   0.797   2.081   4.811
14673TIP3    H143964   0.881   2.050   4.780
14673TIP3    H243965   0.812   2.104   4.903
14674TIP3   OH243966   6.591   5.700   4.685
14674TIP3    H143967   6.580   5.606   4.701
14674TIP3    H243968   6.682   5.710   4.658
14675TIP3   OH243969   6.718   5.336   2.570
14675TIP3    H143970   6.797   5.323   2.623
14675TIP3    H243971   6.719   5.263   2.508
14676TIP3   OH243972   6.884   3.271   5.632
14676TIP3    H143973   6.958   3.235   5.680
14676TIP3    H243974   6.807   3.230   5.671
14677TIP3   OH243975   1.632   5.197   0.376
14677TIP3    H143976   1.577   5.135   0.424
14677TIP3    H243977   1.709   5.208   0.431
14678TIP3   OH243978   7.966   6.002   4.184
14678TIP3    H143979   7.897   6.065   4.163
14678TIP3    H243980   7.943   5.970   4.271
14679TIP3   OH243981   1.913   7.121   1.449
14679TIP3    H143982   1.863   7.193   1.410
14679TIP3    H243983   1.861   7.043   1.429
14680TIP3   OH243984   5.231   0.165   1.367
14680TIP3    H143985   5.194   0.247   1.334
14680TIP3    H243986   5.159   0.124   1.416
14681TIP3   OH243987   7.090   1.915   1.312
14681TIP3    H143988   7.030   1.984   1.341
14681TIP3    H243989   7.053   1.835   1.348
14682TIP3   OH243990   5.634   5.047   4.663
14682TIP3    H143991   5.590   4.995   4.596
14682TIP3    H243992   5.725   5.018   4.659
14683TIP3   OH243993   7.070   1.343   0.613
14683TIP3    H143994   7.155   1.366   0.575
14683TIP3    H243995   7.032   1.426   0.640
14684TIP3   OH243996   4.472   7.485   3.624
14684TIP3    H143997   4.535   7.550   3.592
14684TIP3    H243998   4.419   7.464   3.548
14685TIP3   OH243999   7.900   1.582   6.393
14685TIP3    H144000   7.916   1.539   6.309
14685TIP3    H244001   7.906   1.676   6.373
14686TIP3   OH244002   7.302   3.996   3.042
14686TIP3    H144003   7.219   3.953   3.060
14686TIP3    H244004   7.327   3.966   2.955
14687TIP3   OH244005   1.101   3.437   4.299
14687TIP3    H144006   1.007   3.432   4.315
14687TIP3    H244007   1.122   3.359   4.248
14688TIP3   OH244008   6.278   6.329   6.228
14688TIP3    H144009   6.316   6.246   6.257
14688TIP3    H244010   6.333   6.357   6.155
14689TIP3   OH244011   7.012   3.188   1.825
14689TIP3    H144012   6.934   3.139   1.801
14689TIP3    H244013   7.056   3.134   1.890
14690TIP3   OH244014   0.381   2.183   1.543
14690TIP3    H144015   0.337   2.126   1.480
14690TIP3    H244016   0.473   2.181   1.518
14691TIP3   OH244017   0.429   3.085   5.098
14691TIP3    H144018   0.508   3.048   5.058
14691TIP3    H244019   0.456   3.109   5.187
14692TIP3   OH244020   4.313   7.620   5.865
14692TIP3    H144021   4.312   7.692   5.802
14692TIP3    H244022   4.395   7.632   5.914
14693TIP3   OH244023   2.889   0.161   3.795
14693TIP3    H144024   2.947   0.217   3.846
14693TIP3    H244025   2.876   0.084   3.851
14694TIP3   OH244026   5.195   0.940   6.556
14694TIP3    H144027   5.288   0.940   6.534
14694TIP3    H244028   5.188   1.000   6.630
14695TIP3   OH244029   4.820   5.853   0.807
14695TIP3    H144030   4.728   5.836   0.789
14695TIP3    H244031   4.856   5.882   0.723
14696TIP3   OH244032   8.195   1.189   2.695
14696TIP3    H144033   8.168   1.097   2.702
14696TIP3    H244034   8.142   1.224   2.623
14697TIP3   OH244035   3.048   3.024   6.297
14697TIP3    H144036   2.982   3.092   6.311
14697TIP3    H244037   3.007   2.944   6.330
14698TIP3   OH244038   4.326   6.811   1.481
14698TIP3    H144039   4.370   6.727   1.469
14698TIP3    H244040   4.293   6.810   1.570
14699TIP3   OH244041   0.802   3.967   4.758
14699TIP3    H144042   0.723   4.020   4.765
14699TIP3    H244043   0.771   3.877   4.762
14700TIP3   OH244044   7.332   2.894   2.761
14700TIP3    H144045   7.427   2.888   2.760
14700TIP3    H244046   7.308   2.904   2.669
14701TIP3   OH244047   1.718   1.758   5.914
14701TIP3    H144048   1.794   1.739   5.859
14701TIP3    H244049   1.755   1.769   6.002
14702TIP3   OH244050   5.720   2.864   4.281
14702TIP3    H144051   5.793   2.822   4.237
14702TIP3    H244052   5.733   2.844   4.374
14703TIP3   OH244053   4.881   2.516   4.285
14703TIP3    H144054   4.882   2.547   4.194
14703TIP3    H244055   4.868   2.594   4.338
14704TIP3   OH244056   1.913   3.432   5.642
14704TIP3    H144057   1.838   3.482   5.609
14704TIP3    H244058   1.958   3.494   5.700
14705TIP3   OH244059   7.883   5.710   3.280
14705TIP3    H144060   7.913   5.761   3.356
14705TIP3    H244061   7.963   5.693   3.230
14706TIP3   OH244062   5.346   3.382   2.562
14706TIP3    H144063   5.310   3.324   2.629
14706TIP3    H244064   5.287   3.372   2.488
14707TIP3   OH244065   7.039   3.770   6.115
14707TIP3    H144066   7.014   3.832   6.184
14707TIP3    H244067   7.033   3.684   6.156
14708TIP3   OH244068   5.854   1.781   2.453
14708TIP3    H144069   5.902   1.753   2.530
14708TIP3    H244070   5.796   1.851   2.484
14709TIP3   OH244071   6.457   0.942   2.878
14709TIP3    H144072   6.422   1.020   2.837
14709TIP3    H244073   6.385   0.879   2.877
14710TIP3   OH244074   3.532   6.930   2.716
14710TIP3    H144075   3.488   6.904   2.798
14710TIP3    H244076   3.499   7.017   2.697
14711TIP3   OH244077   1.180   6.898   5.862
14711TIP3    H144078   1.144   6.968   5.917
14711TIP3    H244079   1.164   6.927   5.772
14712TIP3   OH244080   8.172   7.270   6.572
14712TIP3    H144081   8.206   7.193   6.618
14712TIP3    H244082   8.249   7.326   6.559
14713TIP3   OH244083   1.591   2.599   6.361
14713TIP3    H144084   1.497   2.615   6.373
14713TIP3    H244085   1.626   2.589   6.449
14714TIP3   OH244086   0.083   7.333   5.628
14714TIP3    H144087   0.061   7.317   5.720
14714TIP3    H244088   0.132   7.255   5.601
14715TIP3   OH244089   7.554   3.354   2.925
14715TIP3    H144090   7.564   3.260   2.940
14715TIP3    H244091   7.633   3.380   2.879
14716TIP3   OH244092   6.325   4.690   6.605
14716TIP3    H144093   6.399   4.644   6.646
14716TIP3    H244094   6.350   4.782   6.609
14717TIP3   OH244095   3.448   7.452   5.799
14717TIP3    H144096   3.384   7.509   5.756
14717TIP3    H244097   3.533   7.477   5.761
14718TIP3   OH244098   4.494   5.060   0.446
14718TIP3    H144099   4.544   5.120   0.391
14718TIP3    H244100   4.545   4.979   0.446
14719TIP3   OH244101   7.701   3.315   6.260
14719TIP3    H144102   7.649   3.244   6.299
14719TIP3    H244103   7.762   3.341   6.329
14720TIP3   OH244104   1.572   4.611   4.919
14720TIP3    H144105   1.516   4.537   4.945
14720TIP3    H244106   1.523   4.654   4.849
14721TIP3   OH244107   0.955   2.930   5.976
14721TIP3    H144108   0.899   2.974   6.039
14721TIP3    H244109   1.044   2.953   6.002
14722TIP3   OH244110   1.978   0.625   1.301
14722TIP3    H144111   2.059   0.605   1.348
14722TIP3    H244112   1.927   0.678   1.363
14723TIP3   OH244113   6.277   6.980   5.083
14723TIP3    H144114   6.265   7.065   5.041
14723TIP3    H244115   6.226   6.986   5.163
14724TIP3   OH244116   4.460   2.322   4.315
14724TIP3    H144117   4.436   2.407   4.280
14724TIP3    H244118   4.376   2.278   4.332
14725TIP3   OH244119   1.447   3.164   0.077
14725TIP3    H144120   1.370   3.129   0.033
14725TIP3    H244121   1.518   3.154   0.013
14726TIP3   OH244122   2.073   3.628   1.058
14726TIP3    H144123   2.033   3.686   0.994
14726TIP3    H244124   2.153   3.673   1.085
14727TIP3   OH244125   6.670   6.122   4.721
14727TIP3    H144126   6.685   6.132   4.815
14727TIP3    H244127   6.744   6.168   4.681
14728TIP3   OH244128   2.002   2.980   3.377
14728TIP3    H144129   2.052   3.008   3.300
14728TIP3    H244130   1.962   3.061   3.410
14729TIP3   OH244131   6.512   1.142   1.298
14729TIP3    H144132   6.602   1.143   1.265
14729TIP3    H244133   6.458   1.129   1.221
14730TIP3   OH244134   1.091   6.658   3.541
14730TIP3    H144135   1.146   6.720   3.494
14730TIP3    H244136   1.143   6.634   3.618
14731TIP3   OH244137   7.827   0.152   3.439
14731TIP3    H144138   7.865   0.089   3.379
14731TIP3    H244139   7.801   0.225   3.383
14732TIP3   OH244140   6.100   0.643   3.527
14732TIP3    H144141   6.159   0.569   3.539
14732TIP3    H244142   6.156   0.714   3.495
14733TIP3   OH244143   3.547   5.097   4.675
14733TIP3    H144144   3.550   5.020   4.619
14733TIP3    H244145   3.500   5.069   4.753
14734TIP3   OH244146   6.728   1.450   1.097
14734TIP3    H144147   6.709   1.419   1.008
14734TIP3    H244148   6.770   1.375   1.140
14735TIP3   OH244149   4.523   6.425   6.402
14735TIP3    H144150   4.428   6.428   6.394
14735TIP3    H244151   4.540   6.439   6.495
14736TIP3   OH244152   8.214   7.030   5.338
14736TIP3    H144153   8.306   7.038   5.314
14736TIP3    H244154   8.202   7.092   5.409
14737TIP3   OH244155   4.494   2.401   5.700
14737TIP3    H144156   4.484   2.330   5.636
14737TIP3    H244157   4.432   2.468   5.671
14738TIP3   OH244158   7.707   4.420   4.555
14738TIP3    H144159   7.619   4.427   4.593
14738TIP3    H244160   7.691   4.400   4.463
14739TIP3   OH244161   2.352   0.148   1.614
14739TIP3    H144162   2.358   0.191   1.700
14739TIP3    H244163   2.281   0.194   1.569
14740TIP3   OH244164   6.393   6.493   1.931
14740TIP3    H144165   6.329   6.459   1.870
14740TIP3    H244166   6.472   6.507   1.879
14741TIP3   OH244167   0.288   5.494   5.859
14741TIP3    H144168   0.333   5.473   5.941
14741TIP3    H244169   0.315   5.584   5.839
14742TIP3   OH244170   5.720   6.982   4.317
14742TIP3    H144171   5.792   7.020   4.266
14742TIP3    H244172   5.762   6.918   4.373
14743TIP3   OH244173   2.077   6.651   0.542
14743TIP3    H144174   1.992   6.689   0.561
14743TIP3    H244175   2.064   6.557   0.550
14744TIP3   OH244176   4.627   0.608   3.986
14744TIP3    H144177   4.677   0.548   3.930
14744TIP3    H244178   4.694   0.661   4.030
14745TIP3   OH244179   1.474   6.267   1.450
14745TIP3    H144180   1.441   6.177   1.448
14745TIP3    H244181   1.397   6.321   1.470
14746TIP3   OH244182   5.028   2.344   4.445
14746TIP3    H144183   4.968   2.396   4.391
14746TIP3    H244184   5.032   2.259   4.403
14747TIP3   OH244185   7.401   0.369   0.723
14747TIP3    H144186   7.371   0.379   0.632
14747TIP3    H244187   7.353   0.437   0.771
14748TIP3   OH244188   7.995   5.674   0.050
14748TIP3    H144189   8.035   5.588   0.040
14748TIP3    H244190   8.052   5.720   0.111
14749TIP3   OH244191   2.214   4.757   1.795
14749TIP3    H144192   2.152   4.768   1.867
14749TIP3    H244193   2.163   4.778   1.716
14750TIP3   OH244194   2.587   4.933   5.542
14750TIP3    H144195   2.655   4.962   5.481
14750TIP3    H244196   2.543   4.861   5.496
14751TIP3   OH244197   3.697   0.449   0.963
14751TIP3    H144198   3.676   0.360   0.991
14751TIP3    H244199   3.655   0.505   1.028
14752TIP3   OH244200   4.464   2.272   3.001
14752TIP3    H144201   4.448   2.186   3.040
14752TIP3    H244202   4.418   2.270   2.918
14753TIP3   OH244203   1.807   1.299   3.603
14753TIP3    H144204   1.886   1.286   3.655
14753TIP3    H244205   1.797   1.218   3.552
14754TIP3   OH244206   1.663   3.216   1.548
14754TIP3    H144207   1.596   3.220   1.479
14754TIP3    H244208   1.635   3.143   1.603
14755TIP3   OH244209   1.898   4.296   2.671
14755TIP3    H144210   1.882   4.268   2.761
14755TIP3    H244211   1.841   4.372   2.660
14756TIP3   OH244212   0.931   1.531   3.430
14756TIP3    H144213   1.017   1.521   3.469
14756TIP3    H244214   0.878   1.463   3.473
14757TIP3   OH244215   3.754   1.650   4.747
14757TIP3    H144216   3.730   1.742   4.754
14757TIP3    H244217   3.675   1.606   4.716
14758TIP3   OH244218   3.474   6.840   0.853
14758TIP3    H144219   3.514   6.806   0.773
14758TIP3    H244220   3.381   6.849   0.831
14759TIP3   OH244221   3.322   4.376   5.864
14759TIP3    H144222   3.362   4.445   5.917
14759TIP3    H244223   3.384   4.303   5.867
14760TIP3   OH244224   7.844   6.744   0.360
14760TIP3    H144225   7.776   6.780   0.302
14760TIP3    H244226   7.905   6.817   0.373
14761TIP3   OH244227   4.124   4.932   2.039
14761TIP3    H144228   4.082   5.011   2.075
14761TIP3    H244229   4.216   4.944   2.059
14762TIP3   OH244230   7.233   1.973   2.928
14762TIP3    H144231   7.269   1.950   2.843
14762TIP3    H244232   7.158   2.029   2.909
14763TIP3   OH244233   5.713   0.340   4.104
14763TIP3    H144234   5.773   0.410   4.079
14763TIP3    H244235   5.693   0.357   4.196
14764TIP3   OH244236   3.652   4.683   4.042
14764TIP3    H144237   3.611   4.767   4.063
14764TIP3    H244238   3.644   4.631   4.122
14765TIP3   OH244239   7.843   1.881   6.638
14765TIP3    H144240   7.854   1.899   6.731
14765TIP3    H244241   7.925   1.912   6.598
14766TIP3   OH244242   8.181   2.708   1.335
14766TIP3    H144243   8.267   2.732   1.368
14766TIP3    H244244   8.123   2.777   1.368
14767TIP3   OH244245   2.731   5.245   4.503
14767TIP3    H144246   2.667   5.296   4.552
14767TIP3    H244247   2.792   5.310   4.468
14768TIP3   OH244248   0.385   2.231   3.819
14768TIP3    H144249   0.415   2.200   3.733
14768TIP3    H244250   0.331   2.159   3.853
14769TIP3   OH244251   4.046   6.051   4.295
14769TIP3    H144252   4.036   5.990   4.223
14769TIP3    H244253   3.971   6.035   4.352
14770TIP3   OH244254   1.294   3.278   5.748
14770TIP3    H144255   1.360   3.230   5.798
14770TIP3    H244256   1.345   3.325   5.681
14771TIP3   OH244257   2.716   2.618   0.544
14771TIP3    H144258   2.791   2.598   0.600
14771TIP3    H244259   2.752   2.675   0.476
14772TIP3   OH244260   8.169   7.251   3.046
14772TIP3    H144261   8.129   7.289   2.968
14772TIP3    H244262   8.117   7.284   3.119
14773TIP3   OH244263   1.331   5.995   6.744
14773TIP3    H144264   1.277   5.964   6.672
14773TIP3    H244265   1.295   6.080   6.767
14774TIP3   OH244266   0.680   7.247   2.873
14774TIP3    H144267   0.598   7.268   2.917
14774TIP3    H244268   0.748   7.275   2.934
14775TIP3   OH244269   2.184   6.363   0.673
14775TIP3    H144270   2.221   6.282   0.708
14775TIP3    H244271   2.258   6.423   0.667
14776TIP3   OH244272   7.802   7.316   5.985
14776TIP3    H144273   7.801   7.239   6.042
14776TIP3    H244274   7.829   7.387   6.043
14777TIP3   OH244275   1.356   4.186   1.585
14777TIP3    H144276   1.450   4.202   1.576
14777TIP3    H244277   1.335   4.220   1.672
14778TIP3   OH244278   8.238   5.935   2.366
14778TIP3    H144279   8.167   5.955   2.427
14778TIP3    H244280   8.317   5.935   2.421
14779TIP3   OH244281   1.880   4.442   1.200
14779TIP3    H144282   1.847   4.528   1.175
14779TIP3    H244283   1.905   4.401   1.118
14780TIP3   OH244284   6.971   7.718   5.390
14780TIP3    H144285   6.882   7.699   5.417
14780TIP3    H244286   6.962   7.783   5.320
14781TIP3   OH244287   1.608   3.590   3.947
14781TIP3    H144288   1.558   3.509   3.949
14781TIP3    H244289   1.641   3.600   4.037
14782TIP3   OH244290   3.154   2.088   6.646
14782TIP3    H144291   3.144   1.993   6.651
14782TIP3    H244292   3.067   2.123   6.666
14783TIP3   OH244293   7.664   4.738   6.522
14783TIP3    H144294   7.652   4.648   6.550
14783TIP3    H244295   7.725   4.775   6.586
14784TIP3   OH244296   2.620   3.121   5.400
14784TIP3    H144297   2.602   3.167   5.482
14784TIP3    H244298   2.713   3.098   5.405
14785TIP3   OH244299   1.658   7.510   3.112
14785TIP3    H144300   1.693   7.449   3.176
14785TIP3    H244301   1.702   7.593   3.131
14786TIP3   OH244302   6.373   4.591   3.329
14786TIP3    H144303   6.454   4.639   3.351
14786TIP3    H244304   6.392   4.549   3.245
14787TIP3   OH244305   4.262   0.953   0.047
14787TIP3    H144306   4.254   0.877  -0.010
14787TIP3    H244307   4.181   0.954   0.097
14788TIP3   OH244308   5.948   2.869   5.630
14788TIP3    H144309   5.904   2.948   5.663
14788TIP3    H244310   6.011   2.847   5.698
14789TIP3   OH244311   1.008   6.879   6.174
14789TIP3    H144312   0.918   6.911   6.180
14789TIP3    H244313   1.062   6.955   6.195
14790TIP3   OH244314   5.735   4.107   4.304
14790TIP3    H144315   5.644   4.109   4.334
14790TIP3    H244316   5.787   4.092   4.383
14791TIP3   OH244317   5.916   5.783   0.247
14791TIP3    H144318   5.834   5.732   0.248
14791TIP3    H244319   5.949   5.776   0.337
14792TIP3   OH244320   5.613   6.637   1.071
14792TIP3    H144321   5.522   6.659   1.092
14792TIP3    H244322   5.642   6.707   1.012
14793TIP3   OH244323   1.495   7.693   5.132
14793TIP3    H144324   1.505   7.599   5.145
14793TIP3    H244325   1.550   7.732   5.201
14794TIP3   OH244326   7.349   2.415   0.880
14794TIP3    H144327   7.309   2.391   0.797
14794TIP3    H244328   7.276   2.449   0.933
14795TIP3   OH244329   4.656   1.064   3.801
14795TIP3    H144330   4.723   1.132   3.800
14795TIP3    H244331   4.694   0.995   3.856
14796TIP3   OH244332   3.528   2.337   0.323
14796TIP3    H144333   3.465   2.285   0.273
14796TIP3    H244334   3.503   2.323   0.414
14797TIP3   OH244335   6.440   7.730   0.632
14797TIP3    H144336   6.347   7.751   0.630
14797TIP3    H244337   6.456   7.701   0.722
14798TIP3   OH244338   4.025   5.988   1.325
14798TIP3    H144339   3.993   5.942   1.402
14798TIP3    H244340   3.993   6.078   1.335
14799TIP3   OH244341   1.321   2.092   4.704
14799TIP3    H144342   1.367   2.149   4.765
14799TIP3    H244343   1.362   2.109   4.620
14800TIP3   OH244344   7.696   3.410   6.555
14800TIP3    H144345   7.616   3.461   6.561
14800TIP3    H244346   7.670   3.320   6.575
14801TIP3   OH244347   3.736   2.026   1.419
14801TIP3    H144348   3.773   1.964   1.482
14801TIP3    H244349   3.662   1.980   1.380
14802TIP3   OH244350   7.495   2.249   5.755
14802TIP3    H144351   7.554   2.309   5.711
14802TIP3    H244352   7.498   2.277   5.847
14803TIP3   OH244353   5.108   0.384   6.473
14803TIP3    H144354   5.045   0.403   6.403
14803TIP3    H244355   5.108   0.464   6.527
14804TIP3   OH244356   3.014   3.495   1.710
14804TIP3    H144357   3.083   3.558   1.687
14804TIP3    H244358   2.997   3.448   1.629
14805TIP3   OH244359   4.307   1.893   3.298
14805TIP3    H144360   4.285   1.948   3.373
14805TIP3    H244361   4.392   1.855   3.320
14806TIP3   OH244362   2.484   7.557   4.279
14806TIP3    H144363   2.411   7.613   4.253
14806TIP3    H244364   2.534   7.609   4.342
14807TIP3   OH244365   2.254   1.782   3.323
14807TIP3    H144366   2.317   1.718   3.355
14807TIP3    H244367   2.308   1.858   3.298
14808TIP3   OH244368   2.506   3.919   2.306
14808TIP3    H144369   2.442   3.983   2.274
14808TIP3    H244370   2.589   3.967   2.306
14809TIP3   OH244371   4.665   0.604   6.318
14809TIP3    H144372   4.742   0.556   6.348
14809TIP3    H244373   4.667   0.686   6.367
14810TIP3   OH244374   4.878   3.198   4.603
14810TIP3    H144375   4.918   3.129   4.550
14810TIP3    H244376   4.810   3.235   4.547
14811TIP3   OH244377   3.718   2.860   4.347
14811TIP3    H144378   3.649   2.842   4.410
14811TIP3    H244379   3.689   2.937   4.299
14812TIP3   OH244380   5.789   1.937   4.661
14812TIP3    H144381   5.852   2.009   4.654
14812TIP3    H244382   5.830   1.877   4.723
14813TIP3   OH244383   7.273   3.493   2.552
14813TIP3    H144384   7.243   3.495   2.461
14813TIP3    H244385   7.253   3.405   2.583
14814TIP3   OH244386   0.727   6.851   3.082
14814TIP3    H144387   0.719   6.757   3.067
14814TIP3    H244388   0.660   6.870   3.148
14815TIP3   OH244389   7.070   4.837   5.722
14815TIP3    H144390   7.095   4.926   5.695
14815TIP3    H244391   7.136   4.813   5.787
14816TIP3   OH244392   7.423   0.964   1.029
14816TIP3    H144393   7.498   0.923   1.071
14816TIP3    H244394   7.456   1.048   0.998
14817TIP3   OH244395   7.070   4.038   5.831
14817TIP3    H144396   7.107   3.955   5.861
14817TIP3    H244397   7.026   4.016   5.748
14818TIP3   OH244398   0.397   2.288   6.530
14818TIP3    H144399   0.453   2.223   6.573
14818TIP3    H244400   0.445   2.371   6.539
14819TIP3   OH244401   1.958   5.632   1.717
14819TIP3    H144402   2.042   5.586   1.711
14819TIP3    H244403   1.967   5.706   1.656
14820TIP3   OH244404   5.181   2.549   1.470
14820TIP3    H144405   5.162   2.641   1.487
14820TIP3    H244406   5.267   2.550   1.427
14821TIP3   OH244407   0.065   4.464   3.660
14821TIP3    H144408   0.148   4.499   3.691
14821TIP3    H244409   0.059   4.493   3.569
14822TIP3   OH244410   6.476   6.066   5.896
14822TIP3    H144411   6.468   5.971   5.907
14822TIP3    H244412   6.518   6.077   5.811
   8.29019   7.81607   6.76891   0.00000   0.00000  -2.76339   0.00000  -2.76339  -3.90803
