Title
19927
    1ASP      N    1   4.353   1.981   4.960 -0.1359 -0.3311 -0.2083
    1ASP    HT1    2   4.406   1.993   4.871 -1.5683 -0.8668 -1.1834
    1ASP    HT2    3   4.264   1.937   4.928 -0.0955 -0.9783  0.5433
    1ASP    HT3    4   4.407   1.911   5.015 -0.9612 -1.8816 -1.2881
    1ASP     CA    5   4.341   2.114   5.026 -0.4271  1.2434 -0.2585
    1ASP     HA    6   4.301   2.102   5.125 -1.1616  0.5389 -0.6320
    1ASP     CB    7   4.483   2.180   5.037 -0.4430 -0.0470 -0.6080
    1ASP    HB1    8   4.474   2.282   5.081 -1.0223  0.3029 -1.4940
    1ASP    HB2    9   4.521   2.199   4.935  0.3717  2.6302  0.1131
    1ASP     CG   10   4.585   2.105   5.111 -0.1246  0.2881 -0.3506
    1ASP    OD1   11   4.566   1.983   5.131  0.1121 -0.4236 -0.6669
    1ASP    OD2   12   4.688   2.169   5.142 -0.5457  0.1317  0.5202
    1ASP      C   13   4.241   2.203   4.951  0.4336  0.2837 -0.2125
    1ASP      O   14   4.126   2.158   4.938 -0.0790 -0.2041 -0.8694
    2ALA      N   15   4.270   2.321   4.900  1.0221 -0.0286 -0.2355
    2ALA     HN   16   4.363   2.356   4.911  1.2289 -0.8198  0.7063
    2ALA     CA   17   4.160   2.394   4.830 -0.6230  0.4043  0.0705
    2ALA     HA   18   4.073   2.401   4.893 -0.7271  1.8631 -0.2015
    2ALA     CB   19   4.201   2.541   4.810 -0.4386 -0.2634 -0.5538
    2ALA    HB1   20   4.302   2.556   4.766  0.4720 -2.4427  0.6516
    2ALA    HB2   21   4.200   2.580   4.914  2.1987 -2.6836  0.4907
    2ALA    HB3   22   4.120   2.599   4.759 -1.0184  1.1337  1.7862
    2ALA      C   23   4.110   2.336   4.697 -0.3726  0.4520  0.0253
    2ALA      O   24   3.992   2.344   4.672  0.2125 -0.3980 -0.3216
    3ASP      N   25   4.192   2.266   4.616 -0.0162 -0.0791 -0.7028
    3ASP     HN   26   4.290   2.274   4.632 -0.2523 -0.1378  0.8974
    3ASP     CA   27   4.144   2.206   4.495  0.6225  1.2171  1.0460
    3ASP     HA   28   4.079   2.281   4.454  0.4710 -0.1040 -1.2605
    3ASP     CB   29   4.267   2.179   4.398 -0.2373  0.7126 -0.1820
    3ASP    HB1   30   4.234   2.145   4.298  0.7037 -1.8125  0.2836
    3ASP    HB2   31   4.334   2.102   4.444 -0.3741 -0.2529 -1.5561
    3ASP     CG   32   4.348   2.309   4.379  0.0073 -0.0140  0.3168
    3ASP    OD1   33   4.292   2.406   4.324 -0.3445 -0.2785 -0.2760
    3ASP    OD2   34   4.470   2.298   4.402 -0.7045 -0.0039  0.1456
    3ASP      C   35   4.060   2.074   4.515  0.8479  0.1950 -0.8760
    3ASP      O   36   4.062   2.000   4.618  0.6780 -0.1449  0.8561
    4GLY      N   37   3.972   2.041   4.423 -0.6590 -0.1104 -0.0506
    4GLY     HN   38   3.955   2.105   4.348  0.2492  0.2194  0.0088
    4GLY     CA   39   3.886   1.929   4.427  0.6023  0.7242 -0.1484
    4GLY    HA1   40   3.822   1.939   4.341 -0.0308 -0.4630  0.1536
    4GLY    HA2   41   3.845   1.928   4.527  1.6928 -1.7351  0.3533
    4GLY      C   42   3.949   1.792   4.403  0.1465 -0.4604 -0.6309
    4GLY      O   43   4.071   1.779   4.381 -0.0254  0.3904  0.3721
    5PRO      N   44   3.872   1.683   4.407 -0.1718  0.5938 -0.3570
    5PRO     CD   45   3.744   1.683   4.469  0.2699  0.2814  0.0527
    5PRO    HD1   46   3.673   1.723   4.394 -0.7772 -1.9313 -0.2281
    5PRO    HD2   47   3.734   1.734   4.567  0.2219  0.1996  0.0908
    5PRO     CA   48   3.914   1.553   4.358 -0.8993  0.2627  0.9294
    5PRO     HA   49   3.992   1.505   4.416  1.3721  3.2207  0.5558
    5PRO     CB   50   3.777   1.476   4.363  0.1556 -0.3937  0.1008
    5PRO    HB1   51   3.790   1.367   4.380 -2.2046 -0.4802  2.0538
    5PRO    HB2   52   3.722   1.501   4.270 -1.2587  0.6619  1.1592
    5PRO     CG   53   3.702   1.534   4.479 -0.2588  0.8311 -0.0411
    5PRO    HG1   54   3.593   1.521   4.470 -0.0148 -1.4917 -0.1612
    5PRO    HG2   55   3.733   1.487   4.575 -1.0001 -1.7890 -1.0026
    5PRO      C   56   3.961   1.550   4.214 -0.0006  0.1932 -0.4905
    5PRO      O   57   3.914   1.644   4.151 -0.0122 -0.8579 -0.5954
    6GLY      N   58   4.052   1.462   4.175 -0.5313 -0.2217  0.2791
    6GLY     HN   59   4.081   1.402   4.249 -0.0903 -0.1033  0.2079
    6GLY     CA   60   4.113   1.433   4.043  0.4038 -0.5583 -0.5206
    6GLY    HA1   61   4.168   1.340   4.052  0.6366 -0.5577 -1.8079
    6GLY    HA2   62   4.182   1.510   4.014  1.5450 -1.4705 -0.2893
    6GLY      C   63   4.029   1.421   3.916 -0.1259 -0.3537 -0.3427
    6GLY      O   64   3.910   1.385   3.913 -0.1330 -0.2514  0.0612
    7ASP      N   65   4.085   1.460   3.797  0.1027 -0.4557 -0.2461
    7ASP     HN   66   4.182   1.478   3.787  0.0713  0.0424  0.2989
    7ASP     CA   67   4.024   1.435   3.665  0.6242 -0.0058  0.4106
    7ASP     HA   68   3.930   1.487   3.669 -0.3316 -1.6807  0.2578
    7ASP     CB   69   4.115   1.505   3.549 -0.0222  0.9508  0.2732
    7ASP    HB1   70   4.070   1.482   3.451  2.2762  1.6100 -1.0244
    7ASP    HB2   71   4.214   1.455   3.538 -2.1199 -3.3104 -1.4609
    7ASP     CG   72   4.129   1.658   3.552 -0.6405 -0.4524  0.7961
    7ASP    OD1   73   4.210   1.717   3.472 -0.1227  0.1847  0.3001
    7ASP    OD2   74   4.070   1.717   3.643 -0.7264  0.0717  0.3695
    7ASP      C   75   3.997   1.288   3.624 -0.6824  0.1118 -0.4119
    7ASP      O   76   4.088   1.204   3.633  0.1590 -0.9245  0.0152
    8PRO      N   77   3.880   1.248   3.572 -0.0994 -0.6086 -0.2183
    8PRO     CD   78   3.767   1.339   3.558 -0.6150  0.0648  0.6152
    8PRO    HD1   79   3.788   1.419   3.483 -0.0911 -1.4377 -0.8879
    8PRO    HD2   80   3.742   1.381   3.658 -1.5592 -2.1790  1.3787
    8PRO     CA   81   3.853   1.128   3.486 -0.1662 -0.2848 -1.0560
    8PRO     HA   82   3.836   1.040   3.545 -0.2727  1.0245  0.9378
    8PRO     CB   83   3.721   1.168   3.411 -0.6681  0.3425  0.3040
    8PRO    HB1   84   3.656   1.079   3.395  1.2664 -1.0135 -0.2718
    8PRO    HB2   85   3.733   1.233   3.321 -1.9845  0.7800  0.4106
    8PRO     CG   86   3.650   1.260   3.498  0.1256 -0.4003 -0.1062
    8PRO    HG1   87   3.574   1.317   3.440  0.4883 -1.0334 -1.2230
    8PRO    HG2   88   3.609   1.201   3.583  2.3425 -0.7291  0.7908
    8PRO      C   89   3.965   1.110   3.385 -0.4986 -0.0710 -0.2977
    8PRO      O   90   4.005   1.204   3.320  0.1701 -0.2639  0.1714
    9ASP      N   91   4.019   0.987   3.374  0.0402 -0.2444 -0.1364
    9ASP     HN   92   3.986   0.911   3.429 -1.2384  0.9915  0.8791
    9ASP     CA   93   4.128   0.951   3.278 -0.5430 -0.5305 -0.1831
    9ASP     HA   94   4.200   1.032   3.270  2.2859 -2.5192  2.3374
    9ASP     CB   95   4.221   0.847   3.353  0.1203 -0.3142  0.4464
    9ASP    HB1   96   4.249   0.893   3.450  0.7210  1.1613 -0.3829
    9ASP    HB2   97   4.317   0.830   3.300  0.2741 -0.1473  0.6711
    9ASP     CG   98   4.147   0.720   3.390 -0.7135 -0.9952 -0.6284
    9ASP    OD1   99   4.215   0.616   3.401  0.1899  0.0324 -0.6254
    9ASP    OD2  100   4.024   0.718   3.422 -0.2177 -0.1239  0.0088
    9ASP      C  101   4.080   0.905   3.145 -0.7400  0.2126 -0.6106
    9ASP      O  102   4.110   0.953   3.037 -1.1347  0.1594  0.1684
   10ALA      N  103   3.996   0.799   3.142 -0.4024 -0.7343  0.3602
   10ALA     HN  104   3.984   0.762   3.234  2.6796 -0.6020  0.9138
   10ALA     CA  105   3.930   0.741   3.024 -0.3054  0.1850 -0.8026
   10ALA     HA  106   4.008   0.731   2.950  0.1038  1.6334 -0.5910
   10ALA     CB  107   3.884   0.595   3.074 -0.4657 -0.1058  0.2202
   10ALA    HB1  108   3.789   0.595   3.132 -0.7293 -0.1786 -0.2065
   10ALA    HB2  109   3.962   0.546   3.135 -0.3382  0.6018  0.6325
   10ALA    HB3  110   3.868   0.541   2.978  1.9592  0.9502 -0.8676
   10ALA      C  111   3.826   0.825   2.968  0.0932 -0.3195  0.1766
   10ALA      O  112   3.799   0.930   3.033  0.2305 -0.2059 -0.1010
   11GLY      N  113   3.771   0.795   2.848 -0.4056 -0.2748  0.6103
   11GLY     HN  114   3.792   0.709   2.801  2.0528  1.0423 -0.8689
   11GLY     CA  115   3.670   0.879   2.778 -0.6955  0.2657 -0.3740
   11GLY    HA1  116   3.727   0.945   2.715  1.0984 -0.1665  0.7128
   11GLY    HA2  117   3.616   0.938   2.850  1.9940  2.6400 -0.1124
   11GLY      C  118   3.564   0.796   2.703 -0.8901 -0.4106 -0.0620
   11GLY    OT1  119   3.527   0.840   2.592  0.4584  0.0906  0.1485
   11GLY    OT2  120   3.527   0.691   2.756 -0.7461 -0.1931  0.5137
   12SOD    SOD  121   6.300   5.048   3.123 -0.5615 -0.9227  0.1393
   13SOD    SOD  122   2.013   3.266   0.119  0.8633  0.0193 -0.1347
   14SOD    SOD  123   1.774   2.099   4.293  0.5269  0.3880 -0.4034
   15SOD    SOD  124   0.373   1.685   1.165 -0.0435  0.1399  0.2455
   16SOD    SOD  125   5.674   1.947   4.191 -0.4198 -0.6248 -0.0353
   17SOD    SOD  126   4.629   0.525   4.550  0.3910  0.2865  0.0758
   18SOD    SOD  127   6.167   4.428   3.596 -0.0165  0.0156 -0.2549
   19SOD    SOD  128   2.179   3.934   4.139  0.1767  0.1634  0.3363
   20SOD    SOD  129   3.518   0.536   2.277  0.5902  0.6156  0.5530
   21SOD    SOD  130   4.636   3.299   3.428 -0.2183 -0.0955 -0.1342
   22SOD    SOD  131   1.522   5.731   3.486  0.3033 -0.3415 -0.0499
   23SOD    SOD  132   3.803   0.615   0.890 -0.2044 -0.8774  0.2214
   24SOD    SOD  133   2.796   3.152   3.142 -0.3010  0.5261  0.5479
   25SOD    SOD  134   6.046   0.687   1.788  0.7923 -0.0527  0.3828
   26SOD    SOD  135   3.985   0.310   5.005  0.3224  0.1145  0.4897
   27SOD    SOD  136   6.282   1.615   2.647  0.5624  0.0443  0.4318
   28SOD    SOD  137   0.026   2.362   3.950  0.2150  0.5244  0.0095
   29SOD    SOD  138   3.233   1.584   1.582 -0.5248  0.1503  0.0466
   30SOD    SOD  139   3.271   2.723   4.201 -0.0822  0.1763 -0.0693
   31SOD    SOD  140   2.942   0.759   2.722 -0.3537  0.4182  0.5871
   32SOD    SOD  141   2.772   2.172   1.624 -0.2335  0.0965 -0.5741
   33SOD    SOD  142   3.503   3.910   2.151 -0.2785  0.2661  0.2240
   34CLA    CLA  143   4.762   0.059   3.284 -0.4040 -0.0366  0.0288
   35CLA    CLA  144   5.523   0.588   0.043  0.1785  0.1604 -0.1661
   36CLA    CLA  145   0.071   5.096   2.484  0.7419  0.4312  0.2879
   37CLA    CLA  146   1.508   1.794   3.939 -0.2048  0.0153  0.3129
   38CLA    CLA  147   0.853   3.259   0.802 -0.3530  0.2576 -0.0025
   39CLA    CLA  148   4.117   4.131   5.019 -0.1125 -0.1660  0.3872
   40CLA    CLA  149   3.917   3.669   2.739  0.4316  0.0590 -0.0749
   41CLA    CLA  150   3.120   3.444   0.340  0.4590 -0.2414  0.1490
   42CLA    CLA  151   0.250   0.332   0.847 -0.0256 -0.1268 -0.0208
   43CLA    CLA  152   6.323   1.469   1.457  0.0535 -0.1707 -0.3269
   44CLA    CLA  153   1.982   5.779   4.791 -0.2525 -0.6557  0.2447
   45CLA    CLA  154   2.296   0.876   4.499  0.2749  0.2311 -0.0157
   46CLA    CLA  155   1.435   2.785   4.496  0.0515  0.3561  0.2070
   47CLA    CLA  156   0.040   5.418   4.028 -0.1454  0.0183 -0.4594
   48CLA    CLA  157   3.783   3.699   1.312 -0.2037 -0.0236 -0.0795
   49CLA    CLA  158   6.059   0.072   4.016  0.4743  0.3657 -0.1348
   50CLA    CLA  159   2.049   4.696   2.335  0.4270  0.2792  0.3519
   51CLA    CLA  160   0.920   1.956   0.340 -0.2707  0.1029 -0.0602
   52TIP3   OH2  161   4.337   1.349   2.717 -0.0390 -0.0822 -0.1396
   52TIP3    H1  162   4.346   1.443   2.706  2.5367 -0.2290  0.1071
   52TIP3    H2  163   4.303   1.338   2.806 -1.5028  0.5945 -0.5848
   53TIP3   OH2  164   0.755   2.234   0.570 -0.1553  0.3884 -0.2503
   53TIP3    H1  165   0.819   2.163   0.583 -0.8274 -0.3497 -0.8549
   53TIP3    H2  166   0.722   2.253   0.658  0.0443 -0.0328 -0.0809
   54TIP3   OH2  167   1.036   2.368   0.907 -0.5713  0.1049 -0.8216
   54TIP3    H1  168   0.941   2.362   0.901 -0.7090  0.1255  0.7884
   54TIP3    H2  169   1.052   2.458   0.937 -0.2209 -0.5388  1.0658
   55TIP3   OH2  170   4.364   4.460   1.726  0.0178 -0.2147  0.2820
   55TIP3    H1  171   4.392   4.541   1.768  1.1276 -0.5606  0.2492
   55TIP3    H2  172   4.281   4.482   1.684 -0.7312  0.3419  1.9941
   56TIP3   OH2  173   4.336   2.601   3.345 -0.0455  0.9459  0.4917
   56TIP3    H1  174   4.310   2.551   3.422  0.4395  0.5546  0.4057
   56TIP3    H2  175   4.325   2.693   3.371 -0.0578  0.8136  0.9591
   57TIP3   OH2  176   3.306   3.191   2.126 -0.5445  0.4396 -0.5699
   57TIP3    H1  177   3.316   3.264   2.065 -0.7933  2.2221  1.3771
   57TIP3    H2  178   3.217   3.159   2.111 -0.8828  1.3747 -0.6476
   58TIP3   OH2  179   2.073   3.674   0.190 -0.0361 -0.5315  0.0608
   58TIP3    H1  180   2.135   3.702   0.124  0.0229  1.1570  0.7914
   58TIP3    H2  181   2.001   3.737   0.184  0.1619 -0.0814  1.8504
   59TIP3   OH2  182   0.172   3.828   3.880 -0.1473  0.3180 -0.1851
   59TIP3    H1  183   0.115   3.774   3.826 -0.7184  1.0416 -0.3169
   59TIP3    H2  184   0.237   3.863   3.818  0.0871 -0.0304 -0.1387
   60TIP3   OH2  185   4.534   3.746   0.503  0.1106  0.5562  0.4848
   60TIP3    H1  186   4.497   3.662   0.476 -0.5714  1.0903 -0.2612
   60TIP3    H2  187   4.459   3.806   0.505  0.9273  1.6808 -1.1251
   61TIP3   OH2  188   2.002   1.562   0.215  0.0180  0.6736 -0.2915
   61TIP3    H1  189   2.083   1.613   0.214 -0.7063  1.8352 -0.0952
   61TIP3    H2  190   1.946   1.603   0.149 -0.4723 -0.0515 -0.3489
   62TIP3   OH2  191   4.313   3.013   2.512 -0.1267 -0.6540  0.2926
   62TIP3    H1  192   4.256   3.026   2.437 -0.8395  0.2642  0.9736
   62TIP3    H2  193   4.264   3.048   2.587  0.5634 -1.5346  1.1941
   63TIP3   OH2  194   0.667   4.307   3.493  0.1776 -0.0893  0.0605
   63TIP3    H1  195   0.736   4.259   3.448 -0.4306 -0.1407 -0.8459
   63TIP3    H2  196   0.618   4.350   3.423 -0.2635  0.5537  0.7395
   64TIP3   OH2  197   0.007   1.348   3.199 -0.1100  0.1796 -0.3364
   64TIP3    H1  198   0.090   1.382   3.234 -0.2451 -0.1187  0.2867
   64TIP3    H2  199  -0.009   1.268   3.251 -0.1776 -0.4192 -1.2573
   65TIP3   OH2  200   5.913   1.572   4.319 -0.0998  0.6314  0.1605
   65TIP3    H1  201   5.861   1.580   4.239 -0.7841 -0.4460  0.4763
   65TIP3    H2  202   5.852   1.538   4.384  0.5190  1.2405  1.0802
   66TIP3   OH2  203   4.553   3.378   1.768 -0.2668 -0.6351  0.9086
   66TIP3    H1  204   4.461   3.403   1.775 -0.9913 -3.2185  1.7959
   66TIP3    H2  205   4.599   3.438   1.826 -1.3438  0.8015  0.3327
   67TIP3   OH2  206   5.828   1.501   3.228  0.4347 -0.1110 -0.1848
   67TIP3    H1  207   5.792   1.446   3.158 -1.1358  0.7295 -0.0762
   67TIP3    H2  208   5.890   1.559   3.183  0.8288 -0.8021 -0.5598
   68TIP3   OH2  209   1.784   4.874   4.844  0.2155 -0.0069 -0.1413
   68TIP3    H1  210   1.878   4.873   4.861  0.4251  0.7386 -1.1158
   68TIP3    H2  211   1.756   4.784   4.859  1.2955 -0.4929 -0.8905
   69TIP3   OH2  212   5.377   3.398   3.626 -0.4316  0.1763  0.1448
   69TIP3    H1  213   5.395   3.489   3.604  1.7660 -0.5725 -1.4505
   69TIP3    H2  214   5.394   3.350   3.545 -1.1561 -1.7116  1.0573
   70TIP3   OH2  215   3.209   5.546   3.365 -0.5473 -0.0963  0.2766
   70TIP3    H1  216   3.179   5.633   3.338 -1.0322 -0.0519  0.9308
   70TIP3    H2  217   3.171   5.487   3.301  1.8470  0.3452 -1.7310
   71TIP3   OH2  218   0.910   1.785   4.430 -0.6143  0.4352 -0.4786
   71TIP3    H1  219   0.854   1.854   4.463 -1.8904 -0.8887  0.2163
   71TIP3    H2  220   0.986   1.786   4.488 -0.8418  0.9332 -0.1809
   72TIP3   OH2  221   0.766   5.120   3.032  0.0101 -0.4787  0.2188
   72TIP3    H1  222   0.760   5.183   2.960  0.7066  1.8778  2.1335
   72TIP3    H2  223   0.775   5.035   2.988 -0.6465  0.7335 -2.4590
   73TIP3   OH2  224   2.261   0.269   4.673  0.1709  0.1314 -0.5020
   73TIP3    H1  225   2.290   0.345   4.724 -0.1680 -0.4556  0.6019
   73TIP3    H2  226   2.341   0.233   4.635  0.2062  1.7276 -2.0652
   74TIP3   OH2  227   3.966   5.016   0.253  0.1850  0.0994  0.1300
   74TIP3    H1  228   3.944   4.932   0.211  3.0006 -0.0930 -1.2231
   74TIP3    H2  229   3.926   5.082   0.197 -1.3668 -0.2651  0.7500
   75TIP3   OH2  230   5.486   3.485   2.855  0.5742  0.2686 -0.1099
   75TIP3    H1  231   5.494   3.580   2.844 -0.9061  0.6303  1.5048
   75TIP3    H2  232   5.490   3.450   2.766  2.5429  1.6821 -0.6603
   76TIP3   OH2  233   0.410   5.475   2.066 -0.1351 -0.2553 -0.3697
   76TIP3    H1  234   0.479   5.410   2.075  0.6313  0.4351 -1.0802
   76TIP3    H2  235   0.428   5.517   1.982  0.4613  2.0527  0.8317
   77TIP3   OH2  236   5.558   5.110   0.191  0.0933  0.1314  0.6561
   77TIP3    H1  237   5.558   5.057   0.111  0.1060 -0.8423  1.2755
   77TIP3    H2  238   5.592   5.051   0.258  1.5985  1.4248  1.0895
   78TIP3   OH2  239   4.635   0.756   2.640  0.2185  0.9358 -0.2530
   78TIP3    H1  240   4.671   0.800   2.563 -0.1463  0.2147 -0.8602
   78TIP3    H2  241   4.672   0.668   2.637 -0.5068  0.6120 -0.1264
   79TIP3   OH2  242   2.511   1.824   0.360 -0.0532  0.3589  0.2932
   79TIP3    H1  243   2.490   1.760   0.428 -1.4489  2.2664  1.7608
   79TIP3    H2  244   2.606   1.827   0.359  0.0072  0.0055  1.9134
   80TIP3   OH2  245   5.968   3.645   4.026 -0.2429 -0.0138  0.0534
   80TIP3    H1  246   5.982   3.551   4.038 -1.0503  0.0133  1.3762
   80TIP3    H2  247   6.052   3.685   4.048 -0.2540 -0.3500  0.7354
   81TIP3   OH2  248   4.515   5.481   2.718  0.2585  0.1603 -1.1293
   81TIP3    H1  249   4.445   5.425   2.686 -0.8101  0.2245  0.9539
   81TIP3    H2  250   4.594   5.427   2.711 -0.8575 -2.0913  1.6715
   82TIP3   OH2  251   5.171   5.009   4.016  0.0601 -0.4131  0.4610
   82TIP3    H1  252   5.119   5.023   3.938 -1.1104 -1.9089  0.9149
   82TIP3    H2  253   5.229   4.935   3.993  0.2554 -0.3521  0.7516
   83TIP3   OH2  254   1.999   5.511   0.336 -0.1238 -0.2689  0.0676
   83TIP3    H1  255   1.905   5.526   0.345 -0.2213 -0.1623 -0.9904
   83TIP3    H2  256   2.026   5.478   0.421 -1.3033 -1.2765  0.0804
   84TIP3   OH2  257   6.261   4.206   4.959 -0.2538  0.6001  0.4315
   84TIP3    H1  258   6.185   4.192   4.902  0.4626  3.7224 -1.5017
   84TIP3    H2  259   6.324   4.140   4.931 -0.8697  0.4236 -0.5772
   85TIP3   OH2  260   1.640   3.579   3.773  0.4286 -0.2131 -0.3233
   85TIP3    H1  261   1.600   3.493   3.784  1.6973 -0.9229 -1.0719
   85TIP3    H2  262   1.577   3.640   3.812 -0.6612 -1.4309 -0.1266
   86TIP3   OH2  263   4.683   5.686   1.743  0.3350 -0.2536  0.1797
   86TIP3    H1  264   4.739   5.710   1.816 -1.1671  2.4727  0.5742
   86TIP3    H2  265   4.730   5.717   1.666  0.4113 -0.0334  0.3120
   87TIP3   OH2  266   2.277   0.456   3.863  0.5520 -0.3560  0.0436
   87TIP3    H1  267   2.215   0.386   3.841 -0.2507  0.6075 -0.8772
   87TIP3    H2  268   2.251   0.530   3.807  0.0570  1.3796  2.4073
   88TIP3   OH2  269   2.804   0.130   3.793  0.0960  0.3348  0.1955
   88TIP3    H1  270   2.739   0.186   3.748 -0.5172  0.3057  1.0175
   88TIP3    H2  271   2.753   0.082   3.858  0.5675 -1.4291 -0.6922
   89TIP3   OH2  272   0.447   5.643   1.037  0.6197 -0.0452 -0.2276
   89TIP3    H1  273   0.432   5.650   1.131 -1.1185 -0.4133 -0.4469
   89TIP3    H2  274   0.528   5.592   1.029  0.4933 -0.4759  1.0497
   90TIP3   OH2  275   1.482   4.034   5.042  0.0611 -0.1949  1.1145
   90TIP3    H1  276   1.393   4.005   5.059 -1.2199  2.0416 -1.0283
   90TIP3    H2  277   1.512   3.979   4.969 -0.5601  0.6303  0.2046
   91TIP3   OH2  278   5.835   5.869   4.743 -0.8794 -0.5972  0.1818
   91TIP3    H1  279   5.864   5.931   4.809 -2.1193 -1.9742  2.1166
   91TIP3    H2  280   5.916   5.832   4.707 -0.0773  2.4124 -1.4527
   92TIP3   OH2  281   4.877   5.127   2.547  0.1567  0.5382  0.2900
   92TIP3    H1  282   4.938   5.101   2.615  0.7864 -0.5913 -0.6659
   92TIP3    H2  283   4.877   5.055   2.485 -1.4740  0.9118 -0.2116
   93TIP3   OH2  284   0.538   5.283   4.058 -0.3478  0.0145 -0.4671
   93TIP3    H1  285   0.457   5.329   4.035 -1.5590 -1.3728  0.8253
   93TIP3    H2  286   0.589   5.349   4.106  0.4872  1.7006 -3.4356
   94TIP3   OH2  287   5.284   5.480   4.275 -0.0422 -0.4432 -0.1506
   94TIP3    H1  288   5.333   5.448   4.200 -1.6042 -0.6159 -1.1550
   94TIP3    H2  289   5.315   5.427   4.348  1.4703 -0.3206 -0.6597
   95TIP3   OH2  290   3.205   5.257   2.229 -0.4062 -0.1972  0.1988
   95TIP3    H1  291   3.144   5.330   2.213 -0.9224 -0.5241  0.6298
   95TIP3    H2  292   3.242   5.276   2.315  0.3410  0.1591 -0.1934
   96TIP3   OH2  293   0.105   5.733   4.562 -0.0577  0.1051  0.5257
   96TIP3    H1  294   0.079   5.652   4.606  1.7812 -1.0243 -0.3572
   96TIP3    H2  295   0.029   5.757   4.509 -0.4943 -1.2552  0.4971
   97TIP3   OH2  296   4.835   5.615   0.021  0.4448  0.2852  0.0219
   97TIP3    H1  297   4.751   5.618   0.068  0.6663  0.3031  0.4275
   97TIP3    H2  298   4.876   5.699   0.042  0.4110  0.4224 -0.4654
   98TIP3   OH2  299   4.285   5.625   2.163 -0.3260  0.4843  0.0087
   98TIP3    H1  300   4.252   5.613   2.252 -0.7061  0.2026 -0.1681
   98TIP3    H2  301   4.343   5.551   2.147 -0.2082  0.5691  0.0472
   99TIP3   OH2  302   3.986   0.232   2.293  0.2085 -0.4069  0.7729
   99TIP3    H1  303   3.983   0.238   2.197 -1.3767  1.8780  0.8566
   99TIP3    H2  304   4.077   0.212   2.314  0.4286 -1.7579 -1.2091
  100TIP3   OH2  305   0.287   1.382   1.908 -0.5548 -0.3702  0.1317
  100TIP3    H1  306   0.276   1.470   1.870 -1.3643 -0.6707 -0.3584
  100TIP3    H2  307   0.254   1.323   1.840  2.5681 -1.2984 -0.7760
  101TIP3   OH2  308   5.392   5.705   1.090 -0.4922 -0.1843  0.3924
  101TIP3    H1  309   5.391   5.766   1.016  0.5625  0.3356  0.7958
  101TIP3    H2  310   5.331   5.744   1.154  0.0952  0.3978  0.6045
  102TIP3   OH2  311   5.476   2.267   1.535  0.5072 -0.1502  0.5259
  102TIP3    H1  312   5.439   2.187   1.571  0.1218  0.3347  1.2346
  102TIP3    H2  313   5.568   2.264   1.559  0.8412 -1.1115 -0.7899
  103TIP3   OH2  314   5.451   0.316   1.678 -0.8683 -0.4546  0.0261
  103TIP3    H1  315   5.526   0.285   1.729 -1.8800 -0.1689  1.7378
  103TIP3    H2  316   5.398   0.238   1.662 -0.5053 -0.5623 -0.7325
  104TIP3   OH2  317   0.952   2.823   0.304 -0.5249 -0.5882  0.0741
  104TIP3    H1  318   0.867   2.812   0.347 -0.8613  0.3735 -0.3241
  104TIP3    H2  319   0.969   2.918   0.308 -0.6556 -0.4337 -2.0712
  105TIP3   OH2  320   4.365   1.678   3.251  1.0499 -0.1929 -0.1707
  105TIP3    H1  321   4.303   1.686   3.323  0.1354 -0.3260 -0.9361
  105TIP3    H2  322   4.382   1.583   3.244 -0.7179 -0.4389 -1.6589
  106TIP3   OH2  323   2.811   4.166   2.731  0.5862  0.7106  0.4181
  106TIP3    H1  324   2.801   4.261   2.721 -0.3207  0.5178 -0.7562
  106TIP3    H2  325   2.849   4.137   2.648  2.3152  0.2052  1.3396
  107TIP3   OH2  326   5.988   2.739   4.219  0.2772 -0.3266 -0.5022
  107TIP3    H1  327   6.019   2.650   4.235 -0.9443 -0.9251 -1.2301
  107TIP3    H2  328   5.943   2.764   4.299 -1.2633 -1.2539 -1.0226
  108TIP3   OH2  329   4.882   1.255   4.157 -0.1388 -0.6641 -0.4739
  108TIP3    H1  330   4.967   1.217   4.134  0.1489 -0.1925 -0.1990
  108TIP3    H2  331   4.903   1.340   4.195 -0.8067  0.1131 -1.7528
  109TIP3   OH2  332   5.930   3.607   3.592  0.2948 -0.2603 -0.0841
  109TIP3    H1  333   5.980   3.586   3.672 -0.8034 -0.2290  0.6297
  109TIP3    H2  334   5.851   3.651   3.624  1.0426  2.1731 -1.3613
  110TIP3   OH2  335   2.304   2.141   0.547  0.1927 -0.5794 -0.2593
  110TIP3    H1  336   2.256   2.157   0.466 -0.4611 -0.9237  0.0500
  110TIP3    H2  337   2.246   2.173   0.616  0.6606 -0.4627  0.0863
  111TIP3   OH2  338   1.494   5.008   2.136 -0.2959  0.3770 -0.1607
  111TIP3    H1  339   1.447   5.072   2.083 -3.0793 -1.4064 -0.1069
  111TIP3    H2  340   1.474   4.924   2.094  1.7178 -0.6493  0.7908
  112TIP3   OH2  341   6.168   5.074   1.884  0.5361 -0.3681 -0.1215
  112TIP3    H1  342   6.186   4.980   1.885  0.4064 -0.4038  1.1712
  112TIP3    H2  343   6.248   5.114   1.919 -0.3200 -0.2342  1.8665
  113TIP3   OH2  344   1.234   3.666   0.462 -0.1678  0.2470  0.1798
  113TIP3    H1  345   1.251   3.572   0.454 -0.1440  0.0891  1.6822
  113TIP3    H2  346   1.185   3.688   0.383 -0.6204 -1.1444  0.0348
  114TIP3   OH2  347   1.861   2.671   0.079 -0.4361 -0.2745  0.4233
  114TIP3    H1  348   1.860   2.687  -0.015  0.0861  1.2755  0.6514
  114TIP3    H2  349   1.795   2.603   0.092 -0.5457 -0.4919 -1.0479
  115TIP3   OH2  350   4.970   5.848   0.098  0.3360  0.4430 -0.1305
  115TIP3    H1  351   5.058   5.862   0.062  0.1175  2.2824 -0.0578
  115TIP3    H2  352   4.986   5.803   0.181  1.0673 -0.7798 -0.8995
  116TIP3   OH2  353   2.623   5.130   0.801  0.3316 -0.0563  0.0232
  116TIP3    H1  354   2.688   5.061   0.788  0.7137  0.3247 -0.1047
  116TIP3    H2  355   2.539   5.084   0.799  0.5243 -0.4016 -0.9781
  117TIP3   OH2  356   1.239   1.552   1.428 -0.3010 -0.2908  0.0042
  117TIP3    H1  357   1.185   1.504   1.365 -1.6934 -1.0783  1.6919
  117TIP3    H2  358   1.175   1.588   1.491  1.0109  0.6344  0.8556
  118TIP3   OH2  359   2.120   5.899   1.388 -0.7380 -0.3770  0.6269
  118TIP3    H1  360   2.048   5.904   1.451 -1.5406 -1.7245 -0.1497
  118TIP3    H2  361   2.083   5.933   1.307 -0.8569 -2.0484 -0.0559
  119TIP3   OH2  362   5.330   5.765   0.483 -0.1951 -0.4623 -0.1286
  119TIP3    H1  363   5.260   5.815   0.525 -0.3337 -1.5263  0.9626
  119TIP3    H2  364   5.408   5.818   0.495 -0.3253 -0.5116  1.0583
  120TIP3   OH2  365   5.687   4.952   0.401  0.5025  0.4964  0.3472
  120TIP3    H1  366   5.772   4.943   0.444  0.7792  0.0777 -0.2757
  120TIP3    H2  367   5.637   4.877   0.433 -0.1023  1.4415  1.7316
  121TIP3   OH2  368   5.202   3.346   2.602 -0.6456 -0.3559  0.0151
  121TIP3    H1  369   5.287   3.323   2.564 -1.9827 -0.4361 -3.2742
  121TIP3    H2  370   5.189   3.282   2.672  2.0809 -0.1609  0.8026
  122TIP3   OH2  371   0.346   0.601   3.051 -0.0770  0.3789  0.4056
  122TIP3    H1  372   0.407   0.676   3.052  1.2554 -0.6575 -0.1494
  122TIP3    H2  373   0.294   0.615   2.972  0.7003  0.3282 -0.1333
  123TIP3   OH2  374   5.561   3.106   2.265 -0.0689  0.3686 -0.0285
  123TIP3    H1  375   5.504   3.034   2.237  0.1737  0.3744 -0.5493
  123TIP3    H2  376   5.507   3.157   2.325 -0.0794 -0.5275  0.7490
  124TIP3   OH2  377   0.137   2.850   3.032 -0.1956  0.8780 -0.0872
  124TIP3    H1  378   0.198   2.828   3.102  0.9362  0.3998 -1.1723
  124TIP3    H2  379   0.178   2.814   2.953 -1.8453  0.6459 -0.8739
  125TIP3   OH2  380   3.915   5.357   0.177  0.4001 -0.0905  0.2553
  125TIP3    H1  381   3.978   5.428   0.167 -0.1866  0.2402 -1.5884
  125TIP3    H2  382   3.932   5.321   0.264  1.3892  1.6373  0.8234
  126TIP3   OH2  383   0.342   2.047   1.538 -0.0234  0.8476 -0.3780
  126TIP3    H1  384   0.424   1.997   1.533 -0.2364  0.3855  0.5150
  126TIP3    H2  385   0.369   2.139   1.531  0.3872  0.6370 -1.8689
  127TIP3   OH2  386   5.771   3.145   1.756 -0.0151 -0.1710  0.4399
  127TIP3    H1  387   5.783   3.052   1.738  0.7387 -0.0883  0.4812
  127TIP3    H2  388   5.757   3.185   1.670 -1.0617 -0.4078  0.4804
  128TIP3   OH2  389   5.399   5.675   3.045 -0.0227  0.4587 -0.4115
  128TIP3    H1  390   5.406   5.762   3.007  0.0829  0.3656 -0.6044
  128TIP3    H2  391   5.405   5.690   3.140  1.4935  0.5237 -0.4871
  129TIP3   OH2  392   4.918   3.671   2.829 -0.8037  0.2324  0.0494
  129TIP3    H1  393   4.964   3.605   2.777 -1.2702  0.4540 -0.6572
  129TIP3    H2  394   4.895   3.625   2.910  0.9660  0.2259  0.5894
  130TIP3   OH2  395   1.582   5.167   2.539  0.2937  0.0969 -0.4314
  130TIP3    H1  396   1.621   5.081   2.522  0.0114  0.3335 -2.5784
  130TIP3    H2  397   1.657   5.225   2.554  0.4611 -0.7000  2.4970
  131TIP3   OH2  398   1.243   4.139   2.787 -0.1633  0.4800 -0.6624
  131TIP3    H1  399   1.280   4.053   2.767  1.6445  0.8626  0.7133
  131TIP3    H2  400   1.291   4.199   2.730  0.3769  0.8120  0.1047
  132TIP3   OH2  401   1.189   4.570   4.750 -0.6752  0.1724 -0.4643
  132TIP3    H1  402   1.201   4.646   4.808 -0.5445  0.2136 -0.5452
  132TIP3    H2  403   1.108   4.589   4.703 -0.4014  0.4788 -0.8184
  133TIP3   OH2  404   4.998   5.228   4.766 -0.1477  0.3723  0.2223
  133TIP3    H1  405   4.987   5.168   4.693 -0.9815 -0.7593  1.2361
  133TIP3    H2  406   4.998   5.172   4.843 -0.1414  1.6082  1.1564
  134TIP3   OH2  407   0.158   3.327   1.256  0.0450 -0.5379 -0.0652
  134TIP3    H1  408   0.187   3.348   1.345  1.8015 -0.7736 -0.5575
  134TIP3    H2  409   0.228   3.357   1.199 -0.2626 -1.9505 -1.2563
  135TIP3   OH2  410   3.205   2.736   3.192 -0.3406 -0.0581  0.1541
  135TIP3    H1  411   3.232   2.766   3.279 -0.8190  1.7759 -0.3052
  135TIP3    H2  412   3.220   2.811   3.135 -0.8866 -0.9468 -1.2009
  136TIP3   OH2  413   0.717   0.653   0.792 -0.1349 -0.2819  0.2824
  136TIP3    H1  414   0.647   0.626   0.733  0.3533 -3.1179  0.8574
  136TIP3    H2  415   0.798   0.633   0.744  0.4371  3.0841 -0.4415
  137TIP3   OH2  416   1.162   3.475   4.656  0.2145 -0.2254  0.4645
  137TIP3    H1  417   1.193   3.565   4.661 -0.1313 -0.0872  0.2129
  137TIP3    H2  418   1.073   3.478   4.691 -1.0613  0.1836 -2.5023
  138TIP3   OH2  419   3.060   1.990   2.731  0.2736  0.1922 -0.6466
  138TIP3    H1  420   2.989   1.933   2.760  2.5425 -2.9836 -0.8446
  138TIP3    H2  421   3.089   2.035   2.811  0.0846 -0.9203  0.0635
  139TIP3   OH2  422   5.228   0.960   2.218 -0.1336  0.2068  0.8089
  139TIP3    H1  423   5.307   0.949   2.165  0.1908 -1.2786  1.5463
  139TIP3    H2  424   5.244   1.040   2.268 -0.1856  1.2861 -0.8202
  140TIP3   OH2  425   4.791   2.236   0.464 -0.3998 -0.2072  0.8711
  140TIP3    H1  426   4.703   2.225   0.428  0.1934 -2.0960 -0.1633
  140TIP3    H2  427   4.792   2.324   0.499 -2.6845 -0.1174  0.8488
  141TIP3   OH2  428   1.858   0.348   1.706 -0.3870  0.4959 -0.2826
  141TIP3    H1  429   1.826   0.261   1.681 -1.9807  0.8680  0.3604
  141TIP3    H2  430   1.930   0.365   1.646 -1.5660 -0.2740 -1.9925
  142TIP3   OH2  431   4.253   4.513   4.348 -0.2871 -0.0518  0.1658
  142TIP3    H1  432   4.196   4.457   4.296  0.1648  0.4551 -0.8957
  142TIP3    H2  433   4.248   4.598   4.305  2.2862 -0.3008 -0.7653
  143TIP3   OH2  434   2.130   1.909   4.390 -0.0136 -0.2255  0.1773
  143TIP3    H1  435   2.079   1.900   4.470 -1.1647  0.0052 -0.5075
  143TIP3    H2  436   2.217   1.937   4.419 -0.0176 -1.4194  1.4237
  144TIP3   OH2  437   1.426   2.659   1.146  0.3332 -0.2510  0.2653
  144TIP3    H1  438   1.496   2.621   1.092 -0.1955  0.0886 -0.6947
  144TIP3    H2  439   1.472   2.713   1.210  0.9843 -0.6826  0.1770
  145TIP3   OH2  440   2.533   5.066   0.106 -0.2018  0.3653  0.2302
  145TIP3    H1  441   2.534   4.976   0.139 -0.2720 -1.2005 -3.5081
  145TIP3    H2  442   2.621   5.080   0.073 -0.1309  1.8040  0.9633
  146TIP3   OH2  443   4.564   2.171   0.065 -0.5401 -0.2799  0.1913
  146TIP3    H1  444   4.659   2.183   0.075 -0.5687  0.6934 -0.5598
  146TIP3    H2  445   4.554   2.132  -0.022 -0.8946  0.7890 -0.2569
  147TIP3   OH2  446   2.962   3.356   2.848 -0.0875  0.6123  0.3682
  147TIP3    H1  447   2.919   3.365   2.933 -0.5135  0.5054  0.1715
  147TIP3    H2  448   3.020   3.281   2.857 -0.6335  0.1832  0.3666
  148TIP3   OH2  449   6.065   5.728   0.235  0.0258  0.1709  0.5422
  148TIP3    H1  450   6.023   5.642   0.232  1.4395 -0.5243  0.1327
  148TIP3    H2  451   6.032   5.773   0.158 -3.3493  1.3413  2.4311
  149TIP3   OH2  452   5.286   2.669   3.490 -0.7119  0.1215 -0.1054
  149TIP3    H1  453   5.193   2.677   3.508 -0.6680 -1.8387  1.3834
  149TIP3    H2  454   5.290   2.620   3.408 -0.9196  2.8536 -1.8586
  150TIP3   OH2  455   0.590   4.861   1.751  0.2060 -0.0538 -0.4782
  150TIP3    H1  456   0.642   4.941   1.754 -1.4428  1.0322  0.2821
  150TIP3    H2  457   0.556   4.856   1.662  0.0990  0.2409 -0.4536
  151TIP3   OH2  458   1.548   3.286   2.603 -0.4332  0.2139 -0.0490
  151TIP3    H1  459   1.595   3.357   2.560 -0.5776  0.8193  0.7651
  151TIP3    H2  460   1.468   3.276   2.552  0.8530 -1.3156 -1.8899
  152TIP3   OH2  461   5.055   1.174   2.039  0.4248 -0.2403 -0.1303
  152TIP3    H1  462   5.141   1.197   2.003  0.4629 -0.6619 -0.3176
  152TIP3    H2  463   5.074   1.141   2.127  0.3070  1.0228  0.3846
  153TIP3   OH2  464   3.939   2.675   4.259  0.1040  0.6151  0.1845
  153TIP3    H1  465   3.954   2.583   4.237 -1.1288 -0.0944  2.0511
  153TIP3    H2  466   3.997   2.723   4.200 -0.6138 -1.2135 -2.1972
  154TIP3   OH2  467   1.014   1.564   2.782 -0.2100 -0.6131  0.2543
  154TIP3    H1  468   0.956   1.597   2.714 -0.1573 -2.3114 -0.6595
  154TIP3    H2  469   1.092   1.534   2.736  0.0465 -1.3142  1.1089
  155TIP3   OH2  470   2.476   4.142   3.584  0.2562 -0.0997 -0.1558
  155TIP3    H1  471   2.418   4.208   3.619 -0.4504  0.0990 -1.6045
  155TIP3    H2  472   2.560   4.158   3.627 -0.0402  1.3908 -0.0805
  156TIP3   OH2  473   5.998   3.907   0.038  0.0945 -0.1129 -0.1198
  156TIP3    H1  474   5.959   3.820   0.047  0.4234 -0.1834  0.7575
  156TIP3    H2  475   5.954   3.960   0.104  0.2166  0.2710 -0.3411
  157TIP3   OH2  476   2.080   5.403   0.585  0.4021  0.3473  0.1886
  157TIP3    H1  477   2.089   5.380   0.678 -0.8493  1.1524  0.5267
  157TIP3    H2  478   2.098   5.321   0.539  1.2287 -0.0209  1.1215
  158TIP3   OH2  479   4.096   2.836   2.386  0.1672 -0.2575 -0.0958
  158TIP3    H1  480   4.008   2.824   2.422  0.2555 -3.8596 -0.7091
  158TIP3    H2  481   4.102   2.929   2.367 -3.3561  0.1869  0.3581
  159TIP3   OH2  482   4.207   0.738   5.070 -0.0114  0.4565 -0.1908
  159TIP3    H1  483   4.289   0.689   5.082 -0.0682  0.2457 -0.6749
  159TIP3    H2  484   4.174   0.750   5.160 -0.1432 -0.6419 -0.0726
  160TIP3   OH2  485   5.452   0.787   0.408  0.2312  0.1492  0.4354
  160TIP3    H1  486   5.447   0.817   0.318 -1.0511  0.9199  0.7360
  160TIP3    H2  487   5.527   0.728   0.410  0.8336  0.8377 -0.9162
  161TIP3   OH2  488   5.213   5.176   3.672 -0.2832 -0.0864  0.0924
  161TIP3    H1  489   5.168   5.165   3.588 -0.5133  0.1919  0.1779
  161TIP3    H2  490   5.143   5.185   3.736 -0.1062 -0.0739  0.2868
  162TIP3   OH2  491   3.173   1.183   3.075  0.2307  0.1958  0.0073
  162TIP3    H1  492   3.225   1.255   3.111  2.2377 -1.6531  1.0787
  162TIP3    H2  493   3.201   1.176   2.984  1.8596 -0.6842  0.5339
  163TIP3   OH2  494   1.333   0.202   3.680  0.1725 -0.3741 -0.5020
  163TIP3    H1  495   1.346   0.248   3.763 -0.0101 -1.9002  0.4284
  163TIP3    H2  496   1.406   0.228   3.625  0.6405  0.1959  0.3769
  164TIP3   OH2  497   5.831   0.364   4.415  0.0734  0.0314  0.1874
  164TIP3    H1  498   5.813   0.278   4.377  0.2901  0.5530 -1.1662
  164TIP3    H2  499   5.780   0.425   4.361 -1.1933  0.6491  1.9852
  165TIP3   OH2  500   5.724   5.508   4.734 -0.1311  0.2443  0.0200
  165TIP3    H1  501   5.693   5.586   4.779  0.3890  0.9681 -0.8308
  165TIP3    H2  502   5.677   5.435   4.775 -1.2676  1.0822  0.2382
  166TIP3   OH2  503   3.725   2.269   1.272 -0.4315 -0.4739  0.8466
  166TIP3    H1  504   3.769   2.353   1.274  1.4860 -1.3782 -0.2325
  166TIP3    H2  505   3.707   2.253   1.179  0.6325 -1.9014  0.8441
  167TIP3   OH2  506   4.317   1.928   3.605  0.1936  0.1715 -0.1302
  167TIP3    H1  507   4.252   1.874   3.560  0.2234 -1.0191  1.2054
  167TIP3    H2  508   4.398   1.878   3.598  0.3383  0.2833  0.6606
  168TIP3   OH2  509   1.702   4.752   0.841 -0.8140  0.0859 -0.2669
  168TIP3    H1  510   1.614   4.756   0.877 -0.1780  1.2742  1.2701
  168TIP3    H2  511   1.690   4.751   0.746 -2.4586  0.1806 -0.0753
  169TIP3   OH2  512   1.557   3.239   3.138 -0.2000 -0.5409  0.5474
  169TIP3    H1  513   1.623   3.186   3.093  0.2302 -0.0436  0.5824
  169TIP3    H2  514   1.585   3.240   3.230  0.5271  0.8055  0.3349
  170TIP3   OH2  515   0.615   2.728  -0.017  0.1636  0.0916 -0.2316
  170TIP3    H1  516   0.532   2.688   0.009  0.5609  0.9533  2.7720
  170TIP3    H2  517   0.682   2.669   0.020  0.9352 -0.2775 -2.1056
  171TIP3   OH2  518   2.379   4.857   4.279 -0.8445  0.1971 -0.3342
  171TIP3    H1  519   2.308   4.824   4.333  0.9265 -2.0068  0.8441
  171TIP3    H2  520   2.381   4.798   4.203 -2.1328  2.1243 -1.9384
  172TIP3   OH2  521   3.693   1.783   4.990  0.0298 -0.2593 -0.0327
  172TIP3    H1  522   3.762   1.834   4.948 -0.3504  0.5320  0.2797
  172TIP3    H2  523   3.628   1.770   4.922  0.2261 -0.5214 -0.1725
  173TIP3   OH2  524   0.684   4.166   4.436 -0.8828 -0.7446 -0.3339
  173TIP3    H1  525   0.700   4.152   4.343  0.0179 -0.6511 -0.2103
  173TIP3    H2  526   0.709   4.084   4.478 -1.4410 -0.8419 -0.1946
  174TIP3   OH2  527   4.238   1.641   2.809  0.1788  0.9726  0.8001
  174TIP3    H1  528   4.213   1.561   2.855  1.3062 -0.3839 -0.8415
  174TIP3    H2  529   4.161   1.698   2.818 -0.5864 -0.2083  2.1595
  175TIP3   OH2  530   6.111   0.268   3.140  0.2202  0.1721 -0.1841
  175TIP3    H1  531   6.097   0.270   3.046  0.1398  0.4366 -0.1681
  175TIP3    H2  532   6.047   0.331   3.175 -0.6093 -0.8342  0.1579
  176TIP3   OH2  533   4.036   5.087   2.644 -0.5355 -0.2958  0.3536
  176TIP3    H1  534   3.988   5.007   2.618 -0.6663 -0.2196  0.3578
  176TIP3    H2  535   4.105   5.055   2.703  0.9398 -0.7131 -1.5021
  177TIP3   OH2  536   0.036   5.103   2.895  0.3077 -0.2717  0.4600
  177TIP3    H1  537   0.023   5.192   2.862 -0.2223 -0.4392  0.1947
  177TIP3    H2  538  -0.006   5.047   2.830 -0.5116 -0.6317  1.2694
  178TIP3   OH2  539   3.855   1.961   1.100 -0.2479 -0.0272 -0.2174
  178TIP3    H1  540   3.856   1.870   1.072 -2.6160  0.2987 -1.6871
  178TIP3    H2  541   3.943   1.993   1.083  0.9449 -2.2795  1.3499
  179TIP3   OH2  542   5.448   1.712   4.664  0.3968  0.2209 -0.5710
  179TIP3    H1  543   5.425   1.787   4.719  0.6474  0.0049 -0.1639
  179TIP3    H2  544   5.540   1.726   4.643 -0.0134  0.9647 -2.0022
  180TIP3   OH2  545   3.825   4.161   3.893  0.3570 -0.6551 -0.0345
  180TIP3    H1  546   3.903   4.146   3.947 -0.6804 -0.2163  1.6669
  180TIP3    H2  547   3.772   4.082   3.904 -0.8920  0.3157  1.5178
  181TIP3   OH2  548   3.149   1.301   4.409 -0.0552  0.3449 -0.0679
  181TIP3    H1  549   3.130   1.227   4.467 -1.3618  0.4045 -0.3849
  181TIP3    H2  550   3.200   1.263   4.338  1.5020  0.2542  1.0394
  182TIP3   OH2  551   0.275   5.692   1.442  0.2168 -0.0153  0.0303
  182TIP3    H1  552   0.311   5.688   1.531  2.0025 -0.3057 -0.6825
  182TIP3    H2  553   0.250   5.783   1.431 -1.4854 -0.2503  1.3406
  183TIP3   OH2  554   0.899   1.757   2.935  0.0767  0.5057 -0.4444
  183TIP3    H1  555   0.826   1.706   2.971  0.0738  0.4387 -0.5458
  183TIP3    H2  556   0.953   1.692   2.890  0.5450  0.4457  0.1918
  184TIP3   OH2  557   2.357   0.376   0.112  0.1309 -0.0142 -0.2559
  184TIP3    H1  558   2.395   0.289   0.120 -0.4620 -0.2077  0.4992
  184TIP3    H2  559   2.296   0.369   0.039 -0.8455 -0.5828  0.5882
  185TIP3   OH2  560   5.316   4.770   3.981 -0.1138 -0.3409  0.0931
  185TIP3    H1  561   5.240   4.769   3.923  0.2143  0.0537 -0.3549
  185TIP3    H2  562   5.386   4.807   3.927 -0.3076  2.0265  1.3309
  186TIP3   OH2  563   2.044   4.565   0.970  0.0918 -0.1461 -0.0167
  186TIP3    H1  564   1.983   4.608   1.030 -0.5832 -0.2967 -0.5874
  186TIP3    H2  565   2.097   4.509   1.026  0.0337  0.3529  0.5477
  187TIP3   OH2  566   1.865   2.114   0.480  0.3876 -0.0131 -0.7068
  187TIP3    H1  567   1.771   2.100   0.468  0.4522 -0.2710 -0.9179
  187TIP3    H2  568   1.896   2.033   0.522  0.5445 -0.0007 -0.7987
  188TIP3   OH2  569   4.548   1.555   2.830  0.0371  0.4128 -0.0806
  188TIP3    H1  570   4.565   1.646   2.851  0.9933  0.2859 -0.2469
  188TIP3    H2  571   4.497   1.557   2.749 -0.8033  0.8105  0.4412
  189TIP3   OH2  572   1.824   5.923   3.891  0.4175  0.6873  0.1530
  189TIP3    H1  573   1.839   6.008   3.932  0.4421 -0.5180  2.8514
  189TIP3    H2  574   1.904   5.873   3.907 -0.4735 -0.6159  0.7446
  190TIP3   OH2  575   6.019   2.213   2.247  0.5834  0.5697  0.0680
  190TIP3    H1  576   6.018   2.179   2.336 -4.0087 -1.6956 -0.5244
  190TIP3    H2  577   6.005   2.307   2.257 -0.2853  0.3050  1.7704
  191TIP3   OH2  578   1.957   4.275   3.746  0.0542  0.1529 -0.0557
  191TIP3    H1  579   1.960   4.180   3.731  0.7443  0.3386 -1.2520
  191TIP3    H2  580   2.002   4.287   3.830  2.4861 -0.3791 -1.1774
  192TIP3   OH2  581   4.736   1.829   3.942  0.2601 -0.0458 -0.1014
  192TIP3    H1  582   4.652   1.784   3.944 -0.8467  1.6941 -2.8037
  192TIP3    H2  583   4.715   1.921   3.956  1.4008  0.6891 -2.6021
  193TIP3   OH2  584   1.122   4.056   3.481 -0.0698 -0.5246 -0.5857
  193TIP3    H1  585   1.182   4.061   3.555 -1.3774 -0.7095  0.5208
  193TIP3    H2  586   1.162   3.992   3.422  1.1701 -0.1069 -0.2415
  194TIP3   OH2  587   2.201   2.495   1.894 -0.3858 -0.3381 -0.7631
  194TIP3    H1  588   2.207   2.521   1.986  0.2317  0.7530 -1.0964
  194TIP3    H2  589   2.160   2.409   1.896  0.6283 -0.8198  0.6039
  195TIP3   OH2  590   2.849   2.403   4.148 -0.6036  0.4082  0.3026
  195TIP3    H1  591   2.904   2.331   4.180 -1.2936  0.2289  1.1221
  195TIP3    H2  592   2.860   2.472   4.214  1.0659  1.5903 -1.1186
  196TIP3   OH2  593   6.058   3.366   2.869  0.0279 -0.1042  0.2327
  196TIP3    H1  594   6.001   3.406   2.935  0.9343 -1.3839  1.8585
  196TIP3    H2  595   6.064   3.432   2.800 -2.0687  0.7247  0.7679
  197TIP3   OH2  596   5.522   3.438   3.958 -1.0865 -0.2517  0.1133
  197TIP3    H1  597   5.611   3.470   3.949 -1.9754  2.3994 -0.1805
  197TIP3    H2  598   5.525   3.379   4.033  0.4749  1.8446  1.8359
  198TIP3   OH2  599   6.137   3.996   0.694  0.3166 -0.0238  0.4066
  198TIP3    H1  600   6.072   3.990   0.624  1.7149  1.7227 -1.1329
  198TIP3    H2  601   6.093   3.957   0.770 -1.4296 -1.5915 -1.2763
  199TIP3   OH2  602   3.672   0.934   3.865  0.0447  0.4005  0.0220
  199TIP3    H1  603   3.746   0.873   3.868  0.0973  0.4152 -0.8119
  199TIP3    H2  604   3.708   1.016   3.899  1.1799  1.1610 -2.7323
  200TIP3   OH2  605   4.857   5.692   5.132 -0.0783  0.4396 -0.1333
  200TIP3    H1  606   4.884   5.650   5.213  1.9047  0.9894 -0.4658
  200TIP3    H2  607   4.813   5.622   5.083 -2.3907  0.3917  1.8187
  201TIP3   OH2  608   4.228   2.684   0.624 -0.3807  0.4367 -0.1097
  201TIP3    H1  609   4.163   2.731   0.676  0.0818  2.2928 -1.1429
  201TIP3    H2  610   4.224   2.725   0.538  1.0417 -0.5008 -0.6581
  202TIP3   OH2  611   3.641   5.468   2.052 -0.2781  0.0175  0.0551
  202TIP3    H1  612   3.682   5.527   2.115  0.1639 -0.2032 -0.0271
  202TIP3    H2  613   3.576   5.420   2.103  1.4437 -1.6082  0.8185
  203TIP3   OH2  614   3.826   2.952   2.105  0.8129  0.5170 -0.3562
  203TIP3    H1  615   3.792   2.868   2.136  1.6079  0.6036  0.8224
  203TIP3    H2  616   3.755   3.014   2.120  0.8282  0.3667  0.3846
  204TIP3   OH2  617   5.993   3.834   2.521  0.2843  0.3237 -0.1515
  204TIP3    H1  618   5.998   3.911   2.464 -2.5622 -0.8674 -2.2494
  204TIP3    H2  619   6.074   3.786   2.504  0.8421  1.4898 -0.8864
  205TIP3   OH2  620   4.049   3.895   3.860 -0.3065 -0.2184  0.5461
  205TIP3    H1  621   4.130   3.844   3.850  0.0591  0.2965  0.8255
  205TIP3    H2  622   4.028   3.926   3.772  0.6917  0.9719  0.6943
  206TIP3   OH2  623   3.662   1.396   1.680  0.0714  0.2471  0.3971
  206TIP3    H1  624   3.722   1.347   1.736 -0.1057  1.7628  2.0168
  206TIP3    H2  625   3.716   1.426   1.607  0.5222 -1.0262  0.1866
  207TIP3   OH2  626   4.054   2.418   4.209  0.3563 -0.8358 -0.7312
  207TIP3    H1  627   4.090   2.447   4.125  0.5250  0.7170 -0.1485
  207TIP3    H2  628   4.131   2.392   4.260  0.3301 -0.9003 -0.7243
  208TIP3   OH2  629   5.551   2.310   2.735  0.4829 -0.3627 -0.4335
  208TIP3    H1  630   5.483   2.306   2.667  1.1025 -0.8769 -1.0473
  208TIP3    H2  631   5.511   2.358   2.807 -0.4168 -0.3703 -0.9147
  209TIP3   OH2  632   4.479   1.771   2.372 -0.2766  0.5832  0.0038
  209TIP3    H1  633   4.528   1.814   2.301 -1.0963  1.7425  0.1129
  209TIP3    H2  634   4.547   1.729   2.426  0.7702  3.0948  0.8000
  210TIP3   OH2  635   4.662   2.503   0.149  0.3616  0.1567 -0.2591
  210TIP3    H1  636   4.732   2.537   0.093  2.6822 -0.5934  1.9639
  210TIP3    H2  637   4.672   2.408   0.146 -0.6802  0.0281 -0.0235
  211TIP3   OH2  638   2.251   2.721   1.711  0.1001  0.2871  0.1229
  211TIP3    H1  639   2.268   2.654   1.778 -0.1244  0.4037  0.2972
  211TIP3    H2  640   2.272   2.804   1.755  1.1312  0.2874 -0.3354
  212TIP3   OH2  641   1.525   5.477   5.068  0.0207 -0.1948  0.3353
  212TIP3    H1  642   1.515   5.490   4.974  0.7259  1.7023  0.4753
  212TIP3    H2  643   1.546   5.384   5.078 -1.6179 -0.7772 -1.2132
  213TIP3   OH2  644   2.625   3.439   2.896  1.0269  0.0668 -0.3083
  213TIP3    H1  645   2.703   3.491   2.915 -0.0723  1.9672 -0.6973
  213TIP3    H2  646   2.616   3.444   2.801 -0.0576  0.6645 -0.1892
  214TIP3   OH2  647   2.839   4.339   0.126 -0.7089 -0.4965 -0.0154
  214TIP3    H1  648   2.782   4.279   0.175 -1.9356  1.3175  0.8807
  214TIP3    H2  649   2.779   4.394   0.076  0.4067 -0.2169 -1.0916
  215TIP3   OH2  650   5.132   1.530   4.202 -1.0074 -0.1300  0.1666
  215TIP3    H1  651   5.136   1.438   4.175  2.0558  0.2978 -1.1836
  215TIP3    H2  652   5.159   1.529   4.294  0.0295 -0.4880 -0.1353
  216TIP3   OH2  653   5.131   0.045   4.336  0.5781  0.4146  0.4261
  216TIP3    H1  654   5.068   0.115   4.348  1.4563  1.1194  1.1123
  216TIP3    H2  655   5.087  -0.019   4.280 -0.2483  1.4916 -0.1764
  217TIP3   OH2  656   5.133   0.089   0.021  0.2490  0.9873 -0.2812
  217TIP3    H1  657   5.047   0.083  -0.019  0.4035 -1.4212 -0.3538
  217TIP3    H2  658   5.117   0.131   0.106 -0.6384  2.4611 -1.1230
  218TIP3   OH2  659   0.872   0.907   1.485  1.0137 -0.0866  0.5898
  218TIP3    H1  660   0.837   0.867   1.406  0.5671  0.4500  0.5107
  218TIP3    H2  661   0.864   0.839   1.552 -2.6948  0.7878  1.2481
  219TIP3   OH2  662   1.320   0.044   4.001 -0.0287 -0.1267  0.3159
  219TIP3    H1  663   1.376  -0.033   4.010  0.3721 -0.0829 -1.5404
  219TIP3    H2  664   1.381   0.118   3.996 -0.3779  0.2240  0.9769
  220TIP3   OH2  665   1.751   2.533   4.049  0.0868  0.1003 -0.3426
  220TIP3    H1  666   1.696   2.555   3.974  1.1149  0.7688 -0.9314
  220TIP3    H2  667   1.841   2.548   4.018  0.4808  2.0271  1.5307
  221TIP3   OH2  668   0.382   2.065   3.914  0.3365 -0.3824 -0.2701
  221TIP3    H1  669   0.410   2.011   3.988 -1.0013  0.1500  0.6676
  221TIP3    H2  670   0.463   2.101   3.879  0.9744 -0.1654  1.3364
  222TIP3   OH2  671   2.797   4.611   4.663  0.1246 -0.2788  0.0012
  222TIP3    H1  672   2.834   4.543   4.606 -1.5038 -0.6475 -0.6765
  222TIP3    H2  673   2.742   4.563   4.724  1.2899  0.1896  1.4796
  223TIP3   OH2  674   1.580   4.615   2.963 -0.3255  0.5019 -0.2478
  223TIP3    H1  675   1.493   4.620   2.924 -0.9342 -2.8083  0.3911
  223TIP3    H2  676   1.591   4.699   3.009 -1.7800  2.2883 -2.9269
  224TIP3   OH2  677   3.898   0.391   2.567  1.0549  0.0223  0.1206
  224TIP3    H1  678   3.894   0.355   2.655  1.0611  0.3707  0.2639
  224TIP3    H2  679   3.975   0.352   2.528  1.2788  0.1753  0.4088
  225TIP3   OH2  680   4.044   2.898   1.502 -0.1294 -0.3430 -0.0914
  225TIP3    H1  681   3.974   2.960   1.483 -0.1356  0.1182  1.3367
  225TIP3    H2  682   4.071   2.865   1.416 -1.2695  0.3689 -0.7441
  226TIP3   OH2  683   4.643   0.720   3.910  0.4937  0.6227 -0.0556
  226TIP3    H1  684   4.618   0.765   3.829 -0.2949  0.8515  0.3023
  226TIP3    H2  685   4.641   0.789   3.977  1.9832  0.6236  0.0200
  227TIP3   OH2  686   0.424   1.498   0.457 -0.0931  0.4025 -0.5423
  227TIP3    H1  687   0.383   1.451   0.529  2.0006  0.0985  0.5265
  227TIP3    H2  688   0.503   1.537   0.495  0.6388  0.9267 -2.4729
  228TIP3   OH2  689   0.182   1.419   4.324  0.1428 -0.2746  0.1655
  228TIP3    H1  690   0.263   1.451   4.284  1.4430 -2.0100  1.2650
  228TIP3    H2  691   0.126   1.397   4.250 -0.2019  2.8393 -0.6395
  229TIP3   OH2  692   6.059   1.122   0.041 -0.0360  0.2395  0.1623
  229TIP3    H1  693   5.987   1.175   0.075  0.7599  0.5782  1.4097
  229TIP3    H2  694   6.121   1.116   0.114  1.2802  0.1070 -0.9166
  230TIP3   OH2  695   3.875   0.105   4.267 -0.0293  0.3183 -0.3645
  230TIP3    H1  696   3.949   0.044   4.270 -0.5657 -0.3247 -0.0570
  230TIP3    H2  697   3.837   0.092   4.180 -2.4128 -2.5637  0.9395
  231TIP3   OH2  698   3.926   4.268   4.826 -0.1003 -0.1378  0.3796
  231TIP3    H1  699   3.989   4.220   4.879 -0.6074  0.1809  1.2927
  231TIP3    H2  700   3.844   4.263   4.875 -0.1351  1.7811  0.5982
  232TIP3   OH2  701   4.971   0.468   0.610  0.1451 -0.4192 -0.1013
  232TIP3    H1  702   4.931   0.554   0.596  0.3213 -0.6725 -2.5137
  232TIP3    H2  703   4.947   0.446   0.700 -2.8673  0.6293 -0.5283
  233TIP3   OH2  704   6.137   4.292   0.693 -0.0649 -0.6241  0.2897
  233TIP3    H1  705   6.166   4.218   0.640 -0.2693 -0.9311  0.6029
  233TIP3    H2  706   6.067   4.257   0.748 -0.2688 -0.1596  0.3316
  234TIP3   OH2  707   2.460   2.623   2.453  0.2633  0.2496 -0.3949
  234TIP3    H1  708   2.389   2.567   2.487 -2.0485  2.5633 -1.0558
  234TIP3    H2  709   2.443   2.709   2.492  3.8607  0.5484  0.8167
  235TIP3   OH2  710   1.263   2.295   2.290 -0.0121  0.6604 -0.3137
  235TIP3    H1  711   1.238   2.360   2.355 -0.2395  0.4569 -0.1959
  235TIP3    H2  712   1.277   2.345   2.209 -1.0218  0.7534 -0.4448
  236TIP3   OH2  713   2.699   2.958   4.700  0.1414  0.0106 -0.6702
  236TIP3    H1  714   2.653   3.042   4.701 -0.7993 -0.4838 -1.0793
  236TIP3    H2  715   2.750   2.958   4.781 -0.3225  0.7254 -0.3654
  237TIP3   OH2  716   2.397   4.218   4.526  0.4676  0.1292 -0.5248
  237TIP3    H1  717   2.351   4.203   4.608  0.6179 -0.3934 -0.5372
  237TIP3    H2  718   2.419   4.311   4.528  1.5669 -0.1338  0.5831
  238TIP3   OH2  719   4.943   5.568   4.041 -0.4399  0.3916 -0.3815
  238TIP3    H1  720   4.894   5.603   4.116  1.4897  1.0805  0.6171
  238TIP3    H2  721   4.914   5.477   4.034 -0.1648  0.0836  1.6766
  239TIP3   OH2  722   3.620   4.161   4.546 -0.0912 -0.8338 -0.1408
  239TIP3    H1  723   3.704   4.122   4.524 -0.5152 -1.8277 -0.0622
  239TIP3    H2  724   3.571   4.161   4.463 -0.2192 -0.7805 -0.0658
  240TIP3   OH2  725   4.151   2.909   1.057 -0.5941  0.4482 -0.5003
  240TIP3    H1  726   4.116   2.938   1.141  1.7361  0.3130  0.5892
  240TIP3    H2  727   4.237   2.950   1.051 -0.9545  1.0306 -3.1919
  241TIP3   OH2  728   0.305   1.921   1.849  0.4668  0.5425 -0.6265
  241TIP3    H1  729   0.235   1.961   1.797 -0.3709 -0.0007  0.0614
  241TIP3    H2  730   0.353   1.996   1.885 -1.8053  1.0519  1.6293
  242TIP3   OH2  731   6.086   4.598   2.010  0.6058  0.2030  0.2260
  242TIP3    H1  732   6.138   4.518   2.013  0.0987 -0.1822 -0.7590
  242TIP3    H2  733   5.996   4.567   2.020  0.4247  0.6752  0.0414
  243TIP3   OH2  734   0.002   1.146   2.329  0.0392  0.1509 -0.4052
  243TIP3    H1  735   0.060   1.209   2.288  2.0521 -3.4075 -3.7216
  243TIP3    H2  736   0.060   1.092   2.384 -0.9047 -0.8416 -0.3449
  244TIP3   OH2  737   5.684   5.108   5.081  0.0218  0.0312  0.5335
  244TIP3    H1  738   5.700   5.175   5.147 -0.9993  0.9756 -0.1283
  244TIP3    H2  739   5.748   5.127   5.012 -0.4863  0.5598  0.1958
  245TIP3   OH2  740   0.364   1.518   0.155  0.6630 -0.6991 -0.7054
  245TIP3    H1  741   0.344   1.501   0.247 -0.3504  0.2061 -0.7435
  245TIP3    H2  742   0.444   1.570   0.157 -0.6260  1.4065 -0.1601
  246TIP3   OH2  743   1.577   2.360   2.977 -0.1661 -0.1121  0.0876
  246TIP3    H1  744   1.562   2.374   2.883 -0.5591 -0.0180  0.1628
  246TIP3    H2  745   1.512   2.416   3.020 -0.3045 -0.5178  0.4100
  247TIP3   OH2  746   2.023   0.015   4.686 -0.5363  0.3662 -0.0157
  247TIP3    H1  747   2.052   0.010   4.595  2.3959  1.0181  0.7799
  247TIP3    H2  748   2.005   0.108   4.700  3.4295  1.1712  1.1171
  248TIP3   OH2  749   3.612   3.965   3.928  0.0438  0.6416  0.2405
  248TIP3    H1  750   3.534   4.020   3.929 -0.5760 -0.1048 -1.7832
  248TIP3    H2  751   3.586   3.887   3.879  2.0070  0.2873 -0.3266
  249TIP3   OH2  752   4.089   4.067   4.055  0.3006  0.3118 -0.3194
  249TIP3    H1  753   4.166   4.116   4.030  1.0459  0.0660  1.3750
  249TIP3    H2  754   4.083   3.996   3.990 -1.0080  2.6885 -3.0267
  250TIP3   OH2  755   0.235   3.520   0.232  0.3766  0.0843  0.1199
  250TIP3    H1  756   0.286   3.600   0.245  1.1676 -0.0590 -1.8145
  250TIP3    H2  757   0.267   3.461   0.300  1.6371  0.5480 -0.0393
  251TIP3   OH2  758   5.789   1.795   2.720 -0.1863  0.1206 -0.4952
  251TIP3    H1  759   5.810   1.715   2.769 -0.1730  0.3279 -0.1617
  251TIP3    H2  760   5.725   1.766   2.655  1.1360 -0.5376 -1.5544
  252TIP3   OH2  761   5.256   1.888   5.016 -0.5387 -0.1813 -0.7963
  252TIP3    H1  762   5.336   1.866   5.063 -1.4066 -1.6555  0.0718
  252TIP3    H2  763   5.214   1.955   5.071 -0.0701  0.3669 -1.0953
  253TIP3   OH2  764   2.280   2.728   3.734 -0.0415 -0.5237 -0.1969
  253TIP3    H1  765   2.319   2.694   3.653 -1.5817 -0.2561 -1.0800
  253TIP3    H2  766   2.303   2.821   3.734 -1.1228 -0.2386 -1.0156
  254TIP3   OH2  767   0.464   0.275   1.107  0.0247  0.2015  0.2054
  254TIP3    H1  768   0.391   0.281   1.169  0.4504 -1.0369  0.8502
  254TIP3    H2  769   0.427   0.306   1.024 -0.5173  1.9977  1.0683
  255TIP3   OH2  770   0.948   2.138   2.710  0.2222 -0.3151 -0.2499
  255TIP3    H1  771   0.947   2.234   2.714 -1.9464 -0.2101 -1.6629
  255TIP3    H2  772   0.970   2.118   2.620  0.7095 -1.1580  0.0491
  256TIP3   OH2  773   2.623   0.288   4.366  0.4396 -0.1058 -0.2832
  256TIP3    H1  774   2.678   0.212   4.346  1.8628  0.5270  1.0176
  256TIP3    H2  775   2.683   0.351   4.406 -1.5043  0.0013  2.7469
  257TIP3   OH2  776   1.228   2.395   0.654  0.3724 -0.0076 -0.1748
  257TIP3    H1  777   1.163   2.440   0.708 -1.4844  0.6116 -2.7472
  257TIP3    H2  778   1.256   2.321   0.708 -3.3224 -0.9587  0.7017
  258TIP3   OH2  779   1.419   5.696   2.303  0.1282 -0.2778 -0.1062
  258TIP3    H1  780   1.488   5.711   2.368  0.7184  1.7148 -1.1266
  258TIP3    H2  781   1.456   5.728   2.221 -0.2087 -3.6276 -1.7289
  259TIP3   OH2  782   2.118   3.521   2.355 -0.5711  0.1766  0.0509
  259TIP3    H1  783   2.068   3.574   2.293 -0.9127 -0.7972 -0.5417
  259TIP3    H2  784   2.111   3.432   2.320 -1.6742 -0.5780  2.0655
  260TIP3   OH2  785   1.401   4.960   3.854 -0.0335 -0.2483  0.3925
  260TIP3    H1  786   1.459   4.959   3.930  2.5524 -1.7453 -1.4461
  260TIP3    H2  787   1.425   5.039   3.806 -1.1966  0.3445  0.7546
  261TIP3   OH2  788   5.199   3.881   3.786  0.0420  0.9015  0.2925
  261TIP3    H1  789   5.166   3.943   3.851  0.2431  1.2749  0.0455
  261TIP3    H2  790   5.266   3.831   3.832 -1.9681 -1.0177  1.3006
  262TIP3   OH2  791   1.514   3.732   1.843  0.2635 -0.6487  0.1398
  262TIP3    H1  792   1.421   3.715   1.828  0.5838 -0.3219 -2.8987
  262TIP3    H2  793   1.517   3.824   1.870 -0.2631 -0.3550 -0.7453
  263TIP3   OH2  794   2.735   2.975   1.800 -0.2612 -0.1848 -1.3289
  263TIP3    H1  795   2.675   2.923   1.747 -0.5245 -1.9847  0.5807
  263TIP3    H2  796   2.796   2.912   1.837  0.7649  1.1681 -0.5931
  264TIP3   OH2  797   4.011   3.756   0.300 -0.0856  0.0288  0.5141
  264TIP3    H1  798   3.925   3.796   0.315 -0.4476 -0.5582  0.0845
  264TIP3    H2  799   4.066   3.790   0.371 -0.7831  0.0901  1.0455
  265TIP3   OH2  800   4.983   3.320   1.399 -0.5047 -0.4259 -0.2557
  265TIP3    H1  801   4.974   3.342   1.491  0.1459  0.6209 -0.4306
  265TIP3    H2  802   4.895   3.329   1.363 -0.7271 -0.6703  0.2205
  266TIP3   OH2  803   5.514   2.886   3.970  0.3756 -0.6832 -0.1389
  266TIP3    H1  804   5.540   2.966   3.924  2.8674  1.1265  3.8260
  266TIP3    H2  805   5.431   2.909   4.012  0.1721 -0.8734 -0.4308
  267TIP3   OH2  806   2.119   4.309   3.963  0.2567 -0.0205  0.5247
  267TIP3    H1  807   2.199   4.362   3.969 -0.1524  0.7875 -0.6655
  267TIP3    H2  808   2.089   4.301   4.053 -0.9777  3.9329  0.6678
  268TIP3   OH2  809   6.110   1.834   1.083 -0.1581  0.8084  0.1534
  268TIP3    H1  810   6.102   1.924   1.115  0.8311  1.3953 -1.1849
  268TIP3    H2  811   6.139   1.785   1.160 -1.1306  1.5327  1.0133
  269TIP3   OH2  812   3.272   1.087   1.513 -0.1336 -0.8732 -0.4978
  269TIP3    H1  813   3.335   1.016   1.530  0.5224 -0.0598  0.6132
  269TIP3    H2  814   3.320   1.167   1.537 -1.9846 -0.3012  1.5980
  270TIP3   OH2  815   3.090   5.747   1.967  0.1896 -0.7788  0.2269
  270TIP3    H1  816   3.065   5.775   1.879  0.9521 -0.3552  0.1322
  270TIP3    H2  817   3.020   5.688   1.995 -2.1407  2.1340  0.9339
  271TIP3   OH2  818   6.042   0.509   4.938  0.5644  0.1950 -0.2679
  271TIP3    H1  819   6.002   0.524   4.852  0.8044  0.0787 -0.3988
  271TIP3    H2  820   6.066   0.417   4.937 -0.5502 -0.1233  0.3893
  272TIP3   OH2  821   0.268   5.584   4.985 -0.0378 -0.6563 -0.1255
  272TIP3    H1  822   0.302   5.495   4.981  0.9296 -0.3411  0.4850
  272TIP3    H2  823   0.302   5.627   4.907 -1.3844 -1.0881 -0.9820
  273TIP3   OH2  824   2.093   5.603   1.019  0.7648 -0.2981  0.4050
  273TIP3    H1  825   2.023   5.562   0.968  0.8541  1.1734 -1.0142
  273TIP3    H2  826   2.171   5.593   0.964  0.8300  1.5036  0.1252
  274TIP3   OH2  827   4.153   0.479   0.630  0.0994  0.2963 -0.3482
  274TIP3    H1  828   4.158   0.515   0.541 -0.7456  2.1057  0.2910
  274TIP3    H2  829   4.244   0.480   0.661  0.2089  1.0955 -0.6648
  275TIP3   OH2  830   4.263   1.881   0.665  0.5814 -0.0882 -0.0097
  275TIP3    H1  831   4.343   1.913   0.621  0.0216  0.6988 -0.4952
  275TIP3    H2  832   4.279   1.788   0.680  1.0229 -0.2621 -1.4068
  276TIP3   OH2  833   1.555   2.325   1.411  0.3593  0.0849 -0.1521
  276TIP3    H1  834   1.543   2.413   1.448  0.5324  0.1644 -0.2876
  276TIP3    H2  835   1.590   2.273   1.484  0.8999  0.2920 -0.2621
  277TIP3   OH2  836   1.112   1.735   4.626 -0.1557  0.5510 -0.1240
  277TIP3    H1  837   1.204   1.747   4.648 -0.1609  2.8557 -1.0621
  277TIP3    H2  838   1.077   1.681   4.697  2.3077 -2.2246 -0.8360
  278TIP3   OH2  839   5.096   3.197   3.355  0.0844 -0.0039 -0.1766
  278TIP3    H1  840   5.120   3.104   3.352  2.9289  0.6350 -0.1842
  278TIP3    H2  841   5.030   3.207   3.286  1.0746 -1.6775 -1.4460
  279TIP3   OH2  842   1.150   0.437   0.452 -0.1038 -0.0539  0.0322
  279TIP3    H1  843   1.139   0.343   0.468 -1.4833  0.2879  1.2606
  279TIP3    H2  844   1.081   0.479   0.503 -0.0624  1.5992 -1.1706
  280TIP3   OH2  845   3.887   4.918   1.362 -0.0538  0.2027  0.7786
  280TIP3    H1  846   3.918   5.006   1.341  1.9993  0.1149  3.0310
  280TIP3    H2  847   3.794   4.920   1.339 -0.0336  2.8964  0.5921
  281TIP3   OH2  848   1.412   5.301   0.845 -0.2946  0.3587  0.5897
  281TIP3    H1  849   1.345   5.284   0.911  0.5574 -1.3712  1.0594
  281TIP3    H2  850   1.479   5.352   0.890 -0.0729 -0.1697  0.8676
  282TIP3   OH2  851   3.946   0.659   1.798 -0.2045  0.0030 -0.5214
  282TIP3    H1  852   3.979   0.730   1.855  0.5080 -1.2751  0.7396
  282TIP3    H2  853   3.983   0.679   1.712 -0.6320  1.5506 -0.3859
  283TIP3   OH2  854   2.860   5.731   0.839  0.1101  0.2151 -0.0265
  283TIP3    H1  855   2.778   5.766   0.803 -0.4726 -0.9238  0.1342
  283TIP3    H2  856   2.926   5.751   0.773 -0.1060  1.8991  0.2151
  284TIP3   OH2  857   0.956   1.421   0.112 -0.6177  0.2745 -0.1943
  284TIP3    H1  858   0.860   1.421   0.116 -0.6677  2.9986  0.9293
  284TIP3    H2  859   0.976   1.445   0.022 -0.9397 -0.7311 -0.5524
  285TIP3   OH2  860   3.690   1.554   3.890  0.4248  0.7552 -0.2410
  285TIP3    H1  861   3.751   1.482   3.908  0.1493  0.4076 -0.6829
  285TIP3    H2  862   3.685   1.602   3.972  0.1228 -0.0996  0.2557
  286TIP3   OH2  863   1.081   5.494   1.691  0.2560  0.1051  0.0454
  286TIP3    H1  864   1.140   5.558   1.732 -1.6744  2.0788 -0.0904
  286TIP3    H2  865   1.054   5.436   1.763 -0.7651  1.6958  1.0023
  287TIP3   OH2  866   2.941   5.323   1.274  0.1542  0.1206 -0.7175
  287TIP3    H1  867   2.891   5.401   1.251 -0.5251  0.2807  1.1775
  287TIP3    H2  868   2.894   5.285   1.348  1.1541 -1.4248 -0.8297
  288TIP3   OH2  869   2.107   2.839   0.524  0.0992 -0.2224  0.3175
  288TIP3    H1  870   2.113   2.760   0.577 -1.2793 -0.2303  0.4905
  288TIP3    H2  871   2.032   2.824   0.467 -0.2150  0.9825  0.3900
  289TIP3   OH2  872   3.353   5.278   2.468 -0.2447 -0.0686  0.4479
  289TIP3    H1  873   3.435   5.302   2.426 -0.5416  1.5415  0.7236
  289TIP3    H2  874   3.310   5.362   2.487 -1.9322 -0.8618  0.3372
  290TIP3   OH2  875   4.659   1.779   2.589 -0.3640 -0.4174  0.3997
  290TIP3    H1  876   4.606   1.856   2.567  0.2034 -0.1783 -0.1808
  290TIP3    H2  877   4.672   1.784   2.683 -2.0104 -0.8999  0.6790
  291TIP3   OH2  878   3.179   3.417   0.775 -1.3093  0.4718  0.3107
  291TIP3    H1  879   3.125   3.483   0.818 -1.5431  0.7807 -0.4447
  291TIP3    H2  880   3.236   3.384   0.845 -1.1985  1.4516  0.7041
  292TIP3   OH2  881   3.384   1.419   1.574  0.1951 -0.3294 -0.1404
  292TIP3    H1  882   3.420   1.367   1.502  0.1242 -1.8711  0.8991
  292TIP3    H2  883   3.460   1.443   1.627 -0.0749 -2.2933  1.2213
  293TIP3   OH2  884   3.254   3.444   2.018  0.0154  0.4177 -0.4708
  293TIP3    H1  885   3.224   3.503   1.948  1.3362  2.8324  0.8728
  293TIP3    H2  886   3.190   3.455   2.088 -1.7380 -2.5734 -1.3942
  294TIP3   OH2  887   2.949   3.565   4.929  0.3280  0.1128  0.2290
  294TIP3    H1  888   3.027   3.569   4.874  0.7119 -0.7589  0.6946
  294TIP3    H2  889   2.908   3.481   4.908 -1.6506  1.4215 -1.5290
  295TIP3   OH2  890   5.089   4.036   0.092 -0.0817  1.0464 -0.6649
  295TIP3    H1  891   5.019   4.086   0.133  0.4144 -0.2413  1.9256
  295TIP3    H2  892   5.043   3.971   0.038 -0.9847 -0.0257  1.2780
  296TIP3   OH2  893   3.775   3.401   2.780  0.0316 -0.5298  0.6926
  296TIP3    H1  894   3.841   3.468   2.763 -2.2352  1.4641 -0.6967
  296TIP3    H2  895   3.797   3.331   2.718 -0.2626  0.9530 -1.1664
  297TIP3   OH2  896   3.536   5.532   5.082 -0.0930  0.1676  0.1111
  297TIP3    H1  897   3.566   5.586   5.009 -1.3543 -0.5708 -1.0059
  297TIP3    H2  898   3.450   5.569   5.105  0.0878  0.1035  0.9208
  298TIP3   OH2  899   3.598   0.456   2.883 -0.6291 -0.1691  0.6962
  298TIP3    H1  900   3.578   0.543   2.849 -1.0837 -0.9879 -1.2352
  298TIP3    H2  901   3.546   0.449   2.964  0.3632  1.7647  1.5695
  299TIP3   OH2  902   3.112   5.410   4.302 -0.7752  0.7614  0.1445
  299TIP3    H1  903   3.130   5.426   4.394 -2.1302  0.6589  0.4523
  299TIP3    H2  904   3.027   5.451   4.287 -1.4569 -0.8074 -0.5700
  300TIP3   OH2  905   3.390   3.959   4.583  0.2554 -0.5889 -0.3091
  300TIP3    H1  906   3.449   3.946   4.508 -0.0123  0.2669 -0.6802
  300TIP3    H2  907   3.365   4.051   4.578 -1.4260 -1.0139 -0.3937
  301TIP3   OH2  908   1.091   1.135   2.618 -0.2435 -0.1111 -0.0701
  301TIP3    H1  909   1.014   1.176   2.579 -0.5778 -0.4278  0.2467
  301TIP3    H2  910   1.057   1.091   2.696  0.0095 -1.4272 -0.6797
  302TIP3   OH2  911   5.931   4.330   5.117  0.2504  0.1008 -0.4074
  302TIP3    H1  912   5.975   4.412   5.094  0.4858  0.3060  0.7221
  302TIP3    H2  913   5.983   4.294   5.189 -0.3035 -0.6491 -0.3707
  303TIP3   OH2  914   2.940   0.541   1.348  0.6433  0.5438  0.4480
  303TIP3    H1  915   2.902   0.563   1.433  0.3586 -1.6451  0.9484
  303TIP3    H2  916   2.901   0.604   1.288 -1.6908  0.1175  1.4121
  304TIP3   OH2  917   2.221   2.917   1.016 -0.5375 -0.0475  0.7377
  304TIP3    H1  918   2.267   2.990   0.974  1.7770 -0.9277  1.6142
  304TIP3    H2  919   2.145   2.902   0.959 -0.4723  2.2733 -0.0895
  305TIP3   OH2  920   5.071   1.624   0.447 -0.0583 -0.2140  0.5866
  305TIP3    H1  921   5.151   1.666   0.480  0.2260  0.6273 -1.1045
  305TIP3    H2  922   5.102   1.548   0.399 -0.4678 -1.3268  1.9946
  306TIP3   OH2  923   5.449   4.816   1.653 -0.2764 -0.5433 -0.1323
  306TIP3    H1  924   5.431   4.733   1.696  1.0055 -0.5891  0.3673
  306TIP3    H2  925   5.544   4.827   1.661 -0.4662  1.1384  0.1099
  307TIP3   OH2  926   0.883   3.755   2.774  0.5004  0.0186 -0.1023
  307TIP3    H1  927   0.960   3.727   2.825  0.5156 -1.3208 -0.8065
  307TIP3    H2  928   0.885   3.700   2.696 -1.8169 -0.9319  0.4019
  308TIP3   OH2  929   5.196   5.051   1.860 -0.5541 -0.2588 -0.6776
  308TIP3    H1  930   5.141   5.023   1.933 -1.1495  0.3084 -0.9016
  308TIP3    H2  931   5.239   5.130   1.892 -0.0531 -0.5597 -0.5944
  309TIP3   OH2  932   1.244   0.867   1.092  0.1850 -0.1469 -0.6561
  309TIP3    H1  933   1.297   0.945   1.084 -1.8673  1.4323  0.1997
  309TIP3    H2  934   1.186   0.869   1.016  0.1909 -0.8947 -0.6874
  310TIP3   OH2  935   1.322   1.577   3.070 -0.2573  0.2821 -0.2253
  310TIP3    H1  936   1.274   1.623   3.002 -1.2099  0.7430  0.7208
  310TIP3    H2  937   1.379   1.644   3.109  0.3988 -0.0159 -0.6597
  311TIP3   OH2  938   2.839   3.264   4.494  0.1403 -0.0088  0.7184
  311TIP3    H1  939   2.798   3.329   4.552 -2.6633  0.2871 -1.4042
  311TIP3    H2  940   2.923   3.303   4.470 -1.7948  3.4776 -1.2337
  312TIP3   OH2  941   3.982   0.913   0.230 -0.3266 -0.4863  0.6696
  312TIP3    H1  942   4.070   0.914   0.266  0.2023 -0.3256 -0.5520
  312TIP3    H2  943   3.977   0.831   0.181 -0.5153 -0.0603 -0.0412
  313TIP3   OH2  944   2.240   4.796   1.608  0.0781  0.0700  0.1254
  313TIP3    H1  945   2.183   4.766   1.537  0.2369  0.0827 -0.0100
  313TIP3    H2  946   2.196   4.769   1.688  0.4799 -1.0164 -0.0028
  314TIP3   OH2  947   5.343   0.601   4.056  0.0711 -0.1624  0.4743
  314TIP3    H1  948   5.271   0.575   4.115 -0.3333  0.5959  0.3251
  314TIP3    H2  949   5.367   0.520   4.011 -0.7454 -0.4137  0.4696
  315TIP3   OH2  950   1.933   5.341   2.883  0.9590 -0.5812 -0.4295
  315TIP3    H1  951   1.938   5.394   2.804  0.1919  0.5956  0.2813
  315TIP3    H2  952   1.966   5.397   2.953  0.7575 -1.2685  0.2405
  316TIP3   OH2  953   3.241   5.175   1.627  0.1071  0.2652  0.1693
  316TIP3    H1  954   3.180   5.215   1.689  0.5264 -1.9254  2.1294
  316TIP3    H2  955   3.327   5.182   1.669  0.7075  0.3709 -1.0240
  317TIP3   OH2  956   3.858   4.516   1.300  0.5583 -0.3702 -0.0653
  317TIP3    H1  957   3.884   4.426   1.283 -0.3792 -0.3654 -1.8433
  317TIP3    H2  958   3.922   4.569   1.253  1.9725  0.0090  2.1609
  318TIP3   OH2  959   5.913   0.297   1.716  0.0568  0.6405 -0.0824
  318TIP3    H1  960   5.847   0.230   1.735 -0.0513  0.7993  0.1000
  318TIP3    H2  961   5.996   0.248   1.715 -0.1562  0.2656 -1.2839
  319TIP3   OH2  962   3.305   0.650   5.018 -0.0898  0.2137  0.0362
  319TIP3    H1  963   3.225   0.626   5.066  0.6559  0.6041  1.5181
  319TIP3    H2  964   3.352   0.567   5.007 -0.2565  0.1261 -0.0322
  320TIP3   OH2  965   3.936   1.510   0.903  0.1665  0.9774  0.1909
  320TIP3    H1  966   4.029   1.488   0.899  0.3393  1.5876  0.6727
  320TIP3    H2  967   3.895   1.434   0.943  0.4801  0.7619  0.1081
  321TIP3   OH2  968   4.241   2.749   0.355 -0.3370  0.1445  0.1291
  321TIP3    H1  969   4.199   2.671   0.319 -0.7374  0.6091 -0.4193
  321TIP3    H2  970   4.325   2.754   0.309  0.3127 -0.7340  1.1624
  322TIP3   OH2  971   4.804   0.834   2.423  0.6276 -0.1816  0.3000
  322TIP3    H1  972   4.733   0.869   2.370  0.5294  0.0976  0.6166
  322TIP3    H2  973   4.883   0.849   2.371  0.8750  2.3479  1.2633
  323TIP3   OH2  974   5.833   4.049   0.201 -0.8689  0.1063 -0.3866
  323TIP3    H1  975   5.746   4.052   0.161 -0.7455 -0.3183 -0.6977
  323TIP3    H2  976   5.824   3.987   0.274 -0.6510 -0.5112 -0.8730
  324TIP3   OH2  977   1.516   1.132   5.117 -0.1995  0.0843  0.1299
  324TIP3    H1  978   1.488   1.048   5.153 -0.8217  0.1390 -0.2131
  324TIP3    H2  979   1.443   1.161   5.063  0.2306  0.5830 -0.2029
  325TIP3   OH2  980   5.797   1.732   3.800 -0.3281 -0.6007  0.0280
  325TIP3    H1  981   5.748   1.736   3.718  0.6310 -0.1318 -0.5391
  325TIP3    H2  982   5.885   1.705   3.773 -0.0157 -0.4701  0.9072
  326TIP3   OH2  983   2.460   4.209   1.660  0.0812 -0.0855  0.1814
  326TIP3    H1  984   2.522   4.159   1.712 -1.3339 -1.8323  0.2746
  326TIP3    H2  985   2.382   4.215   1.715 -0.0939  1.5202 -0.1835
  327TIP3   OH2  986   6.079   1.427   3.950 -0.0034  0.1730 -0.4247
  327TIP3    H1  987   5.996   1.381   3.941  0.0355  0.1173 -0.5003
  327TIP3    H2  988   6.068   1.506   3.897  0.8168 -0.9568 -2.4120
  328TIP3   OH2  989   4.491   5.782   0.314  0.4102  0.4123 -0.5308
  328TIP3    H1  990   4.580   5.808   0.340  0.9379 -1.1495 -0.6589
  328TIP3    H2  991   4.445   5.768   0.396  0.9798 -0.9509 -0.4178
  329TIP3   OH2  992   5.690   0.882   1.590  0.0803  0.7682 -0.6976
  329TIP3    H1  993   5.648   0.955   1.636 -0.5206  1.2978 -2.0123
  329TIP3    H2  994   5.618   0.837   1.546  0.5351 -0.2075 -0.4693
  330TIP3   OH2  995   0.999   1.093   3.475  0.1570  0.6336  0.2069
  330TIP3    H1  996   1.068   1.086   3.409 -0.3119  1.5927 -0.4132
  330TIP3    H2  997   1.045   1.090   3.559  0.7957 -0.2815 -0.1642
  331TIP3   OH2  998   2.961   4.963  -0.011 -0.5156 -0.6499 -0.2824
  331TIP3    H1  999   2.895   5.031  -0.022  0.9915  0.9409  0.1180
  331TIP3    H2 1000   2.944   4.927   0.076 -0.7848 -0.1520 -0.1241
  332TIP3   OH2 1001   3.228   0.275   4.655  0.4371 -0.3006  0.3727
  332TIP3    H1 1002   3.314   0.316   4.646  0.4436  0.4071  2.8983
  332TIP3    H2 1003   3.191   0.313   4.735 -0.2557 -3.9316  2.0065
  333TIP3   OH2 1004   3.870   2.647   0.906  0.2867 -0.5653 -0.3677
  333TIP3    H1 1005   3.775   2.633   0.897  0.0009  0.5695  0.6449
  333TIP3    H2 1006   3.888   2.626   0.998  0.7792  0.4740 -0.2216
  334TIP3   OH2 1007   5.080   5.744   4.723 -0.7775 -0.3675 -0.5495
  334TIP3    H1 1008   5.145   5.794   4.773 -1.4917 -0.8383  0.9048
  334TIP3    H2 1009   5.131   5.674   4.682 -0.5507 -1.8719  2.0857
  335TIP3   OH2 1010   0.519   5.480   3.755  0.1189  0.3636  0.4440
  335TIP3    H1 1011   0.468   5.454   3.678 -2.0167  0.7946  1.6150
  335TIP3    H2 1012   0.455   5.481   3.827  1.9859  0.1455  2.2100
  336TIP3   OH2 1013   5.035   3.757   0.235  0.8558 -0.1025 -0.1622
  336TIP3    H1 1014   4.992   3.840   0.253  0.0779  0.0109 -2.3059
  336TIP3    H2 1015   5.030   3.709   0.318 -0.0853  1.3678  0.6668
  337TIP3   OH2 1016   0.903   0.562   0.587 -0.2956  0.1386 -0.2338
  337TIP3    H1 1017   0.860   0.477   0.599 -1.1658  0.4865 -0.7835
  337TIP3    H2 1018   0.848   0.607   0.522  1.0572  0.4849 -1.1760
  338TIP3   OH2 1019   5.619   2.544   4.588  0.2282 -0.0034  0.1480
  338TIP3    H1 1020   5.531   2.579   4.600 -0.6531 -2.5942  2.0633
  338TIP3    H2 1021   5.607   2.472   4.526  1.3634  0.7077 -0.9435
  339TIP3   OH2 1022   0.702   2.664   4.276  0.8710  0.1461 -0.4615
  339TIP3    H1 1023   0.695   2.585   4.329  0.7911 -0.6611 -1.6147
  339TIP3    H2 1024   0.612   2.686   4.253  0.6995  1.8785  1.6290
  340TIP3   OH2 1025   3.168   2.557   3.836 -0.3043  0.2770 -0.0873
  340TIP3    H1 1026   3.253   2.575   3.795 -0.1568  1.9857  0.8984
  340TIP3    H2 1027   3.165   2.462   3.842  0.5746  0.0590 -2.1232
  341TIP3   OH2 1028   3.267   2.903   3.391  0.3408  0.5262  0.5847
  341TIP3    H1 1029   3.313   2.953   3.322  1.0155  1.1342  1.4515
  341TIP3    H2 1030   3.308   2.932   3.472  0.4934 -1.1912  1.1489
  342TIP3   OH2 1031   3.311   0.569   2.787  0.1432 -0.1501  0.4135
  342TIP3    H1 1032   3.388   0.620   2.762  1.2704 -1.2931  1.4289
  342TIP3    H2 1033   3.346   0.486   2.818 -1.5918 -1.3422 -0.5925
  343TIP3   OH2 1034   2.421   1.921   4.467  0.1242 -0.1789 -0.3405
  343TIP3    H1 1035   2.486   1.912   4.536 -0.5000  1.6766  0.5613
  343TIP3    H2 1036   2.465   1.972   4.399 -0.2258  0.7212  0.0912
  344TIP3   OH2 1037   5.789   1.529  -0.006 -0.3684 -0.4629 -1.2065
  344TIP3    H1 1038   5.696   1.514   0.010 -0.2315  0.3495  0.5848
  344TIP3    H2 1039   5.829   1.442   0.003 -0.5502 -0.3432  1.5185
  345TIP3   OH2 1040   5.724   1.775   4.675 -0.1087 -0.3071  0.5727
  345TIP3    H1 1041   5.792   1.740   4.618 -0.1373 -0.5722  0.6975
  345TIP3    H2 1042   5.770   1.805   4.753 -0.0768 -0.0053  0.4373
  346TIP3   OH2 1043   1.806   5.620   1.516 -0.2202  0.1345  0.0607
  346TIP3    H1 1044   1.886   5.636   1.566 -0.6771 -1.5600  1.4438
  346TIP3    H2 1045   1.835   5.614   1.425  1.0117  0.8700  0.3848
  347TIP3   OH2 1046   3.699   5.239   1.896  0.2157  0.0732 -0.3727
  347TIP3    H1 1047   3.685   5.167   1.958 -1.1316 -0.2434 -1.0123
  347TIP3    H2 1048   3.705   5.317   1.951 -0.9201 -0.2076  0.1926
  348TIP3   OH2 1049   2.616   3.227   1.278  0.2242 -0.0163 -0.4096
  348TIP3    H1 1050   2.624   3.304   1.222  1.7134 -0.0875 -0.3207
  348TIP3    H2 1051   2.566   3.164   1.226  2.7255 -0.6050 -2.2625
  349TIP3   OH2 1052   6.161   2.402   3.516 -0.3994  0.1147 -0.4942
  349TIP3    H1 1053   6.094   2.400   3.585  1.3480  0.3165  1.2867
  349TIP3    H2 1054   6.121   2.355   3.442 -1.8630 -1.2390  1.0816
  350TIP3   OH2 1055   5.945   5.597   4.857 -0.0224  0.0518 -0.6460
  350TIP3    H1 1056   5.987   5.666   4.804 -1.3859 -1.0611 -3.3860
  350TIP3    H2 1057   5.869   5.571   4.805 -2.1395 -0.4480  2.4505
  351TIP3   OH2 1058   4.944   0.671   2.044 -0.4289 -0.1834 -0.2260
  351TIP3    H1 1059   4.961   0.749   1.992  1.8971 -1.3353 -1.3342
  351TIP3    H2 1060   4.920   0.604   1.980 -1.7377 -0.5749  0.6375
  352TIP3   OH2 1061   6.229   0.653   1.502 -0.4724 -0.4041  0.5215
  352TIP3    H1 1062   6.185   0.737   1.484 -0.6752 -0.2112  1.8684
  352TIP3    H2 1063   6.315   0.662   1.461 -1.1503 -0.2539 -0.9423
  353TIP3   OH2 1064   2.417   3.926   0.221 -0.4309  0.3265  0.5060
  353TIP3    H1 1065   2.499   3.892   0.184  0.8888  0.8220  2.8146
  353TIP3    H2 1066   2.384   3.855   0.276  0.1424  1.2042  2.0458
  354TIP3   OH2 1067   4.720   3.681   3.587 -0.9494 -0.3376  1.0243
  354TIP3    H1 1068   4.723   3.757   3.530 -1.1347 -0.6573  0.5825
  354TIP3    H2 1069   4.635   3.641   3.571 -0.7038 -0.8503  0.9678
  355TIP3   OH2 1070   3.141   0.435   1.481  0.4852  0.1502 -0.5147
  355TIP3    H1 1071   3.122   0.448   1.574 -0.9813  0.3685 -0.8144
  355TIP3    H2 1072   3.057   0.450   1.437  0.9813 -0.6757 -1.8086
  356TIP3   OH2 1073   3.399   5.551   2.297 -0.3641  0.2383  0.5682
  356TIP3    H1 1074   3.467   5.487   2.318  0.3314  0.7282 -0.1390
  356TIP3    H2 1075   3.426   5.630   2.345 -1.4624 -0.0976  1.8121
  357TIP3   OH2 1076   1.606   3.472   1.156  0.2030 -0.1818  0.0171
  357TIP3    H1 1077   1.523   3.507   1.123  1.1186  1.3215 -0.7900
  357TIP3    H2 1078   1.628   3.402   1.094 -0.3530 -0.4452  0.1126
  358TIP3   OH2 1079   4.837   4.224   3.747  0.2599  0.3058 -0.5354
  358TIP3    H1 1080   4.741   4.217   3.738  0.1327 -2.9708  1.6142
  358TIP3    H2 1081   4.851   4.244   3.839  1.6771 -0.1467 -0.6323
  359TIP3   OH2 1082   6.292   0.657   5.048 -0.4756  0.3862 -0.1868
  359TIP3    H1 1083   6.302   0.746   5.015  0.7440  0.4794  0.3988
  359TIP3    H2 1084   6.261   0.607   4.973 -0.5988  1.1849 -0.6768
  360TIP3   OH2 1085   0.592   3.999   3.442  0.0205 -0.4353  0.2003
  360TIP3    H1 1086   0.674   4.040   3.412 -0.8851  1.0132 -0.4355
  360TIP3    H2 1087   0.569   3.938   3.372 -0.0022 -0.0228 -0.1610
  361TIP3   OH2 1088   2.210   1.003   0.053  0.5831 -0.3153  0.0863
  361TIP3    H1 1089   2.138   1.025  -0.005  0.0260 -0.5245  0.6922
  361TIP3    H2 1090   2.208   0.908   0.060  0.2605 -0.2561  0.9250
  362TIP3   OH2 1091   1.547   3.093   4.646 -0.0834 -0.1936 -0.6329
  362TIP3    H1 1092   1.542   3.145   4.726  0.1726  0.0239 -0.7582
  362TIP3    H2 1093   1.480   3.025   4.657 -0.3681  0.1137 -0.4338
  363TIP3   OH2 1094   1.943   4.654   2.637  0.0931 -0.0848  0.1190
  363TIP3    H1 1095   1.978   4.567   2.660  0.0929 -0.4285 -1.0848
  363TIP3    H2 1096   1.991   4.678   2.557  2.4817  2.4874  2.1127
  364TIP3   OH2 1097   2.745   2.298   1.230  0.1159  0.1894  0.0997
  364TIP3    H1 1098   2.712   2.319   1.317  0.8100  1.9471 -0.0331
  364TIP3    H2 1099   2.840   2.301   1.238  0.1878  0.5434 -0.7406
  365TIP3   OH2 1100   0.258   3.811   3.544  0.3675  0.0968 -0.1372
  365TIP3    H1 1101   0.296   3.733   3.503  0.6981  1.7880 -3.3339
  365TIP3    H2 1102   0.331   3.853   3.589  0.4279 -0.8014  0.6385
  366TIP3   OH2 1103   3.321   4.737   2.896 -0.4200 -0.2745  0.1358
  366TIP3    H1 1104   3.342   4.684   2.973  0.7290 -0.3876 -0.2360
  366TIP3    H2 1105   3.405   4.748   2.851 -0.8006  1.0622 -0.2947
  367TIP3   OH2 1106   4.738   1.323   1.090  0.5978  0.5282 -0.4870
  367TIP3    H1 1107   4.773   1.356   1.173  3.2321 -0.4918 -1.1023
  367TIP3    H2 1108   4.768   1.387   1.025 -0.1353  0.4997 -0.8611
  368TIP3   OH2 1109   0.986   5.045   4.943  0.5917 -0.1723  0.1662
  368TIP3    H1 1110   1.065   5.096   4.958  1.8233 -2.1023  0.6562
  368TIP3    H2 1111   0.983   5.034   4.848  0.5788  0.3985  0.0983
  369TIP3   OH2 1112   4.881   0.289   1.975 -0.2875 -0.7260  0.1446
  369TIP3    H1 1113   4.976   0.278   1.965 -0.1207 -0.3550  1.1948
  369TIP3    H2 1114   4.856   0.349   1.905  0.6480  1.0238  1.2606
  370TIP3   OH2 1115   4.182   1.083   1.375 -0.1750 -0.4751 -0.1960
  370TIP3    H1 1116   4.167   1.177   1.383  1.3194 -0.2320 -0.0683
  370TIP3    H2 1117   4.182   1.066   1.281 -1.1610 -0.4970 -0.2098
  371TIP3   OH2 1118   3.062   1.262   0.306 -0.5875  0.6418 -0.2034
  371TIP3    H1 1119   2.998   1.219   0.363 -1.5873  0.3595 -1.4850
  371TIP3    H2 1120   3.009   1.301   0.236  0.5101  1.9521 -0.3247
  372TIP3   OH2 1121   1.629   2.877   4.245 -0.3964  0.7471  0.0894
  372TIP3    H1 1122   1.568   2.822   4.296 -0.6784  0.5268 -0.4768
  372TIP3    H2 1123   1.706   2.823   4.234 -0.4112  0.7205  0.1164
  373TIP3   OH2 1124   3.534   5.181   4.747 -0.4642 -0.1942  0.2907
  373TIP3    H1 1125   3.469   5.240   4.709 -0.9822 -0.4527  0.7488
  373TIP3    H2 1126   3.506   5.171   4.838  0.7514  0.4196  0.7573
  374TIP3   OH2 1127   1.474   2.631   2.062  1.0383 -0.5407  0.7619
  374TIP3    H1 1128   1.547   2.571   2.075  0.3110 -1.2277  1.7819
  374TIP3    H2 1129   1.509   2.717   2.085  1.3006 -0.9794  2.0639
  375TIP3   OH2 1130   0.046   4.281   1.426  0.2196 -0.1896  0.0160
  375TIP3    H1 1131   0.002   4.351   1.378  0.7173  0.0796 -0.0600
  375TIP3    H2 1132  -0.004   4.271   1.506 -1.0708 -1.1549 -0.8780
  376TIP3   OH2 1133   5.878   5.341   0.702 -0.5822  0.4506 -0.5327
  376TIP3    H1 1134   5.945   5.405   0.726  0.1832 -0.4197 -0.2765
  376TIP3    H2 1135   5.814   5.345   0.773  0.6464 -0.6805  0.6990
  377TIP3   OH2 1136   4.460   3.440   2.571 -0.3123 -0.7139  0.0452
  377TIP3    H1 1137   4.471   3.346   2.589 -1.7188 -0.6696  1.3282
  377TIP3    H2 1138   4.388   3.443   2.508  0.4070 -0.5237 -0.7866
  378TIP3   OH2 1139   5.749   3.395   3.767  0.0920 -0.0587  0.0638
  378TIP3    H1 1140   5.733   3.478   3.720  0.7718  0.2253  0.3149
  378TIP3    H2 1141   5.775   3.334   3.698 -2.5705 -0.7128 -0.4436
  379TIP3   OH2 1142   1.686   4.251   2.082  0.1877  0.1255  0.5166
  379TIP3    H1 1143   1.749   4.202   2.135 -0.6582 -0.3629  1.1147
  379TIP3    H2 1144   1.614   4.270   2.143  0.6553  2.4973  0.4142
  380TIP3   OH2 1145   0.228   5.900   3.089 -0.1787 -1.1320  0.0890
  380TIP3    H1 1146   0.307   5.846   3.079 -0.3380 -1.3525  0.0225
  380TIP3    H2 1147   0.200   5.917   2.999  0.8652  0.5350  0.0346
  381TIP3   OH2 1148   3.772   2.327   4.942 -0.1081  0.5254  0.0137
  381TIP3    H1 1149   3.845   2.328   5.004  0.4665 -1.3131 -0.5688
  381TIP3    H2 1150   3.795   2.392   4.877 -0.1364  1.6241  1.0691
  382TIP3   OH2 1151   4.213   2.445   3.523  0.3526  0.3163  0.7656
  382TIP3    H1 1152   4.233   2.483   3.608 -0.4394  0.0508  1.0783
  382TIP3    H2 1153   4.188   2.354   3.542 -4.0485  1.3093  0.8323
  383TIP3   OH2 1154   4.992   3.389   3.828  0.5036  0.3759 -0.4013
  383TIP3    H1 1155   5.054   3.437   3.883  0.1893 -0.4814  0.7478
  383TIP3    H2 1156   5.029   3.394   3.740 -0.0153  3.5291 -0.5584
  384TIP3   OH2 1157   4.103   3.210   3.439  0.1730  0.0102 -0.2750
  384TIP3    H1 1158   4.023   3.179   3.480 -0.1153 -1.6912 -1.9978
  384TIP3    H2 1159   4.164   3.222   3.512 -0.9015 -1.0145  0.8436
  385TIP3   OH2 1160   3.700   4.449   0.184 -0.3132 -0.0483 -0.2133
  385TIP3    H1 1161   3.786   4.463   0.144 -1.0868  1.0518 -1.5978
  385TIP3    H2 1162   3.718   4.433   0.276  1.3846 -0.1429 -0.5330
  386TIP3   OH2 1163   4.953   3.309   0.422 -0.7209  0.3898  0.1483
  386TIP3    H1 1164   4.901   3.264   0.488  0.8103 -0.1085  1.0681
  386TIP3    H2 1165   4.993   3.239   0.370 -0.2567  0.7238  0.0430
  387TIP3   OH2 1166   2.122   5.219   3.995  0.0645 -0.4684 -0.1838
  387TIP3    H1 1167   2.155   5.190   3.910 -0.3045  0.1550 -0.5469
  387TIP3    H2 1168   2.190   5.193   4.057  0.9027  0.1636 -0.8216
  388TIP3   OH2 1169   2.553   3.165   2.508  0.6619  0.1828  0.7054
  388TIP3    H1 1170   2.623   3.125   2.560  0.8322 -1.5391 -0.7660
  388TIP3    H2 1171   2.590   3.174   2.420 -0.6975 -0.0677  0.0871
  389TIP3   OH2 1172   1.121   1.673   4.188  0.0162  0.4527 -0.7432
  389TIP3    H1 1173   1.162   1.657   4.103  1.5911  1.2828 -0.1744
  389TIP3    H2 1174   1.182   1.731   4.234 -1.1966  0.6847  0.6498
  390TIP3   OH2 1175   5.487   5.772   1.778 -0.5422 -0.1990  0.0080
  390TIP3    H1 1176   5.527   5.718   1.710  0.9649 -0.3830  0.9969
  390TIP3    H2 1177   5.449   5.709   1.839 -1.8429 -0.0361 -0.6022
  391TIP3   OH2 1178   5.801   4.566   2.079 -0.7914 -0.6679  0.1230
  391TIP3    H1 1179   5.761   4.509   2.146 -2.1628 -2.3426 -1.9865
  391TIP3    H2 1180   5.727   4.600   2.029  0.2527 -1.3684 -1.9952
  392TIP3   OH2 1181   1.935   4.675   2.932 -0.1823  0.0891  0.3794
  392TIP3    H1 1182   1.869   4.647   2.868  1.6209 -2.1971 -0.6247
  392TIP3    H2 1183   1.960   4.594   2.976  2.1401  0.8208  0.5225
  393TIP3   OH2 1184   0.527   1.290   1.990 -0.0902 -0.2757 -0.1316
  393TIP3    H1 1185   0.550   1.298   2.082 -1.0598 -2.1096  0.3084
  393TIP3    H2 1186   0.441   1.332   1.983  0.9907  2.0132 -0.7489
  394TIP3   OH2 1187   3.710   4.803   4.271  0.2886  0.2481  0.4239
  394TIP3    H1 1188   3.801   4.784   4.296  1.2107  2.9262 -0.5573
  394TIP3    H2 1189   3.675   4.853   4.344  0.0325  0.3701  0.2192
  395TIP3   OH2 1190   2.516   5.094   2.008  0.0708 -0.4314  0.1061
  395TIP3    H1 1191   2.459   5.018   2.006  0.1054 -0.4988  0.9659
  395TIP3    H2 1192   2.459   5.168   2.029  0.0806 -0.2593 -0.4496
  396TIP3   OH2 1193   4.713   1.418   0.075  0.3620  0.3791  0.2657
  396TIP3    H1 1194   4.754   1.494   0.035 -1.1659  1.0174 -0.1673
  396TIP3    H2 1195   4.778   1.348   0.067  0.4180  0.6650 -2.7191
  397TIP3   OH2 1196   2.616   4.519   0.986  0.6444  0.7138  0.7717
  397TIP3    H1 1197   2.561   4.497   0.911 -0.1122 -0.0806  1.5512
  397TIP3    H2 1198   2.589   4.459   1.055  2.6015  0.1854  1.1390
  398TIP3   OH2 1199   2.772   1.875   3.446  0.3062  0.2921 -0.1605
  398TIP3    H1 1200   2.865   1.896   3.461  0.9421 -1.9712 -0.5053
  398TIP3    H2 1201   2.748   1.821   3.521 -0.7550  0.8521 -0.0864
  399TIP3   OH2 1202   4.089   0.617   4.798 -0.1908  0.3453 -0.1354
  399TIP3    H1 1203   4.132   0.598   4.714 -0.9621 -1.9730 -0.0586
  399TIP3    H2 1204   4.110   0.709   4.814  3.4014 -0.2021 -0.8522
  400TIP3   OH2 1205   2.876   3.272   0.223 -0.0157  0.1869  0.7961
  400TIP3    H1 1206   2.920   3.199   0.265 -0.5787 -0.5530  0.1335
  400TIP3    H2 1207   2.932   3.348   0.241  1.1807 -0.6029  0.5132
  401TIP3   OH2 1208   5.364   1.364   0.742  0.2294  0.4051 -0.5368
  401TIP3    H1 1209   5.305   1.430   0.776 -0.1202 -0.2766  0.2096
  401TIP3    H2 1210   5.357   1.372   0.647 -0.3928  0.9210 -0.4503
  402TIP3   OH2 1211   0.135   5.632   0.772  0.0055  0.0080  0.0647
  402TIP3    H1 1212   0.108   5.626   0.864  0.2403 -0.4771  0.1066
  402TIP3    H2 1213   0.087   5.707   0.737  1.8787  1.8520  1.2478
  403TIP3   OH2 1214   3.195   5.136   2.832  0.2904  0.4327  0.0257
  403TIP3    H1 1215   3.280   5.092   2.844  0.6898  0.7811 -1.3393
  403TIP3    H2 1216   3.132   5.075   2.869  0.8520 -1.2629 -1.6285
  404TIP3   OH2 1217   5.334   2.090   4.451  0.2546  0.5779 -0.4227
  404TIP3    H1 1218   5.396   2.117   4.519 -0.7246  0.3684  0.5899
  404TIP3    H2 1219   5.264   2.156   4.455  0.2562  0.6459 -1.3343
  405TIP3   OH2 1220   5.970   4.890   3.806  0.4920  0.1589  0.1880
  405TIP3    H1 1221   5.889   4.839   3.809  0.9103 -0.6630 -1.3093
  405TIP3    H2 1222   5.988   4.911   3.898 -1.6685  0.8237  0.5184
  406TIP3   OH2 1223   4.638   4.534   3.608 -0.0891 -0.3250  0.1573
  406TIP3    H1 1224   4.670   4.532   3.699 -0.4937  1.0864  0.3542
  406TIP3    H2 1225   4.550   4.573   3.615 -0.4453 -0.9388 -0.7640
  407TIP3   OH2 1226   4.544   1.938   0.567 -0.1982 -0.3376  0.0661
  407TIP3    H1 1227   4.602   1.982   0.505  3.0340 -1.8746  1.7840
  407TIP3    H2 1228   4.512   2.008   0.624  0.9695  0.4194 -0.1812
  408TIP3   OH2 1229   4.864   3.969   2.010  0.1597  0.1732  0.7033
  408TIP3    H1 1230   4.787   4.024   2.000  0.3573  0.5641  1.3123
  408TIP3    H2 1231   4.887   3.944   1.920 -1.7521 -1.4719  0.6020
  409TIP3   OH2 1232   1.831   0.452   4.596  0.4847 -0.7600  0.1521
  409TIP3    H1 1233   1.896   0.388   4.624  0.2739 -0.1223  2.3470
  409TIP3    H2 1234   1.878   0.535   4.593  0.3153 -0.6856 -0.7221
  410TIP3   OH2 1235   3.224   5.668   2.983 -0.5274 -0.3370  0.1494
  410TIP3    H1 1236   3.245   5.702   2.896  1.6553 -0.2608  0.6425
  410TIP3    H2 1237   3.219   5.573   2.972  0.0750 -0.3519  0.0084
  411TIP3   OH2 1238   2.750   0.032   0.745  0.0569 -0.1074  0.1342
  411TIP3    H1 1239   2.725   0.124   0.736  1.0303  0.0605 -1.0296
  411TIP3    H2 1240   2.677  -0.008   0.792 -1.1710  0.9125 -0.8275
  412TIP3   OH2 1241   3.414   1.846   0.218  0.1775  0.7817  0.0373
  412TIP3    H1 1242   3.352   1.809   0.281  0.9059  1.8163  1.4238
  412TIP3    H2 1243   3.359   1.896   0.157 -0.4278  1.1107  0.8244
  413TIP3   OH2 1244   4.802   4.446   3.395 -0.1643 -0.1192 -0.1462
  413TIP3    H1 1245   4.755   4.486   3.468  2.1706  1.5196  0.5826
  413TIP3    H2 1246   4.848   4.372   3.433  1.6077  1.1390  0.3183
  414TIP3   OH2 1247   5.590   0.375   4.639  0.0499 -0.3337 -0.2045
  414TIP3    H1 1248   5.608   0.465   4.665 -3.7713  0.4625  0.3426
  414TIP3    H2 1249   5.520   0.347   4.698  0.3328 -3.2872 -1.1166
  415TIP3   OH2 1250   2.132   3.058   3.239 -0.4060  0.3737  0.1794
  415TIP3    H1 1251   2.071   3.084   3.170 -1.3164 -0.2915  0.7257
  415TIP3    H2 1252   2.185   3.136   3.254  0.0434  0.4340 -1.4986
  416TIP3   OH2 1253   6.250   4.738   1.154 -0.8105  0.0764  0.3806
  416TIP3    H1 1254   6.318   4.804   1.161 -1.7214  1.3767 -2.0162
  416TIP3    H2 1255   6.262   4.698   1.068 -2.1599 -0.7267  0.5218
  417TIP3   OH2 1256   0.748   5.481   3.565 -0.2873  0.1275 -0.2928
  417TIP3    H1 1257   0.694   5.423   3.511 -2.3224  1.0353  0.6817
  417TIP3    H2 1258   0.686   5.533   3.615  1.5111  0.4670  1.7483
  418TIP3   OH2 1259   5.956   3.014   0.605 -0.1224 -0.4941  0.0123
  418TIP3    H1 1260   5.942   3.109   0.609  0.5258 -0.4116  0.4004
  418TIP3    H2 1261   5.875   2.980   0.567  0.2674  0.3511 -1.6472
  419TIP3   OH2 1262   1.358   4.634   4.528 -0.4115  0.2785 -0.0239
  419TIP3    H1 1263   1.317   4.559   4.484  0.0840 -1.1542  1.8395
  419TIP3    H2 1264   1.310   4.642   4.611 -1.7931  3.3511 -0.9450
  420TIP3   OH2 1265   3.088   5.776   4.168 -0.3712 -0.3858 -0.1322
  420TIP3    H1 1266   3.133   5.860   4.174  2.0691 -1.4977 -1.3989
  420TIP3    H2 1267   3.139   5.718   4.225 -0.5276 -1.5537 -1.1471
  421TIP3   OH2 1268   4.640   4.870   3.318  0.0455  0.2942  0.5993
  421TIP3    H1 1269   4.715   4.835   3.366 -0.8799  0.0514  1.9446
  421TIP3    H2 1270   4.631   4.813   3.242  0.1502 -0.7811  1.3689
  422TIP3   OH2 1271   2.131   2.512   0.206  0.0054 -0.3394  0.2455
  422TIP3    H1 1272   2.156   2.541   0.293 -0.7362  1.8471 -0.1807
  422TIP3    H2 1273   2.042   2.478   0.216 -0.7230  1.4038  0.1567
  423TIP3   OH2 1274   3.049   3.477   4.686 -0.7764 -0.2535  0.4066
  423TIP3    H1 1275   3.144   3.475   4.699 -0.8213 -1.0739  0.6344
  423TIP3    H2 1276   3.035   3.431   4.603 -1.0785 -1.3637  1.0533
  424TIP3   OH2 1277   4.427   3.850   1.299  0.5529 -0.3902  0.5491
  424TIP3    H1 1278   4.375   3.825   1.223 -0.4195 -1.6297  1.5839
  424TIP3    H2 1279   4.427   3.946   1.298 -2.4704 -0.3083  0.9600
  425TIP3   OH2 1280   1.736   1.465   2.880 -0.5773 -0.3128  0.2211
  425TIP3    H1 1281   1.668   1.511   2.831 -0.9042 -1.2058 -0.2026
  425TIP3    H2 1282   1.709   1.373   2.876  0.1822 -0.5717  0.8268
  426TIP3   OH2 1283   0.190   2.848   1.983 -0.6830  0.0509  0.2578
  426TIP3    H1 1284   0.142   2.879   2.060 -1.7353 -0.6459 -0.0992
  426TIP3    H2 1285   0.143   2.886   1.909  0.4573  0.9061 -0.0615
  427TIP3   OH2 1286   0.988   0.614   1.790 -0.5835 -0.1592 -0.0841
  427TIP3    H1 1287   0.937   0.643   1.715 -0.6894 -0.6039 -0.1905
  427TIP3    H2 1288   1.016   0.525   1.767  0.1655  0.0448  0.0072
  428TIP3   OH2 1289   6.031   0.665   3.525  0.2565 -0.1944  0.2796
  428TIP3    H1 1290   6.034   0.571   3.539 -2.1903 -0.4341 -0.2994
  428TIP3    H2 1291   6.083   0.702   3.597  0.2419 -1.9373  1.2292
  429TIP3   OH2 1292   0.775   1.301   3.891  0.6143 -0.2970  0.5745
  429TIP3    H1 1293   0.700   1.312   3.949 -0.0136 -0.2575 -0.2223
  429TIP3    H2 1294   0.746   1.236   3.826  1.3491 -0.4545  0.3932
  430TIP3   OH2 1295   5.297   1.044   2.594  0.0552  0.5977  0.3542
  430TIP3    H1 1296   5.331   1.059   2.505 -2.0529  0.3773 -0.5556
  430TIP3    H2 1297   5.247   1.122   2.614  1.7433  1.3206  2.0462
  431TIP3   OH2 1298   0.585   3.234   2.298  0.0465 -0.0950  0.3440
  431TIP3    H1 1299   0.654   3.168   2.292  0.4539  0.4132 -0.8066
  431TIP3    H2 1300   0.504   3.187   2.278  0.1334 -0.5573  1.0536
  432TIP3   OH2 1301   3.048   0.579   2.618  0.2745  0.3134  0.7076
  432TIP3    H1 1302   3.047   0.503   2.560  0.2513  0.5692  0.3719
  432TIP3    H2 1303   3.140   0.590   2.643  0.7175  1.7300 -1.3055
  433TIP3   OH2 1304   2.422   3.846   1.802  0.4909  0.0601  0.0725
  433TIP3    H1 1305   2.387   3.759   1.817 -0.3094  0.0852 -1.4333
  433TIP3    H2 1306   2.406   3.893   1.884 -0.1138 -0.8623  0.5017
  434TIP3   OH2 1307   0.671   2.923   4.872  0.0885 -0.4032  0.4941
  434TIP3    H1 1308   0.687   2.941   4.965 -3.2043  0.1554  1.0809
  434TIP3    H2 1309   0.665   2.828   4.867  1.8502 -0.5485  0.4785
  435TIP3   OH2 1310   0.576   0.857   4.385  0.3726  0.3383 -0.3767
  435TIP3    H1 1311   0.620   0.926   4.435  0.0857  2.2039 -2.5139
  435TIP3    H2 1312   0.489   0.892   4.368 -0.3818 -1.3150 -0.1402
  436TIP3   OH2 1313   0.069   1.305   5.054  0.2519  0.0522  0.1036
  436TIP3    H1 1314   0.139   1.314   4.989  2.4541 -0.2379  2.3083
  436TIP3    H2 1315   0.062   1.211   5.069 -2.7780 -0.2547 -2.1529
  437TIP3   OH2 1316   0.380   4.381   1.945 -0.1808 -0.0453 -0.1786
  437TIP3    H1 1317   0.324   4.455   1.968 -0.9551 -0.6731 -0.0172
  437TIP3    H2 1318   0.387   4.330   2.025  1.3580  0.4675  0.0566
  438TIP3   OH2 1319   1.485   4.601   1.554  0.4825 -0.5318 -0.4019
  438TIP3    H1 1320   1.430   4.539   1.507 -0.3361 -1.1314  1.2331
  438TIP3    H2 1321   1.565   4.552   1.575  1.4411  0.1579 -2.2740
  439TIP3   OH2 1322   6.301   1.173   4.291  0.2810 -0.2422  0.4019
  439TIP3    H1 1323   6.260   1.257   4.310  1.1439  0.1533  0.5603
  439TIP3    H2 1324   6.230   1.109   4.299 -0.1681  0.3490  1.2513
  440TIP3   OH2 1325   5.083   4.424   2.095 -0.7805 -0.2046 -0.2011
  440TIP3    H1 1326   5.015   4.382   2.042  0.6516 -0.4515 -1.9494
  440TIP3    H2 1327   5.163   4.413   2.043  0.4225  0.8949  1.3513
  441TIP3   OH2 1328   0.041   0.096   2.445 -0.3028 -0.0888 -0.2643
  441TIP3    H1 1329   0.102   0.056   2.507 -2.9835 -1.5690  1.5736
  441TIP3    H2 1330   0.056   0.049   2.363  2.1215  0.7512 -0.3852
  442TIP3   OH2 1331   2.825   0.044   0.178  0.0056 -0.2849  0.1012
  442TIP3    H1 1332   2.832   0.136   0.156 -0.2584 -0.5029 -0.9315
  442TIP3    H2 1333   2.914   0.009   0.165  0.2156 -0.0923  0.9470
  443TIP3   OH2 1334   4.799   2.812   2.247 -0.1762 -0.4665  0.4163
  443TIP3    H1 1335   4.789   2.907   2.253  0.0960 -0.3888 -0.2324
  443TIP3    H2 1336   4.870   2.792   2.307  0.8611 -0.0364 -0.6187
  444TIP3   OH2 1337   0.509   3.873   1.840 -0.3763 -0.2380 -0.8784
  444TIP3    H1 1338   0.499   3.820   1.919  0.1448 -0.9117 -1.2450
  444TIP3    H2 1339   0.596   3.911   1.848 -0.9942  1.1065 -0.3147
  445TIP3   OH2 1340   4.660   5.457   1.488 -0.0611 -0.4439 -0.3489
  445TIP3    H1 1341   4.593   5.390   1.498 -0.4236 -0.2164 -1.2027
  445TIP3    H2 1342   4.649   5.490   1.399  2.0117 -1.2832 -0.9805
  446TIP3   OH2 1343   0.629   1.188   2.607  0.6145 -0.2698  0.5094
  446TIP3    H1 1344   0.625   1.238   2.689  0.1633  1.1404 -0.3503
  446TIP3    H2 1345   0.623   1.097   2.635 -1.3087  0.2445  1.9377
  447TIP3   OH2 1346   2.129   3.080   0.213  0.3521  0.4191  0.0377
  447TIP3    H1 1347   2.192   3.081   0.285  1.6757 -3.0443 -0.8713
  447TIP3    H2 1348   2.140   2.994   0.172 -1.6309  1.5086 -3.1957
  448TIP3   OH2 1349   4.699   3.843   1.020 -0.5439 -0.0195  0.1660
  448TIP3    H1 1350   4.780   3.806   1.054 -0.4719  0.8340  0.9741
  448TIP3    H2 1351   4.699   3.934   1.051 -1.2911  0.3095 -0.7262
  449TIP3   OH2 1352   3.128   5.125   4.278  0.3264 -0.1146 -0.1755
  449TIP3    H1 1353   3.146   5.219   4.275  1.1139 -0.0641  2.8317
  449TIP3    H2 1354   3.039   5.116   4.243 -0.5381  2.0320  1.3193
  450TIP3   OH2 1355   5.097   1.311   1.325  0.3300 -0.0434  0.0622
  450TIP3    H1 1356   5.004   1.326   1.346 -0.4152 -1.8437 -1.6646
  450TIP3    H2 1357   5.104   1.331   1.232  2.0445  1.4138  0.4453
  451TIP3   OH2 1358   5.745   1.593   0.467  0.0084  0.6184 -0.4876
  451TIP3    H1 1359   5.821   1.625   0.418  1.7202  0.2238  1.7737
  451TIP3    H2 1360   5.748   1.640   0.550 -1.2409 -0.6468  0.3147
  452TIP3   OH2 1361   0.640   1.083   5.155  0.2131 -0.4451 -0.2069
  452TIP3    H1 1362   0.582   1.032   5.211  0.8075 -0.2260  0.6388
  452TIP3    H2 1363   0.583   1.123   5.090 -0.4433 -1.0136  0.0121
  453TIP3   OH2 1364   1.281   1.172   1.430  0.3037  0.6943  0.5174
  453TIP3    H1 1365   1.301   1.246   1.488  0.4549  1.2818 -0.2667
  453TIP3    H2 1366   1.364   1.124   1.425  0.5635  1.1907  0.0137
  454TIP3   OH2 1367   5.448   2.844   4.911 -0.4222 -0.2919  0.0734
  454TIP3    H1 1368   5.435   2.805   4.825 -0.5043 -0.7679  0.2978
  454TIP3    H2 1369   5.539   2.822   4.933  0.7490  2.6878 -1.3264
  455TIP3   OH2 1370   0.462   2.713   0.974  0.1564 -0.3551  0.1152
  455TIP3    H1 1371   0.486   2.725   0.882 -0.7707 -1.8837 -0.3610
  455TIP3    H2 1372   0.374   2.752   0.981  0.6186  0.6270  0.6056
  456TIP3   OH2 1373   3.214   3.941   2.835 -0.2667  0.0875  0.2755
  456TIP3    H1 1374   3.146   4.003   2.810  0.9971  1.0926 -0.8310
  456TIP3    H2 1375   3.227   3.957   2.928 -0.9603  0.4798  0.3131
  457TIP3   OH2 1376   3.825   0.950   1.697  0.2557 -0.8510  0.6442
  457TIP3    H1 1377   3.864   0.934   1.611  1.5469 -1.0755  1.2458
  457TIP3    H2 1378   3.762   0.878   1.708 -0.8121 -0.1576 -0.5906
  458TIP3   OH2 1379   6.136   4.951   4.807  0.4128 -1.0914  0.1993
  458TIP3    H1 1380   6.106   5.033   4.770 -0.5100 -0.8571  1.4134
  458TIP3    H2 1381   6.231   4.955   4.801  0.3466 -0.2379 -0.3799
  459TIP3   OH2 1382   3.955   4.976   3.781 -0.3309  0.0257 -0.7147
  459TIP3    H1 1383   3.991   5.063   3.799  2.3301 -0.9309 -0.9531
  459TIP3    H2 1384   3.894   4.960   3.853 -1.0753  2.1417 -0.7998
  460TIP3   OH2 1385   1.171   0.196   4.324  0.2226 -0.1019 -0.5692
  460TIP3    H1 1386   1.242   0.132   4.320  0.6380  0.3805 -1.0101
  460TIP3    H2 1387   1.213   0.280   4.305  0.0029  0.5733  1.6439
  461TIP3   OH2 1388   3.793   2.080   0.578 -0.1162 -0.1924  0.0775
  461TIP3    H1 1389   3.869   2.119   0.534  0.7584  0.2280  1.8679
  461TIP3    H2 1390   3.736   2.053   0.506  0.6757  1.5290 -1.3038
  462TIP3   OH2 1391   0.372   4.932   0.886  0.3219 -0.4682 -0.3260
  462TIP3    H1 1392   0.282   4.937   0.854 -0.0845 -3.2089  0.1345
  462TIP3    H2 1393   0.403   5.022   0.883 -1.7952  0.3114 -2.2995
  463TIP3   OH2 1394   3.142   1.033   3.657 -0.0102 -0.3465  0.2428
  463TIP3    H1 1395   3.192   1.060   3.734 -0.2849 -0.8129  0.5941
  463TIP3    H2 1396   3.206   1.034   3.585  0.0012  1.1184  0.2538
  464TIP3   OH2 1397   0.026   5.535   4.308  0.4541  0.2093  0.1813
  464TIP3    H1 1398   0.030   5.523   4.213  0.1388  0.9289  0.0657
  464TIP3    H2 1399  -0.054   5.489   4.335 -0.0068  0.8556 -0.0543
  465TIP3   OH2 1400   2.915   4.713   1.141 -0.5100 -0.0505 -0.1723
  465TIP3    H1 1401   2.916   4.647   1.071 -0.1196 -0.0807 -0.1379
  465TIP3    H2 1402   2.839   4.767   1.121  0.8967  1.4010 -1.9891
  466TIP3   OH2 1403   2.327   4.169   2.271 -0.9124 -0.2455  1.0999
  466TIP3    H1 1404   2.286   4.253   2.291 -0.2028  0.1384  1.0025
  466TIP3    H2 1405   2.340   4.171   2.176  1.7955  0.8475  1.4093
  467TIP3   OH2 1406   2.571   0.634   3.626  0.5085 -0.3264  0.5874
  467TIP3    H1 1407   2.494   0.683   3.597  1.1174 -0.3382 -1.1396
  467TIP3    H2 1408   2.589   0.669   3.714 -0.0240  1.4297  0.0498
  468TIP3   OH2 1409   2.257   3.297   3.313 -0.1393 -0.0748 -0.4560
  468TIP3    H1 1410   2.175   3.336   3.343 -0.0995 -0.1475 -0.2515
  468TIP3    H2 1411   2.315   3.299   3.389 -0.9683 -2.8457  0.3696
  469TIP3   OH2 1412   2.033   1.194   0.841 -0.0580  0.7661 -0.0769
  469TIP3    H1 1413   2.059   1.272   0.890  1.5958  0.5419 -0.5200
  469TIP3    H2 1414   2.003   1.228   0.757  0.7713  0.9407 -0.3151
  470TIP3   OH2 1415   5.052   5.930   0.941 -0.4635  0.3032  0.0494
  470TIP3    H1 1416   4.994   5.854   0.933 -0.5043  0.5335 -2.8890
  470TIP3    H2 1417   5.000   6.004   0.909  0.6882  0.9407 -0.4162
  471TIP3   OH2 1418   4.441   4.176   4.115 -0.2937 -0.0551  0.6707
  471TIP3    H1 1419   4.437   4.271   4.112 -0.1575 -0.0591  0.3257
  471TIP3    H2 1420   4.424   4.148   4.025  3.3750 -0.1976 -0.1595
  472TIP3   OH2 1421   1.661   2.446   0.040 -0.1150 -0.0798 -0.2585
  472TIP3    H1 1422   1.576   2.490   0.035 -0.6775 -0.7391  2.1227
  472TIP3    H2 1423   1.678   2.416  -0.050 -1.5207  1.6070 -1.1430
  473TIP3   OH2 1424   1.835   5.187   3.816  0.0918 -0.2162  0.5050
  473TIP3    H1 1425   1.744   5.176   3.786 -0.1160  0.6147  0.8216
  473TIP3    H2 1426   1.834   5.266   3.870  0.8818 -0.5539  1.0344
  474TIP3   OH2 1427   4.702   2.984   1.484  0.3860 -0.0317  0.0102
  474TIP3    H1 1428   4.719   3.072   1.448  0.9397  0.4974  1.4927
  474TIP3    H2 1429   4.694   2.998   1.579  2.1431 -1.8184  0.4851
  475TIP3   OH2 1430   4.479   5.953   4.563 -0.0619  0.0627  0.0577
  475TIP3    H1 1431   4.463   5.921   4.652  0.9614 -0.4784  0.0767
  475TIP3    H2 1432   4.392   5.967   4.526 -0.5095 -0.1392  0.9935
  476TIP3   OH2 1433   0.401   1.781   4.064  0.3717  0.9366  0.5729
  476TIP3    H1 1434   0.453   1.861   4.074  1.3714  0.0620  2.8212
  476TIP3    H2 1435   0.454   1.724   4.009  0.3147  1.2486  0.1872
  477TIP3   OH2 1436   0.630   3.075   3.920  0.6264  0.5908  0.0834
  477TIP3    H1 1437   0.587   3.148   3.876 -0.7576  0.2616  0.8443
  477TIP3    H2 1438   0.716   3.109   3.943 -0.0543  2.0565  0.5754
  478TIP3   OH2 1439   4.327   2.556   1.340 -0.6324  0.3895 -0.0264
  478TIP3    H1 1440   4.376   2.482   1.303 -1.6320 -0.3416  0.0747
  478TIP3    H2 1441   4.327   2.539   1.434  1.0255  1.7092  0.2693
  479TIP3   OH2 1442   5.399   3.186   3.426 -0.0864 -0.0388  0.0177
  479TIP3    H1 1443   5.329   3.186   3.361  0.3319 -0.1488 -0.4420
  479TIP3    H2 1444   5.459   3.117   3.396  0.6655  0.6484 -0.0862
  480TIP3   OH2 1445   1.442   2.841   0.133  0.0949  0.6537  0.1806
  480TIP3    H1 1446   1.376   2.884   0.188 -1.5187 -1.2624 -0.1406
  480TIP3    H2 1447   1.470   2.765   0.184  1.4179  0.9385 -0.0862
  481TIP3   OH2 1448   6.137   5.227   3.873 -0.3571 -0.1186 -0.1839
  481TIP3    H1 1449   6.104   5.186   3.953  0.5032 -2.6277 -1.0232
  481TIP3    H2 1450   6.208   5.283   3.903 -0.1830 -0.8563  0.8451
  482TIP3   OH2 1451   2.643   2.815   3.907  0.6624  0.1734  0.6181
  482TIP3    H1 1452   2.716   2.757   3.927  0.2614 -1.1526 -1.4595
  482TIP3    H2 1453   2.640   2.818   3.811 -0.3161  2.4172  0.6624
  483TIP3   OH2 1454   3.478   5.320   1.034 -0.5593 -0.3302 -0.0316
  483TIP3    H1 1455   3.540   5.362   1.094 -1.2597  0.4293  0.1814
  483TIP3    H2 1456   3.532   5.262   0.980  0.2910  0.1055  0.3316
  484TIP3   OH2 1457   4.846   1.247   5.076 -0.5378  0.2075 -0.3214
  484TIP3    H1 1458   4.814   1.334   5.100 -1.1102 -0.4766  1.6336
  484TIP3    H2 1459   4.767   1.197   5.055 -0.3671 -0.2792  0.1642
  485TIP3   OH2 1460   5.377   0.662   4.870 -0.3317 -0.2651 -0.1381
  485TIP3    H1 1461   5.419   0.743   4.899  0.4224 -1.2242  1.6698
  485TIP3    H2 1462   5.287   0.669   4.901  0.3706 -1.1131  2.3314
  486TIP3   OH2 1463   5.876   5.176   1.567 -0.4650 -0.1550 -0.2648
  486TIP3    H1 1464   5.903   5.255   1.616 -1.5459 -0.4996  0.9394
  486TIP3    H2 1465   5.882   5.105   1.632 -0.0797 -0.9786 -1.1755
  487TIP3   OH2 1466   3.156   0.792   2.839 -0.0137  0.0019  0.6322
  487TIP3    H1 1467   3.172   0.835   2.923 -1.1587 -0.3578  1.0648
  487TIP3    H2 1468   3.234   0.740   2.823 -0.1387 -0.6304  1.9385
  488TIP3   OH2 1469   5.551   2.987   3.326 -0.1215 -0.0607  0.3130
  488TIP3    H1 1470   5.591   3.059   3.277  0.4062 -1.1005 -0.8183
  488TIP3    H2 1471   5.625   2.934   3.357 -0.2019  1.8383  4.4706
  489TIP3   OH2 1472   0.237   4.213   1.213  0.5892  0.5384  0.4972
  489TIP3    H1 1473   0.326   4.239   1.235  0.6699  0.2309  0.5243
  489TIP3    H2 1474   0.183   4.261   1.276  0.8883 -1.2455  2.2085
  490TIP3   OH2 1475   2.297   5.410   0.269 -0.6444  0.1966 -0.0389
  490TIP3    H1 1476   2.255   5.388   0.186 -1.8834 -0.2551  0.6908
  490TIP3    H2 1477   2.270   5.341   0.329  2.1484 -0.8426  0.1897
  491TIP3   OH2 1478   3.800   1.142   3.976 -0.2748 -0.2597 -0.4090
  491TIP3    H1 1479   3.822   1.139   4.069 -0.7263 -0.9782 -0.3240
  491TIP3    H2 1480   3.830   1.228   3.947 -0.3004  0.0379  0.4429
  492TIP3   OH2 1481   1.620   5.422   2.101 -0.1668 -0.1811  0.1308
  492TIP3    H1 1482   1.542   5.387   2.057 -0.5190 -0.6956  1.1342
  492TIP3    H2 1483   1.693   5.370   2.067 -0.6321 -1.6793  1.2962
  493TIP3   OH2 1484   2.796   0.252   4.596 -0.0531  0.5562  0.1675
  493TIP3    H1 1485   2.809   0.169   4.641  0.4000  0.1595 -0.6601
  493TIP3    H2 1486   2.771   0.314   4.665  0.5102 -0.0511  0.9365
  494TIP3   OH2 1487   2.282   0.465   0.397  0.5935  0.0529 -0.3219
  494TIP3    H1 1488   2.196   0.426   0.411 -0.0272  1.7939  0.9081
  494TIP3    H2 1489   2.316   0.419   0.320 -1.4821 -0.5673 -0.9335
  495TIP3   OH2 1490   5.750   4.062   0.593 -0.4142 -0.0281  0.5305
  495TIP3    H1 1491   5.735   4.005   0.517 -0.0820  0.8035 -0.1773
  495TIP3    H2 1492   5.736   4.151   0.560  0.9949  0.4461  1.1134
  496TIP3   OH2 1493   4.048   1.910   1.304 -0.1916  0.0237  0.1564
  496TIP3    H1 1494   4.108   1.979   1.278  0.6931 -0.7521  0.1217
  496TIP3    H2 1495   3.994   1.894   1.227  0.5661 -0.3244 -0.3070
  497TIP3   OH2 1496   1.156   5.122   3.773  0.0216 -0.0538 -0.1088
  497TIP3    H1 1497   1.065   5.145   3.753  0.0243  0.0259 -0.0327
  497TIP3    H2 1498   1.190   5.084   3.692 -0.2876 -0.7323  0.0673
  498TIP3   OH2 1499   4.702   4.939   4.681 -0.1113 -0.0019 -0.7381
  498TIP3    H1 1500   4.680   4.861   4.732  1.2284 -0.6837 -1.1693
  498TIP3    H2 1501   4.668   5.012   4.733  0.6706 -0.7236  0.8526
  499TIP3   OH2 1502   0.169   4.063   4.045 -0.2889  0.4158  0.4592
  499TIP3    H1 1503   0.155   4.128   3.977  2.7914  0.7989  0.0324
  499TIP3    H2 1504   0.158   3.979   4.001 -0.9084  0.6518  0.1588
  500TIP3   OH2 1505   1.784   0.388   5.055  0.3023 -0.2156 -0.3124
  500TIP3    H1 1506   1.823   0.453   5.113  1.1125 -0.3582 -0.6780
  500TIP3    H2 1507   1.729   0.440   4.996 -0.3151 -0.0434  0.3986
  501TIP3   OH2 1508   3.105   0.039   3.203 -0.4131  0.0398  0.1759
  501TIP3    H1 1509   3.157   0.034   3.123 -0.6615 -0.4095  0.0444
  501TIP3    H2 1510   3.137   0.118   3.247  0.8269 -0.5805  0.4106
  502TIP3   OH2 1511   1.167   1.678   1.705 -0.2603 -0.4056 -0.2417
  502TIP3    H1 1512   1.237   1.743   1.705 -0.9903  0.4000  0.3168
  502TIP3    H2 1513   1.208   1.599   1.739  0.6455 -0.2638 -0.9545
  503TIP3   OH2 1514   3.357   4.399   3.577  1.4022  0.0426 -0.6169
  503TIP3    H1 1515   3.347   4.446   3.495 -0.0358  0.3219 -0.3081
  503TIP3    H2 1516   3.282   4.340   3.581  1.4915 -0.0336  0.4457
  504TIP3   OH2 1517   1.136   2.958   3.694 -0.6090  0.1214 -0.3425
  504TIP3    H1 1518   1.196   3.012   3.744  0.5840 -2.3396  1.0614
  504TIP3    H2 1519   1.092   2.904   3.759 -1.3676 -0.9614 -1.6929
  505TIP3   OH2 1520   5.102   3.539   0.861 -0.1699 -0.7227  0.2378
  505TIP3    H1 1521   5.158   3.595   0.807  1.2676 -2.0538  0.2670
  505TIP3    H2 1522   5.034   3.508   0.802  0.0041 -0.2949 -0.1949
  506TIP3   OH2 1523   4.594   3.747   0.070  0.5843  0.1350 -0.0520
  506TIP3    H1 1524   4.603   3.836   0.102 -0.0013  0.5933 -1.1139
  506TIP3    H2 1525   4.511   3.746   0.024  0.6726 -0.9129 -0.2102
  507TIP3   OH2 1526   2.141   4.915   0.703 -0.2628  0.2955 -0.3511
  507TIP3    H1 1527   2.139   4.947   0.613 -0.6745 -0.1004 -0.4834
  507TIP3    H2 1528   2.052   4.928   0.735 -0.5826 -1.2226 -0.5875
  508TIP3   OH2 1529   6.250   0.721   3.692 -0.3846  0.8297 -0.1528
  508TIP3    H1 1530   6.302   0.700   3.614 -2.0168  0.9983 -1.3307
  508TIP3    H2 1531   6.313   0.761   3.752  1.5809 -1.9509 -0.1488
  509TIP3   OH2 1532   2.458   1.317   1.428  0.2127 -0.4237 -0.7330
  509TIP3    H1 1533   2.493   1.230   1.408  0.2814 -0.3178 -1.0822
  509TIP3    H2 1534   2.534   1.375   1.425  0.1249 -0.3086 -0.7730
  510TIP3   OH2 1535   3.062   4.549   1.791 -0.5588  0.1283  0.4098
  510TIP3    H1 1536   3.023   4.613   1.731 -0.6628 -0.4920 -0.2052
  510TIP3    H2 1537   3.017   4.565   1.874 -1.6068 -0.0603 -0.0904
  511TIP3   OH2 1538   1.221   5.735   1.486  0.1618  0.2190  0.2120
  511TIP3    H1 1539   1.145   5.756   1.540 -0.3273  0.8062 -0.6950
  511TIP3    H2 1540   1.185   5.704   1.403  0.8898 -1.7470  0.5681
  512TIP3   OH2 1541   5.132   5.839   1.213  0.5520  0.6042 -0.3429
  512TIP3    H1 1542   5.057   5.789   1.246  1.0655  0.2437  0.2922
  512TIP3    H2 1543   5.096   5.892   1.142 -0.2731  0.3176 -0.1464
  513TIP3   OH2 1544   1.228   4.346   2.062  0.1309  0.1541 -0.0464
  513TIP3    H1 1545   1.137   4.314   2.064  0.5208 -0.9778  0.4813
  513TIP3    H2 1546   1.238   4.396   2.143  0.0144  0.1732 -0.0436
  514TIP3   OH2 1547   2.077   5.911   2.190 -0.4096  0.0328 -0.1736
  514TIP3    H1 1548   2.099   5.824   2.156 -1.0124 -0.5197  0.8146
  514TIP3    H2 1549   1.981   5.910   2.196 -0.3928  0.6258  0.2198
  515TIP3   OH2 1550   1.913   2.404   5.013  0.2776 -0.5664  0.3075
  515TIP3    H1 1551   1.930   2.497   5.003  0.5712 -0.6915 -0.3806
  515TIP3    H2 1552   1.880   2.395   5.103 -0.7775  0.3332  0.0287
  516TIP3   OH2 1553   1.755   0.364   2.704 -0.4030 -0.6222  0.1755
  516TIP3    H1 1554   1.746   0.448   2.658  0.5142 -0.8615 -0.4607
  516TIP3    H2 1555   1.788   0.389   2.791 -2.5039 -0.1400  0.9053
  517TIP3   OH2 1556   1.868   5.130   4.490 -0.5584 -0.0953 -0.1044
  517TIP3    H1 1557   1.923   5.131   4.568  0.9613 -1.2285 -1.0987
  517TIP3    H2 1558   1.778   5.134   4.523  0.0749  0.5730  1.6268
  518TIP3   OH2 1559   4.204   0.847   4.496  0.3602 -0.0809 -0.5529
  518TIP3    H1 1560   4.247   0.932   4.497 -0.7611  0.5080  0.7000
  518TIP3    H2 1561   4.261   0.790   4.548  2.4295 -0.8760 -3.3997
  519TIP3   OH2 1562   2.668   4.189   0.297 -0.0514  0.5639 -0.3312
  519TIP3    H1 1563   2.573   4.191   0.309 -0.1003 -1.3192 -0.1099
  519TIP3    H2 1564   2.701   4.155   0.380  0.8202  1.1357 -0.4406
  520TIP3   OH2 1565   3.503   0.564   1.480  0.3182 -0.0290  0.4848
  520TIP3    H1 1566   3.558   0.569   1.558  0.3361 -0.4180  0.4994
  520TIP3    H2 1567   3.557   0.599   1.410  0.0998  0.8683  0.7499
  521TIP3   OH2 1568   4.259   2.635   1.026  0.0026 -0.6631 -0.5158
  521TIP3    H1 1569   4.217   2.712   1.063  1.0695 -0.5338  0.4430
  521TIP3    H2 1570   4.343   2.666   0.993 -0.6982 -0.8667 -2.6914
  522TIP3   OH2 1571   4.828   0.524   1.801  0.4515  0.1491  0.3980
  522TIP3    H1 1572   4.901   0.553   1.747  0.2289  0.3602  0.2118
  522TIP3    H2 1573   4.750   0.554   1.755  0.2946  1.9392  1.7247
  523TIP3   OH2 1574   2.337   5.576   4.725  0.0958  0.6409  0.1874
  523TIP3    H1 1575   2.391   5.499   4.741  0.8251  0.9576 -0.6976
  523TIP3    H2 1576   2.265   5.568   4.788 -0.6876 -1.5834 -0.9073
  524TIP3   OH2 1577   4.363   0.679   1.364  0.1522  0.2529 -0.3911
  524TIP3    H1 1578   4.425   0.609   1.384 -0.4692 -0.7275 -1.6817
  524TIP3    H2 1579   4.353   0.675   1.269 -0.8967  1.2355 -0.3453
  525TIP3   OH2 1580   5.461   4.571   3.302  0.6962 -0.0585  0.8729
  525TIP3    H1 1581   5.395   4.569   3.372  0.3495  0.2121  0.5559
  525TIP3    H2 1582   5.428   4.511   3.236  2.1747 -2.1896  1.9385
  526TIP3   OH2 1583   5.438   1.241   2.795 -0.3218  0.1433 -0.0436
  526TIP3    H1 1584   5.467   1.153   2.817  3.0294  1.7617  3.1534
  526TIP3    H2 1585   5.466   1.255   2.705  0.6090 -1.5282 -0.0440
  527TIP3   OH2 1586   4.817   2.078   0.820  0.5489 -0.9309 -0.3394
  527TIP3    H1 1587   4.848   2.059   0.731  0.9287  0.0868 -0.4356
  527TIP3    H2 1588   4.760   2.155   0.810  2.9127  1.0835  0.6525
  528TIP3   OH2 1589   3.237   0.775   1.805 -0.3511 -0.0413 -0.6810
  528TIP3    H1 1590   3.272   0.756   1.892 -2.8219  0.0890  0.4308
  528TIP3    H2 1591   3.268   0.704   1.750  0.0671 -0.9444  0.6776
  529TIP3   OH2 1592   0.949   2.426   2.702 -0.5577 -0.2356  0.3284
  529TIP3    H1 1593   0.908   2.440   2.788 -1.2281 -0.3630  0.0339
  529TIP3    H2 1594   0.916   2.498   2.648  1.4905  1.0871  0.7131
  530TIP3   OH2 1595   1.123   3.231   3.901  0.1359  0.0419 -0.3448
  530TIP3    H1 1596   1.206   3.187   3.882 -0.0236 -0.0519 -0.8498
  530TIP3    H2 1597   1.066   3.206   3.828 -0.2955  0.2087 -0.0666
  531TIP3   OH2 1598   4.864   4.899   0.356 -0.2246 -0.0448  0.1061
  531TIP3    H1 1599   4.905   4.986   0.358 -0.1981 -0.0431 -0.4178
  531TIP3    H2 1600   4.894   4.860   0.274 -0.2892 -0.5254  0.3089
  532TIP3   OH2 1601   1.123   0.337   0.195  0.2931 -0.0330 -0.0534
  532TIP3    H1 1602   1.136   0.413   0.138 -0.2315 -1.3223 -1.9913
  532TIP3    H2 1603   1.120   0.374   0.284 -3.5492  2.7685 -1.0385
  533TIP3   OH2 1604   0.477   4.963   1.989 -0.4707  0.2917  0.2870
  533TIP3    H1 1605   0.409   4.917   2.038 -0.6533 -1.0238 -1.1227
  533TIP3    H2 1606   0.490   4.909   1.911  0.0359  2.1324 -0.9530
  534TIP3   OH2 1607   1.320   0.978   0.076  0.0906  0.2430  0.4088
  534TIP3    H1 1608   1.352   1.053   0.025 -0.7107  0.3294  0.0123
  534TIP3    H2 1609   1.324   0.904   0.016 -2.7744  0.7192 -0.5418
  535TIP3   OH2 1610   4.614   0.220   3.988  0.0723 -0.0488 -0.1060
  535TIP3    H1 1611   4.658   0.297   3.954 -1.1997  0.0403 -1.6950
  535TIP3    H2 1612   4.665   0.194   4.065  1.3818  1.4759 -0.4203
  536TIP3   OH2 1613   0.339   1.277   1.348  1.3818  0.1269 -0.2129
  536TIP3    H1 1614   0.296   1.193   1.334  1.6416  0.3714 -2.9620
  536TIP3    H2 1615   0.401   1.285   1.276  1.8940  2.3731  0.3899
  537TIP3   OH2 1616   3.955   4.699   3.220  0.4524 -0.6961  0.0805
  537TIP3    H1 1617   4.002   4.777   3.190 -0.8967  0.5209  0.9500
  537TIP3    H2 1618   3.960   4.703   3.316 -0.5531 -1.0703  0.1631
  538TIP3   OH2 1619   2.202   5.635   2.215 -0.3175 -1.2584  0.0065
  538TIP3    H1 1620   2.282   5.585   2.201  0.1020 -1.3898  2.4379
  538TIP3    H2 1621   2.217   5.681   2.298 -1.2595  1.7785 -1.3609
  539TIP3   OH2 1622   3.351   0.450   2.464 -1.2778 -0.2523 -0.1351
  539TIP3    H1 1623   3.336   0.368   2.511  2.1940 -1.3288 -0.6164
  539TIP3    H2 1624   3.423   0.492   2.512 -0.7560  0.8617 -1.7850
  540TIP3   OH2 1625   0.047   0.215   3.243  0.0478 -0.2514 -0.8785
  540TIP3    H1 1626  -0.039   0.223   3.200 -1.3485  0.0132  1.7699
  540TIP3    H2 1627   0.052   0.124   3.271 -0.5783  0.3004  1.1981
  541TIP3   OH2 1628   2.932   0.423   2.212 -0.3998  0.1258 -0.1547
  541TIP3    H1 1629   2.870   0.446   2.281  0.0158 -0.1637  0.3150
  541TIP3    H2 1630   3.014   0.465   2.237 -0.7501  1.7231 -1.5159
  542TIP3   OH2 1631   4.505   2.744   0.674 -0.5383 -0.0818  0.3262
  542TIP3    H1 1632   4.413   2.757   0.651  0.2942  2.3174 -2.1344
  542TIP3    H2 1633   4.540   2.689   0.603  0.4033  1.0692 -0.1501
  543TIP3   OH2 1634   0.998   2.596   1.472 -0.0912  0.1506 -0.1290
  543TIP3    H1 1635   1.064   2.599   1.403  0.3554  0.0318  0.2851
  543TIP3    H2 1636   1.001   2.683   1.512 -0.5338  0.3059 -0.4220
  544TIP3   OH2 1637   5.137   3.781   1.911 -0.1930  0.1499  0.0309
  544TIP3    H1 1638   5.179   3.712   1.961  3.0571  1.1724 -1.0315
  544TIP3    H2 1639   5.150   3.756   1.819  0.3609  1.7147 -0.3579
  545TIP3   OH2 1640   3.213   4.627   4.936  0.1963 -0.5255 -0.0468
  545TIP3    H1 1641   3.152   4.645   5.007 -0.3859 -0.2246 -0.6125
  545TIP3    H2 1642   3.257   4.546   4.962 -1.6350 -1.6872 -0.3823
  546TIP3   OH2 1643   1.291   5.080   4.712 -0.3546 -0.3558 -0.0173
  546TIP3    H1 1644   1.224   5.131   4.668  1.1870 -0.3722 -2.6308
  546TIP3    H2 1645   1.321   5.135   4.784 -0.8178  1.1194 -0.9203
  547TIP3   OH2 1646   4.920   4.229   0.586 -0.3805 -0.1128 -1.0234
  547TIP3    H1 1647   4.886   4.215   0.675 -3.0145 -0.7093 -2.0316
  547TIP3    H2 1648   4.952   4.319   0.587 -1.2904  0.2312  0.2778
  548TIP3   OH2 1649   0.895   5.319   1.300 -0.1430  1.0072  0.3330
  548TIP3    H1 1650   0.914   5.226   1.289  2.0522  1.5127 -0.8444
  548TIP3    H2 1651   0.969   5.353   1.350 -0.5754  2.2310  0.1764
  549TIP3   OH2 1652   3.187   2.219   3.214  0.5634  0.6203 -0.0005
  549TIP3    H1 1653   3.199   2.314   3.206  1.7840  0.5032  0.1752
  549TIP3    H2 1654   3.273   2.187   3.243  0.6245 -0.7105 -1.5031
  550TIP3   OH2 1655   2.448   1.166   0.156  0.5705  0.3675 -0.1673
  550TIP3    H1 1656   2.440   1.227   0.229 -0.1964 -0.1072  0.1618
  550TIP3    H2 1657   2.373   1.107   0.166 -0.7562  1.5192 -2.5015
  551TIP3   OH2 1658   0.946   3.134   3.453  0.7066 -0.6145  0.0459
  551TIP3    H1 1659   0.982   3.048   3.471  0.4936 -0.8472 -0.6196
  551TIP3    H2 1660   1.006   3.173   3.389 -0.1559 -0.9791 -1.0182
  552TIP3   OH2 1661   5.890   3.661   0.053 -0.2305  0.3039 -0.1711
  552TIP3    H1 1662   5.804   3.624   0.073 -0.4256  0.5857 -0.4664
  552TIP3    H2 1663   5.948   3.585   0.048 -0.6008  0.0443 -0.6404
  553TIP3   OH2 1664   5.669   1.494   3.766 -0.5561 -0.0164  0.3662
  553TIP3    H1 1665   5.698   1.578   3.802 -0.8125 -0.4034  1.5218
  553TIP3    H2 1666   5.703   1.493   3.677  0.6049  0.7436  0.7743
  554TIP3   OH2 1667   2.271   1.628   4.248 -0.3059 -0.4054  0.2587
  554TIP3    H1 1668   2.176   1.627   4.241 -0.1954 -1.0267 -1.5759
  554TIP3    H2 1669   2.293   1.549   4.297 -0.6626 -1.1846 -0.8131
  555TIP3   OH2 1670   1.380   1.240   2.797  0.0365  0.2950  0.1398
  555TIP3    H1 1671   1.287   1.260   2.781  0.1790  0.8320 -0.0555
  555TIP3    H2 1672   1.394   1.262   2.889 -0.4019 -1.2943  0.6244
  556TIP3   OH2 1673   2.519   1.165   3.399  0.2630 -0.4889  0.2783
  556TIP3    H1 1674   2.557   1.102   3.460  1.4785  1.1168  1.2518
  556TIP3    H2 1675   2.567   1.152   3.317 -0.1566 -1.4314  0.1582
  557TIP3   OH2 1676   2.755   1.166   2.699 -0.2684  0.3957  0.4676
  557TIP3    H1 1677   2.786   1.169   2.790 -0.8854  1.1479  0.6644
  557TIP3    H2 1678   2.761   1.257   2.670 -1.3648  0.3936  0.2016
  558TIP3   OH2 1679   4.099   5.918   4.988 -0.0766  0.0081 -0.4351
  558TIP3    H1 1680   4.041   5.842   4.986 -0.5773  0.3548  0.3282
  558TIP3    H2 1681   4.106   5.946   4.897 -0.8364 -0.2506 -0.5770
  559TIP3   OH2 1682   1.824   3.702   2.319 -0.1326 -0.4885 -0.2412
  559TIP3    H1 1683   1.826   3.758   2.242 -1.4512  0.3078  0.2684
  559TIP3    H2 1684   1.844   3.614   2.286 -1.4401 -0.2943 -1.6187
  560TIP3   OH2 1685   2.446   0.517   1.270  0.7481  0.3128 -0.2084
  560TIP3    H1 1686   2.396   0.461   1.330 -0.6468 -0.8288 -2.3068
  560TIP3    H2 1687   2.500   0.456   1.220  0.2068  0.9338 -1.6081
  561TIP3   OH2 1688   3.706   5.158   0.161  0.3506 -0.3335 -0.0433
  561TIP3    H1 1689   3.747   5.140   0.077  2.5332  1.4488  0.5337
  561TIP3    H2 1690   3.750   5.237   0.193 -0.3756 -0.9401  2.7731
  562TIP3   OH2 1691   3.337   0.529   1.711  0.5881 -0.4500  0.1669
  562TIP3    H1 1692   3.378   0.542   1.626  1.3855 -1.6161  0.3444
  562TIP3    H2 1693   3.387   0.458   1.751  0.8908  0.7580  2.0458
  563TIP3   OH2 1694   2.768   0.817   0.435  0.1917 -0.0386  0.3235
  563TIP3    H1 1695   2.709   0.880   0.393  0.7913  1.4805  1.6404
  563TIP3    H2 1696   2.785   0.752   0.368 -0.4075  1.2385 -1.1381
  564TIP3   OH2 1697   0.037   0.080   1.189  0.5041  0.2478  0.0585
  564TIP3    H1 1698   0.005   0.152   1.136 -0.3101 -0.7904 -0.9163
  564TIP3    H2 1699   0.110   0.117   1.240 -0.0779  1.7981 -0.1948
  565TIP3   OH2 1700   3.620   1.965   0.394  0.0460  0.4321 -0.1510
  565TIP3    H1 1701   3.561   1.943   0.466  0.5753  0.5682  0.3258
  565TIP3    H2 1702   3.563   1.964   0.317 -0.2059 -1.4522 -0.0050
  566TIP3   OH2 1703   3.862   3.140   3.026  0.5589 -0.1107 -0.5577
  566TIP3    H1 1704   3.773   3.174   3.024  0.6916  0.2789  0.0525
  566TIP3    H2 1705   3.859   3.062   2.970 -0.3751 -0.6461  0.2214
  567TIP3   OH2 1706   0.299   2.454   2.689  0.3644 -0.0369 -0.4222
  567TIP3    H1 1707   0.328   2.536   2.729  0.1563 -0.1215 -0.0939
  567TIP3    H2 1708   0.275   2.478   2.600 -2.0874  0.7693  0.3748
  568TIP3   OH2 1709   4.676   5.401   0.932 -0.2845  0.6413 -0.0944
  568TIP3    H1 1710   4.611   5.471   0.923 -0.2649  0.7378  0.4690
  568TIP3    H2 1711   4.702   5.381   0.842  0.2132  1.8263 -0.2384
  569TIP3   OH2 1712   3.212   4.752   0.964  0.3511 -0.2079 -0.1437
  569TIP3    H1 1713   3.209   4.739   1.059  0.9990  1.6202  0.1581
  569TIP3    H2 1714   3.299   4.723   0.939  0.5708  0.3271 -0.0052
  570TIP3   OH2 1715   3.045   4.506   4.494 -0.9069 -0.1878 -0.4689
  570TIP3    H1 1716   3.132   4.532   4.523 -0.2598 -2.4415 -0.2646
  570TIP3    H2 1717   3.016   4.579   4.438 -0.0684  1.8454  1.6090
  571TIP3   OH2 1718   5.513   3.073   1.150 -0.4281  0.0081  0.0685
  571TIP3    H1 1719   5.467   3.156   1.159 -0.3646  0.0627 -0.0955
  571TIP3    H2 1720   5.602   3.098   1.126 -0.1525 -0.0733  0.9722
  572TIP3   OH2 1721   3.795   4.956   4.036 -0.4260 -0.3148  0.0664
  572TIP3    H1 1722   3.758   5.043   4.044 -0.1943  0.0928 -2.5397
  572TIP3    H2 1723   3.751   4.905   4.104 -1.7056  1.4380  0.6172
  573TIP3   OH2 1724   0.616   1.578   5.071  1.1690  0.6076  0.4149
  573TIP3    H1 1725   0.582   1.538   4.991 -0.7151 -0.0144  1.4723
  573TIP3    H2 1726   0.584   1.668   5.069  0.2635  0.3075  0.9262
  574TIP3   OH2 1727   6.172   3.386   5.106  0.2462 -0.2212 -0.1168
  574TIP3    H1 1728   6.216   3.331   5.040  0.0528  0.2735 -0.6717
  574TIP3    H2 1729   6.095   3.420   5.060 -0.0803 -0.1485  0.4844
  575TIP3   OH2 1730   3.869   0.159   4.582 -0.3809  0.5765  0.4736
  575TIP3    H1 1731   3.908   0.203   4.657  0.9701 -0.5195  0.4529
  575TIP3    H2 1732   3.863   0.227   4.514 -0.5439  1.2865  1.1877
  576TIP3   OH2 1733   1.435   1.904   0.493  0.2959  0.5538 -0.3227
  576TIP3    H1 1734   1.426   1.891   0.398  0.9252  0.4779 -0.3775
  576TIP3    H2 1735   1.392   1.827   0.531 -2.3948  1.8629 -0.4406
  577TIP3   OH2 1736   4.757   5.949   4.608  0.5533 -0.4741 -0.1210
  577TIP3    H1 1737   4.679   5.979   4.561 -0.1815  0.0151  1.3498
  577TIP3    H2 1738   4.733   5.863   4.641  0.8703 -0.5914 -0.1974
  578TIP3   OH2 1739   4.653   3.121   4.342 -0.0215  0.6382 -0.4979
  578TIP3    H1 1740   4.619   3.205   4.311 -0.9633  0.7703  0.7825
  578TIP3    H2 1741   4.693   3.142   4.427  2.0261  0.2213 -1.3182
  579TIP3   OH2 1742   3.133   4.097   0.848  0.8388  0.6845 -0.0278
  579TIP3    H1 1743   3.207   4.081   0.906  0.5053  0.1372  0.2508
  579TIP3    H2 1744   3.112   4.190   0.861  1.2864  0.7698  0.1047
  580TIP3   OH2 1745   3.380  -0.013   4.191  0.2830 -0.3293 -0.3754
  580TIP3    H1 1746   3.299  -0.044   4.152 -0.5446  1.3402 -0.0401
  580TIP3    H2 1747   3.354   0.059   4.249  2.0958  0.9546 -1.0552
  581TIP3   OH2 1748   3.064   2.796   2.590 -0.6847 -0.9262 -0.2170
  581TIP3    H1 1749   3.150   2.768   2.620 -0.7984 -1.1842 -0.1237
  581TIP3    H2 1750   3.023   2.716   2.555 -0.5830 -0.6419 -1.0018
  582TIP3   OH2 1751   3.583   1.745   2.056 -0.3144 -0.5384 -0.1420
  582TIP3    H1 1752   3.546   1.828   2.086 -1.5290 -0.8639 -0.6826
  582TIP3    H2 1753   3.523   1.679   2.090 -0.7625 -1.0221 -1.7833
  583TIP3   OH2 1754   1.464   1.247   2.467 -0.1403  0.1486 -0.2260
  583TIP3    H1 1755   1.432   1.157   2.469  1.1414 -0.3320 -0.0908
  583TIP3    H2 1756   1.428   1.288   2.546  1.8278 -1.2085  1.4755
  584TIP3   OH2 1757   0.970   3.989   2.099  0.0731  0.0181  0.5255
  584TIP3    H1 1758   0.944   4.063   2.155  1.0958  0.4773  0.4204
  584TIP3    H2 1759   1.066   3.997   2.092  0.1185 -0.9149 -0.0595
  585TIP3   OH2 1760   2.942   5.485   1.826  0.5532  0.2490 -0.3806
  585TIP3    H1 1761   2.914   5.496   1.917  1.3870  0.4818 -0.1401
  585TIP3    H2 1762   2.878   5.535   1.775 -0.6254 -0.8811 -0.0457
  586TIP3   OH2 1763   5.859   3.102   4.904  0.0339 -0.3804 -0.3079
  586TIP3    H1 1764   5.899   3.181   4.868  1.5875 -1.4192 -0.9596
  586TIP3    H2 1765   5.858   3.040   4.832  0.2896 -1.4729  0.5990
  587TIP3   OH2 1766   2.853   2.361   2.828  0.1184  0.6009 -0.0826
  587TIP3    H1 1767   2.897   2.412   2.896  0.1088  1.6679 -0.8553
  587TIP3    H2 1768   2.802   2.425   2.778  0.7982  0.0127 -1.6182
  588TIP3   OH2 1769   1.560   1.756   3.291 -0.3269 -0.6563  0.1597
  588TIP3    H1 1770   1.567   1.836   3.239 -0.2701 -1.0635 -0.4646
  588TIP3    H2 1771   1.650   1.724   3.297 -0.3954 -0.8536  0.1210
  589TIP3   OH2 1772   1.860   2.732   4.280  0.5102  0.1831 -0.0074
  589TIP3    H1 1773   1.896   2.733   4.369  0.3173 -1.9132  0.1347
  589TIP3    H2 1774   1.838   2.641   4.263 -2.9213  0.9989 -0.8372
  590TIP3   OH2 1775   0.345   2.204   2.664 -0.4142  0.2332 -0.8262
  590TIP3    H1 1776   0.324   2.294   2.689  2.3694 -0.2297  4.7072
  590TIP3    H2 1777   0.441   2.203   2.657  0.1496 -2.7610  3.3177
  591TIP3   OH2 1778   0.642   1.021   0.281  0.2629 -0.0737  0.3784
  591TIP3    H1 1779   0.601   1.014   0.196  0.5200 -1.9229  0.3778
  591TIP3    H2 1780   0.600   0.954   0.335  1.2558 -0.0602  1.2189
  592TIP3   OH2 1781   2.496   5.755   2.288  0.1523 -0.3621  0.4047
  592TIP3    H1 1782   2.487   5.716   2.375  0.8907 -0.2648  0.5282
  592TIP3    H2 1783   2.582   5.796   2.289  0.6974 -1.4212 -0.7875
  593TIP3   OH2 1784   5.686   3.671   3.720  0.1454 -0.6085  0.3848
  593TIP3    H1 1785   5.699   3.728   3.796  0.7384  0.4423 -0.4830
  593TIP3    H2 1786   5.633   3.723   3.660  0.2773 -1.1671 -0.2204
  594TIP3   OH2 1787   1.348   5.342   2.269 -0.2576  0.4160 -0.0921
  594TIP3    H1 1788   1.428   5.394   2.263  0.7428 -1.1693 -1.2416
  594TIP3    H2 1789   1.354   5.299   2.354  0.3052  0.0257 -0.3228
  595TIP3   OH2 1790   4.888   3.741   3.952  0.0124  0.1404 -0.3142
  595TIP3    H1 1791   4.983   3.733   3.953  0.0769  0.5024 -1.6944
  595TIP3    H2 1792   4.872   3.831   3.982  0.3463  1.3551 -3.4073
  596TIP3   OH2 1793   6.282   2.864   2.653  0.6682 -0.0253 -0.3989
  596TIP3    H1 1794   6.231   2.870   2.734  1.5035  0.8943  0.0871
  596TIP3    H2 1795   6.295   2.770   2.640 -1.2999 -0.3016 -0.6649
  597TIP3   OH2 1796   5.645   2.135   0.358 -0.3398  0.3923 -0.2300
  597TIP3    H1 1797   5.707   2.105   0.424  0.0863  0.1304 -0.7438
  597TIP3    H2 1798   5.560   2.130   0.402 -0.1357 -0.3576  0.1076
  598TIP3   OH2 1799   5.140   3.253   2.032  0.1803 -0.1260 -0.7651
  598TIP3    H1 1800   5.214   3.213   1.986  0.3556 -0.2464 -0.3751
  598TIP3    H2 1801   5.074   3.266   1.963  0.6405  0.1751 -1.1511
  599TIP3   OH2 1802   5.865   1.295   0.750 -0.0151 -0.4757 -0.3777
  599TIP3    H1 1803   5.858   1.208   0.710  0.2482  0.2837 -2.1710
  599TIP3    H2 1804   5.950   1.328   0.721  0.3959 -0.0415  1.2208
  600TIP3   OH2 1805   0.100   4.537   2.233 -0.2687  0.1647  0.0424
  600TIP3    H1 1806   0.042   4.582   2.295 -0.3618 -0.7228  0.6144
  600TIP3    H2 1807   0.108   4.448   2.268  0.8725  0.0745 -0.4224
  601TIP3   OH2 1808   3.534   0.251   3.837 -0.2564 -0.4830 -0.0652
  601TIP3    H1 1809   3.513   0.265   3.929  0.2414 -0.3444  0.0295
  601TIP3    H2 1810   3.503   0.162   3.818 -0.3317 -0.5215  0.2409
  602TIP3   OH2 1811   5.761   1.301   3.056 -0.3001 -0.2372 -0.2356
  602TIP3    H1 1812   5.839   1.267   3.099 -0.3643  3.1348  3.0673
  602TIP3    H2 1813   5.736   1.233   2.993  3.8529 -2.4978  0.2144
  603TIP3   OH2 1814   1.795   5.862   2.231 -0.0051  0.2343  0.2110
  603TIP3    H1 1815   1.737   5.936   2.252 -0.6625 -0.4196  0.7813
  603TIP3    H2 1816   1.772   5.838   2.141 -0.4818  0.1132  0.3623
  604TIP3   OH2 1817   3.121   0.966   0.212  0.1262  0.6989 -0.9847
  604TIP3    H1 1818   3.200   0.991   0.165  0.4105 -0.3847 -1.1079
  604TIP3    H2 1819   3.069   1.046   0.215  1.7097  1.7546  0.1016
  605TIP3   OH2 1820   0.074   1.335   2.132 -0.0029  0.0284 -0.1105
  605TIP3    H1 1821   0.023   1.401   2.086 -1.4861 -0.4511  0.7800
  605TIP3    H2 1822   0.118   1.286   2.063 -1.4195 -0.0822 -0.9711
  606TIP3   OH2 1823   5.893   5.722   0.933  0.0461  0.1604 -0.1309
  606TIP3    H1 1824   5.867   5.702   0.843 -0.3346 -1.7000  0.3477
  606TIP3    H2 1825   5.811   5.727   0.982  0.2054  1.8116  0.0351
  607TIP3   OH2 1826   6.085   2.277   1.052  0.4339  0.2690 -0.7048
  607TIP3    H1 1827   6.001   2.320   1.031 -0.7639 -1.9727 -0.8042
  607TIP3    H2 1828   6.083   2.196   1.002  1.7747 -0.7688  0.8337
  608TIP3   OH2 1829   5.493   3.499   4.411 -0.3620  0.1447 -0.1287
  608TIP3    H1 1830   5.455   3.573   4.459 -0.3562  0.1143 -0.0760
  608TIP3    H2 1831   5.417   3.448   4.382 -0.4249  0.9169 -1.3899
  609TIP3   OH2 1832   2.542   0.507   0.491 -0.5969 -0.1572  0.0626
  609TIP3    H1 1833   2.463   0.487   0.442 -0.8673  0.5361  0.1961
  609TIP3    H2 1834   2.614   0.477   0.435 -0.9433 -0.5891 -0.1562
  610TIP3   OH2 1835   2.307   5.339   4.235  0.4680  0.1408 -0.1393
  610TIP3    H1 1836   2.225   5.346   4.283  0.8040 -0.1861  0.4980
  610TIP3    H2 1837   2.317   5.246   4.217 -1.1436  0.4690 -3.5455
  611TIP3   OH2 1838   0.899   0.148   2.862  0.4283  0.0217  0.5677
  611TIP3    H1 1839   0.885   0.210   2.791  0.0460  0.9037  1.3919
  611TIP3    H2 1840   0.814   0.105   2.874  0.7997 -0.9720 -0.2745
  612TIP3   OH2 1841   0.451   2.105   2.265  0.2114  0.4967  0.4072
  612TIP3    H1 1842   0.411   2.165   2.328  0.2196  1.6622 -0.6697
  612TIP3    H2 1843   0.382   2.090   2.200  0.5689  0.2083  0.0916
  613TIP3   OH2 1844   2.844   2.052   0.523 -0.2548 -0.5485 -0.2382
  613TIP3    H1 1845   2.757   2.089   0.513 -0.0106  0.4225  0.9445
  613TIP3    H2 1846   2.829   1.961   0.549 -0.9657 -0.0711  1.1314
  614TIP3   OH2 1847   3.869   4.599   4.616 -0.4092  0.2854 -0.8456
  614TIP3    H1 1848   3.883   4.515   4.574  1.1285  0.8479 -1.5438
  614TIP3    H2 1849   3.917   4.593   4.699 -0.5020  0.3767 -0.7846
  615TIP3   OH2 1850   2.543   0.688   1.692 -0.2395 -0.0627  0.1642
  615TIP3    H1 1851   2.505   0.731   1.615 -1.9410  0.5736  1.2925
  615TIP3    H2 1852   2.530   0.594   1.676 -0.6055  0.0663 -0.3176
  616TIP3   OH2 1853   3.443   0.888   0.911  0.3822 -0.9239 -0.0376
  616TIP3    H1 1854   3.357   0.903   0.872  0.8796 -0.6168 -1.0602
  616TIP3    H2 1855   3.426   0.880   1.005 -0.3832  2.9741  0.3266
  617TIP3   OH2 1856   0.263   1.404   3.273 -0.1108  0.1726 -0.6075
  617TIP3    H1 1857   0.270   1.463   3.348  1.7397  1.0023 -1.3587
  617TIP3    H2 1858   0.287   1.318   3.308  1.1352  0.6234 -0.2792
  618TIP3   OH2 1859   5.340   5.614   1.970  0.4903 -0.0723 -0.1262
  618TIP3    H1 1860   5.264   5.639   1.917  0.7341  1.9705  0.4050
  618TIP3    H2 1861   5.321   5.524   1.998 -1.3475  0.0941 -0.6783
  619TIP3   OH2 1862   5.228   5.858   2.796  0.0307  0.0032 -0.1074
  619TIP3    H1 1863   5.323   5.855   2.784  0.0925  0.9833  0.0571
  619TIP3    H2 1864   5.208   5.951   2.805 -0.6872 -0.3050  1.8881
  620TIP3   OH2 1865   2.349   4.131   4.796 -0.5336  0.7004  0.3101
  620TIP3    H1 1866   2.330   4.208   4.850 -0.6150  0.1157  1.1346
  620TIP3    H2 1867   2.281   4.068   4.820 -1.6282  1.0183 -1.7355
  621TIP3   OH2 1868   4.808   0.182   1.283  0.1062  0.3451  0.4262
  621TIP3    H1 1869   4.754   0.209   1.357 -2.4349  0.1560 -1.2426
  621TIP3    H2 1870   4.860   0.109   1.316  0.0215  1.0851  2.3284
  622TIP3   OH2 1871   5.073   1.074   1.625 -0.5779 -0.1528 -0.5370
  622TIP3    H1 1872   5.001   1.129   1.593 -1.4385 -2.1872 -2.3586
  622TIP3    H2 1873   5.100   1.022   1.549  1.1843 -1.1888  0.7096
  623TIP3   OH2 1874   3.362   0.988   2.214 -0.3613 -0.2953 -0.1340
  623TIP3    H1 1875   3.419   1.060   2.243  2.0820 -1.6454 -1.2053
  623TIP3    H2 1876   3.358   0.997   2.119 -0.9585 -0.9388 -0.1755
  624TIP3   OH2 1877   1.525   0.355   4.258  0.0490 -0.4940 -0.0624
  624TIP3    H1 1878   1.616   0.380   4.270  0.0083  0.2403 -1.1260
  624TIP3    H2 1879   1.478   0.400   4.328  0.6069 -1.6469  1.0816
  625TIP3   OH2 1880   5.485   1.029   1.775 -0.6238  0.0132 -0.3379
  625TIP3    H1 1881   5.440   1.111   1.756 -1.5561 -0.5651 -0.6678
  625TIP3    H2 1882   5.499   1.030   1.870 -1.0160  0.3583 -0.2838
  626TIP3   OH2 1883   1.898   5.393   4.005  0.4156 -0.3302  0.3061
  626TIP3    H1 1884   1.976   5.338   3.996  1.3399  0.9871  0.0758
  626TIP3    H2 1885   1.926   5.480   3.978 -0.8534  0.4126  1.2754
  627TIP3   OH2 1886   5.870   0.700   0.921  1.0193  0.2481 -0.1365
  627TIP3    H1 1887   5.830   0.698   1.007  0.3787 -0.4937 -0.4332
  627TIP3    H2 1888   5.879   0.607   0.897 -2.6728  0.3126 -2.5669
  628TIP3   OH2 1889   5.111   4.776   3.811  0.0371  0.0641  0.0714
  628TIP3    H1 1890   5.064   4.703   3.770 -1.6421  1.7368 -1.1696
  628TIP3    H2 1891   5.055   4.852   3.796  1.9584  1.7317  0.8361
  629TIP3   OH2 1892   3.756   2.838   2.973 -0.1325  0.3350  0.4340
  629TIP3    H1 1893   3.743   2.819   2.880  0.4447  1.7320  0.0347
  629TIP3    H2 1894   3.846   2.870   2.978 -0.3674  0.8795  1.3764
  630TIP3   OH2 1895   5.197   2.036   0.600 -0.1278 -0.1008  0.4716
  630TIP3    H1 1896   5.210   1.955   0.552  1.3817 -1.4305  2.9213
  630TIP3    H2 1897   5.278   2.086   0.585 -0.0218 -0.1407  0.8852
  631TIP3   OH2 1898   3.763   2.690   5.110  0.3852  0.8454  0.8218
  631TIP3    H1 1899   3.710   2.646   5.176 -1.1972 -0.1721 -1.0211
  631TIP3    H2 1900   3.714   2.769   5.089  0.1908  0.4944 -0.0642
  632TIP3   OH2 1901   2.117   0.036   1.462  0.3208 -0.8703  0.1928
  632TIP3    H1 1902   2.181   0.021   1.531  1.5143 -0.9306 -0.8753
  632TIP3    H2 1903   2.079   0.122   1.482  1.1726 -0.5636  0.5389
  633TIP3   OH2 1904   4.608   0.181   1.786 -0.1935 -0.5411  0.3577
  633TIP3    H1 1905   4.617   0.233   1.865 -1.7637 -0.0655  0.2598
  633TIP3    H2 1906   4.520   0.143   1.792  0.2624 -1.7741 -0.4040
  634TIP3   OH2 1907   4.343   4.957   3.737 -0.0624 -0.0979  0.1525
  634TIP3    H1 1908   4.335   5.045   3.775 -2.3866 -0.1105 -0.1586
  634TIP3    H2 1909   4.392   4.970   3.656 -1.8932  1.2644 -0.8197
  635TIP3   OH2 1910   1.067   3.200   2.878 -0.6047 -0.1318  0.1571
  635TIP3    H1 1911   1.059   3.287   2.917  1.6455  0.6375 -0.9014
  635TIP3    H2 1912   0.977   3.167   2.874 -1.4812  1.9886  0.9100
  636TIP3   OH2 1913   2.202   4.458   3.214  0.0509  0.1375  0.5042
  636TIP3    H1 1914   2.226   4.465   3.122  0.6197  0.7890  0.6922
  636TIP3    H2 1915   2.107   4.453   3.214  0.1282 -2.5020 -0.2610
  637TIP3   OH2 1916   3.959   4.536   0.422 -0.3421 -0.2608  0.0899
  637TIP3    H1 1917   3.938   4.443   0.421  0.4370 -0.4531 -1.2634
  637TIP3    H2 1918   3.994   4.552   0.509 -1.0019 -1.1028  0.5244
  638TIP3   OH2 1919   1.156   5.445   2.002 -0.3601  0.0390 -0.0195
  638TIP3    H1 1920   1.084   5.398   1.960  0.1372 -1.1055  0.3501
  638TIP3    H2 1921   1.126   5.460   2.092 -0.1458 -0.4454  0.1369
  639TIP3   OH2 1922   1.126   3.550   0.720 -0.1708 -0.4849 -0.3696
  639TIP3    H1 1923   1.152   3.489   0.789  0.5581  2.0704  1.7768
  639TIP3    H2 1924   1.032   3.563   0.734 -0.1521 -0.4491 -0.2796
  640TIP3   OH2 1925   1.255   1.219   3.268 -0.6149  0.1463  0.2453
  640TIP3    H1 1926   1.223   1.176   3.188 -1.2025 -1.2918  1.2135
  640TIP3    H2 1927   1.347   1.196   3.272 -0.6933 -0.1717  0.2277
  641TIP3   OH2 1928   1.646   4.178   1.549  0.1250 -0.1104 -0.1291
  641TIP3    H1 1929   1.599   4.111   1.598 -2.5506  1.7954  0.1175
  641TIP3    H2 1930   1.594   4.189   1.469  2.3550 -0.5606 -1.7303
  642TIP3   OH2 1931   0.310   3.326   0.459 -0.4306 -0.3288 -0.1622
  642TIP3    H1 1932   0.269   3.242   0.483  0.3886 -0.6963 -0.0353
  642TIP3    H2 1933   0.398   3.303   0.431 -0.4936  0.3970 -1.0093
  643TIP3   OH2 1934   5.860   5.119   0.259 -0.2393  0.5219  0.1370
  643TIP3    H1 1935   5.781   5.102   0.312  0.3915 -2.0611  0.3816
  643TIP3    H2 1936   5.835   5.092   0.171  0.3746 -0.3375  0.2233
  644TIP3   OH2 1937   5.660   4.708   4.981  0.3061 -0.6693 -0.1995
  644TIP3    H1 1938   5.616   4.760   5.048  0.9627 -1.0421  0.5317
  644TIP3    H2 1939   5.737   4.760   4.957 -0.1069 -0.3732 -0.9293
  645TIP3   OH2 1940   5.213   4.557   5.106 -0.3218  0.1837 -0.1357
  645TIP3    H1 1941   5.261   4.615   5.165  1.0570  0.0014 -1.0222
  645TIP3    H2 1942   5.174   4.614   5.040  1.2429  0.1452 -1.1530
  646TIP3   OH2 1943   5.646   2.293   2.001 -0.2934 -0.3323 -0.0643
  646TIP3    H1 1944   5.608   2.367   2.049  0.3769 -0.6614  0.9901
  646TIP3    H2 1945   5.633   2.218   2.058  4.6176 -0.0431  1.9067
  647TIP3   OH2 1946   4.311   3.637   3.583 -0.4445  0.3397  0.0500
  647TIP3    H1 1947   4.317   3.708   3.520 -0.3841 -0.6142 -1.0594
  647TIP3    H2 1948   4.226   3.597   3.567 -0.5716  0.2907  0.8108
  648TIP3   OH2 1949   3.457   1.061   4.824 -0.3147 -0.0426  0.4519
  648TIP3    H1 1950   3.367   1.093   4.823 -0.9815 -1.5822 -3.2242
  648TIP3    H2 1951   3.452   0.975   4.867 -0.7235 -0.3701 -0.2434
  649TIP3   OH2 1952   4.283   1.082   3.877  0.3905  0.2207  0.1754
  649TIP3    H1 1953   4.314   1.084   3.786  0.2472 -1.0549  0.0856
  649TIP3    H2 1954   4.192   1.051   3.871  0.6966 -0.8277  0.8291
  650TIP3   OH2 1955   4.743   2.434   5.111  0.1604  0.2975  0.4638
  650TIP3    H1 1956   4.805   2.434   5.184  0.5231 -1.3193  0.1996
  650TIP3    H2 1957   4.686   2.360   5.128 -0.5124  0.6296 -0.2851
  651TIP3   OH2 1958   0.910   1.750   2.334  0.8198  0.3697  0.6398
  651TIP3    H1 1959   0.980   1.808   2.304  0.3955  0.4731 -0.1992
  651TIP3    H2 1960   0.838   1.766   2.272  0.3302 -0.2911  1.0237
  652TIP3   OH2 1961   2.680   4.635   1.765  0.8132 -0.1395 -0.1856
  652TIP3    H1 1962   2.646   4.725   1.769  0.0846 -0.3621 -1.0555
  652TIP3    H2 1963   2.602   4.580   1.762  1.2477 -0.9028  1.6341
  653TIP3   OH2 1964   0.987   2.852   3.125  0.5519 -0.2754 -0.0967
  653TIP3    H1 1965   0.985   2.820   3.035 -0.5046 -0.3981 -0.0397
  653TIP3    H2 1966   1.056   2.802   3.167 -0.5756 -1.9968 -0.1978
  654TIP3   OH2 1967   1.548   3.066   1.774 -0.7691  0.2792  0.2099
  654TIP3    H1 1968   1.599   3.096   1.850 -1.7431  3.3522 -0.2147
  654TIP3    H2 1969   1.615   3.045   1.708  0.0791  2.1831  0.3760
  655TIP3   OH2 1970   2.302   0.503   4.851  0.0359  0.3448  0.4017
  655TIP3    H1 1971   2.332   0.556   4.777 -1.8693  3.0321  1.3997
  655TIP3    H2 1972   2.244   0.561   4.900 -1.3894 -2.4065  2.2107
  656TIP3   OH2 1973   5.367   3.859   1.499 -0.2707  0.0884 -0.5078
  656TIP3    H1 1974   5.353   3.913   1.421 -0.2590 -0.1242 -0.6575
  656TIP3    H2 1975   5.353   3.919   1.573 -0.7235  0.1791 -0.6687
  657TIP3   OH2 1976   0.404   0.960   2.152  0.0034 -0.1207  0.0449
  657TIP3    H1 1977   0.365   0.991   2.233  1.4203  1.6277  0.1068
  657TIP3    H2 1978   0.458   0.885   2.178  1.3860  1.1521  0.9518
  658TIP3   OH2 1979   6.089   1.869   0.782  0.3825 -0.2778 -0.4069
  658TIP3    H1 1980   6.176   1.840   0.755  2.0417  1.5320  2.5157
  658TIP3    H2 1981   6.082   1.842   0.874 -1.9419  0.1116 -0.4077
  659TIP3   OH2 1982   5.132   4.634   2.271 -0.1348 -0.0116  0.3864
  659TIP3    H1 1983   5.219   4.606   2.302 -0.1066  0.1855  0.4889
  659TIP3    H2 1984   5.104   4.564   2.212  0.1570 -0.0078  0.2399
  660TIP3   OH2 1985   4.215   4.470   2.701 -0.6070  0.4290  0.0400
  660TIP3    H1 1986   4.187   4.537   2.637  0.8086  1.6930  0.6802
  660TIP3    H2 1987   4.239   4.520   2.779  0.2750 -0.8677  0.6327
  661TIP3   OH2 1988   3.808   3.466   3.070  0.4948 -0.2832  0.2532
  661TIP3    H1 1989   3.850   3.551   3.063 -0.9564  0.3836 -0.9270
  661TIP3    H2 1990   3.804   3.433   2.980 -1.8939 -0.0695  0.2081
  662TIP3   OH2 1991   4.131   5.590   1.931  0.3813  0.0845  0.0007
  662TIP3    H1 1992   4.202   5.610   1.991  1.0231 -0.3853 -0.5805
  662TIP3    H2 1993   4.054   5.633   1.968  0.3769 -1.5322  2.0402
  663TIP3   OH2 1994   4.589   2.411   1.955  0.1995 -0.2448  0.2732
  663TIP3    H1 1995   4.510   2.459   1.928  0.5112  0.1041 -0.0191
  663TIP3    H2 1996   4.628   2.466   2.023  0.7919  0.1336 -0.3662
  664TIP3   OH2 1997   1.706   3.335   3.390  0.1824 -0.3298  0.0043
  664TIP3    H1 1998   1.750   3.270   3.446  1.2714  0.3030 -0.0832
  664TIP3    H2 1999   1.766   3.345   3.316  0.3496  1.2362  0.3257
  665TIP3   OH2 2000   3.984   2.165   3.357  0.4295 -0.3781 -0.1309
  665TIP3    H1 2001   3.962   2.087   3.306  1.1773 -0.3357 -0.5357
  665TIP3    H2 2002   3.977   2.137   3.448 -0.3693 -0.6150 -0.2596
  666TIP3   OH2 2003   0.427   5.860   3.931 -0.1094 -0.4492 -0.4986
  666TIP3    H1 2004   0.434   5.796   4.001  0.0601 -0.4932 -0.5549
  666TIP3    H2 2005   0.483   5.826   3.862  0.6008  0.1568 -0.2291
  667TIP3   OH2 2006   3.971   2.451   1.465 -0.3593  0.2529 -0.2827
  667TIP3    H1 2007   4.048   2.498   1.497 -0.2159 -0.9682  1.3069
  667TIP3    H2 2008   3.969   2.469   1.371  2.0665  0.0561 -0.4334
  668TIP3   OH2 2009   0.947   2.508   4.375 -0.5649 -0.3206 -0.2350
  668TIP3    H1 2010   0.883   2.563   4.420 -0.8477  0.6744 -1.7877
  668TIP3    H2 2011   1.031   2.537   4.410 -0.8770 -1.1616  1.3062
  669TIP3   OH2 2012   1.685   5.056   0.663  0.2424  0.0835  0.1414
  669TIP3    H1 2013   1.744   5.023   0.731 -1.7641 -0.5928  1.6505
  669TIP3    H2 2014   1.597   5.042   0.698 -0.8924  0.0620 -2.4479
  670TIP3   OH2 2015   0.486   4.667   4.410  0.5433 -0.6499 -0.2571
  670TIP3    H1 2016   0.467   4.725   4.336 -0.6728 -0.3653  0.2627
  670TIP3    H2 2017   0.497   4.726   4.485 -0.9408 -1.0587  0.3220
  671TIP3   OH2 2018   0.666   0.445   1.213 -0.1334 -0.3333 -0.6000
  671TIP3    H1 2019   0.617   0.363   1.206 -2.6475  0.8230  1.5775
  671TIP3    H2 2020   0.637   0.497   1.138 -2.2506  0.2596  0.5504
  672TIP3   OH2 2021   6.168   0.400   4.617  0.1737  0.1650  0.1595
  672TIP3    H1 2022   6.092   0.389   4.673 -1.4848 -1.0706 -2.1515
  672TIP3    H2 2023   6.148   0.477   4.564  0.7931  0.1538 -0.1029
  673TIP3   OH2 2024   5.133   0.142   1.244 -0.2548 -0.2228 -1.2416
  673TIP3    H1 2025   5.151   0.057   1.204  0.0414  0.2322 -2.1010
  673TIP3    H2 2026   5.109   0.122   1.335  2.9217 -1.0511 -0.4537
  674TIP3   OH2 2027   3.877   2.000   2.752  0.4680 -0.0400 -0.6995
  674TIP3    H1 2028   3.906   1.911   2.772  0.2447  0.0346 -0.0132
  674TIP3    H2 2029   3.816   2.022   2.822 -2.6615 -0.8346 -2.9905
  675TIP3   OH2 2030   4.382   0.832   3.979  0.1675  0.8334  0.0957
  675TIP3    H1 2031   4.328   0.816   3.901  2.0156 -0.2020 -1.0412
  675TIP3    H2 2032   4.395   0.927   3.980  0.1461  0.8578 -0.8743
  676TIP3   OH2 2033   2.789   1.681   1.141  0.2059  0.2290 -0.0257
  676TIP3    H1 2034   2.779   1.586   1.135  1.4503  0.1473 -1.3495
  676TIP3    H2 2035   2.880   1.694   1.166  0.2896  1.0721 -0.7005
  677TIP3   OH2 2036   0.852   0.853   0.948  0.2067  0.0278  0.3105
  677TIP3    H1 2037   0.789   0.791   0.910 -0.0642 -0.0285  0.8505
  677TIP3    H2 2038   0.803   0.897   1.017  0.3686  0.9109 -0.1208
  678TIP3   OH2 2039   2.559   2.764   1.620 -0.1156 -0.2095  0.1415
  678TIP3    H1 2040   2.505   2.826   1.669 -0.3022 -0.9010  0.8341
  678TIP3    H2 2041   2.536   2.678   1.656  0.4780 -0.6404 -0.4735
  679TIP3   OH2 2042   0.338   5.055   0.492 -0.4547 -0.2776  0.1485
  679TIP3    H1 2043   0.265   5.093   0.442  1.0470  0.0543 -1.9125
  679TIP3    H2 2044   0.401   5.127   0.501  0.0462 -0.8089  1.1124
  680TIP3   OH2 2045   3.233   5.299   1.151  0.6713  0.1298 -0.2509
  680TIP3    H1 2046   3.315   5.347   1.135 -0.0056  1.0511 -1.0880
  680TIP3    H2 2047   3.165   5.365   1.140 -0.3670 -1.2108 -2.3675
  681TIP3   OH2 2048   5.334   4.361   4.292  0.0111 -0.3117  0.4140
  681TIP3    H1 2049   5.258   4.379   4.347  0.3963  0.7481  0.6396
  681TIP3    H2 2050   5.324   4.420   4.217 -0.8307 -2.1784 -1.0203
  682TIP3   OH2 2051   5.677   4.203   5.144  0.0641  0.3021 -0.3381
  682TIP3    H1 2052   5.645   4.278   5.095  2.1600  1.5226  0.0225
  682TIP3    H2 2053   5.771   4.201   5.125  0.1140 -2.1228 -0.1722
  683TIP3   OH2 2054   0.216   2.940   2.743 -0.0314 -0.4835 -0.2530
  683TIP3    H1 2055   0.253   2.990   2.671 -0.7678  1.2857  0.5192
  683TIP3    H2 2056   0.122   2.936   2.723 -0.3371  0.5610  0.8736
  684TIP3   OH2 2057   3.728   1.335   1.233 -0.2322 -0.0398 -0.7642
  684TIP3    H1 2058   3.752   1.313   1.143  0.4692  0.2464 -0.6564
  684TIP3    H2 2059   3.750   1.428   1.241  1.7096 -0.5263  0.3132
  685TIP3   OH2 2060   2.512   0.142   4.611  0.1309  0.0768 -0.0312
  685TIP3    H1 2061   2.463   0.141   4.528  2.2681  0.3026 -1.3484
  685TIP3    H2 2062   2.595   0.183   4.590  0.5797  0.5261  2.3626
  686TIP3   OH2 2063   1.677   2.574   2.322  0.3959 -0.5111 -0.0481
  686TIP3    H1 2064   1.675   2.531   2.236 -0.9031 -0.8291  0.1316
  686TIP3    H2 2065   1.676   2.502   2.385 -1.9075 -0.2745  0.2546
  687TIP3   OH2 2066   1.059   5.115   2.462 -0.1781 -0.6140  0.4259
  687TIP3    H1 2067   1.032   5.154   2.379 -1.7182 -2.4298  0.0166
  687TIP3    H2 2068   1.148   5.147   2.475 -0.1398  0.2663 -1.5799
  688TIP3   OH2 2069   4.652   5.018   0.970  0.2502 -0.2949 -0.2280
  688TIP3    H1 2070   4.680   4.929   0.992  1.0870  0.3914  1.6565
  688TIP3    H2 2071   4.588   5.041   1.037  0.2668  0.6412 -0.5209
  689TIP3   OH2 2072   5.280   4.854   2.713  0.7031  0.1668  0.2973
  689TIP3    H1 2073   5.323   4.926   2.667 -1.7390  0.3407 -1.9364
  689TIP3    H2 2074   5.302   4.776   2.662  0.7092 -0.1755  0.8182
  690TIP3   OH2 2075   5.435   1.155   3.998  0.7844 -0.4746 -0.2721
  690TIP3    H1 2076   5.513   1.202   4.028  2.0844 -1.9133 -1.2629
  690TIP3    H2 2077   5.406   1.106   4.075  0.4126  0.6031  0.2960
  691TIP3   OH2 2078   4.460   1.342   1.166 -0.4148  0.3468  0.0153
  691TIP3    H1 2079   4.439   1.273   1.103  0.7786  0.1911 -0.2329
  691TIP3    H2 2080   4.555   1.353   1.159 -0.2913  0.4914  1.6238
  692TIP3   OH2 2081   4.223   1.823   1.591 -0.5483 -0.0891 -0.2201
  692TIP3    H1 2082   4.179   1.895   1.636 -1.6480 -0.9982  0.2333
  692TIP3    H2 2083   4.297   1.863   1.547 -1.8803  1.5573 -1.0864
  693TIP3   OH2 2084   4.516   2.835   2.438 -0.3525 -0.3589 -0.3880
  693TIP3    H1 2085   4.457   2.770   2.399 -1.6556  1.3355 -1.3905
  693TIP3    H2 2086   4.465   2.916   2.440  1.4517  0.8387  0.1154
  694TIP3   OH2 2087   3.001   5.480   0.216 -0.6378  0.4625 -0.0659
  694TIP3    H1 2088   2.963   5.402   0.256 -1.2016  1.3691  1.2402
  694TIP3    H2 2089   3.053   5.520   0.286 -1.3535  1.8960 -0.3171
  695TIP3   OH2 2090   3.132   4.199   0.535 -0.3338  0.0520 -0.5234
  695TIP3    H1 2091   3.224   4.221   0.551 -0.8916  0.6168  2.4471
  695TIP3    H2 2092   3.090   4.284   0.521 -0.9145  0.1590  1.5655
  696TIP3   OH2 2093   4.738   4.298   2.718  0.3488 -0.2011 -0.3274
  696TIP3    H1 2094   4.724   4.305   2.624 -2.6131  0.7930  0.0959
  696TIP3    H2 2095   4.830   4.323   2.730 -0.1173  3.3740 -2.6189
  697TIP3   OH2 2096   5.433   5.152   4.784 -0.4128 -0.1157  0.3861
  697TIP3    H1 2097   5.452   5.127   4.693  1.2586  0.9432  0.4063
  697TIP3    H2 2098   5.475   5.084   4.837  1.3493  0.9164  0.3835
  698TIP3   OH2 2099   1.016   5.049   0.127 -0.2137  0.1785 -0.0033
  698TIP3    H1 2100   1.054   4.993   0.194 -2.9399 -0.7091  0.9445
  698TIP3    H2 2101   1.090   5.075   0.072  1.4188 -3.2229  0.3080
  699TIP3   OH2 2102   0.669   2.208   1.486  0.0415  0.3080  0.1696
  699TIP3    H1 2103   0.754   2.246   1.461 -0.7321  2.2760  0.3779
  699TIP3    H2 2104   0.605   2.257   1.435 -1.0420 -0.5581  0.6780
  700TIP3   OH2 2105   4.597   1.365   0.316  0.2716  0.0449 -0.0337
  700TIP3    H1 2106   4.653   1.405   0.383  0.7334 -1.5783  0.5870
  700TIP3    H2 2107   4.645   1.380   0.234 -0.0502  1.5920  0.0253
  701TIP3   OH2 2108   1.157   5.297   3.295 -0.7195 -0.3539 -0.3500
  701TIP3    H1 2109   1.166   5.345   3.377  1.7466 -1.3572  0.0413
  701TIP3    H2 2110   1.216   5.222   3.304 -2.2977 -1.9081 -2.0596
  702TIP3   OH2 2111   5.440   1.358   3.060 -0.3406  0.3768 -0.1561
  702TIP3    H1 2112   5.517   1.326   3.013 -0.2521  1.5051 -0.8231
  702TIP3    H2 2113   5.366   1.313   3.018 -0.1605  0.4414 -0.5491
  703TIP3   OH2 2114   1.761   1.181   2.857 -0.2735  0.1275  0.0304
  703TIP3    H1 2115   1.675   1.138   2.856 -0.6147  0.7513 -1.5738
  703TIP3    H2 2116   1.774   1.209   2.766  1.2247  0.8559  0.4422
  704TIP3   OH2 2117   5.864   0.232   3.790 -0.0241  0.9524 -0.0520
  704TIP3    H1 2118   5.952   0.252   3.821  0.2426 -0.3399  0.0793
  704TIP3    H2 2119   5.812   0.310   3.811  0.6978  1.0493  1.4211
  705TIP3   OH2 2120   2.975   3.325   3.574 -0.0528 -0.5689  0.3831
  705TIP3    H1 2121   3.020   3.244   3.548 -0.7234 -0.9676  0.4590
  705TIP3    H2 2122   2.890   3.296   3.606 -0.3585  0.1827  0.2634
  706TIP3   OH2 2123   0.272   2.769   4.027  0.4172 -0.0916  0.1346
  706TIP3    H1 2124   0.323   2.821   3.966  0.1280  2.5195  1.9240
  706TIP3    H2 2125   0.336   2.740   4.093  0.0674  0.9993  0.9887
  707TIP3   OH2 2126   1.896   3.442   0.699  0.1774 -0.1268 -0.4279
  707TIP3    H1 2127   1.966   3.390   0.658  0.4073 -0.1188 -0.0454
  707TIP3    H2 2128   1.815   3.404   0.665  0.3771  0.3850 -1.5226
  708TIP3   OH2 2129   6.126   3.451   0.917 -0.0384  0.8507  0.0368
  708TIP3    H1 2130   6.103   3.423   1.006  1.0002  1.1560  0.4105
  708TIP3    H2 2131   6.183   3.526   0.929 -0.4046  1.2943 -0.9133
  709TIP3   OH2 2132   3.384   3.287   4.372  0.3820  0.1883  0.0947
  709TIP3    H1 2133   3.353   3.339   4.298 -2.6449 -0.2555  0.9363
  709TIP3    H2 2134   3.457   3.236   4.336 -1.1171 -0.1925 -2.6639
  710TIP3   OH2 2135   4.410   0.721   4.212 -0.1946  0.9580 -0.4030
  710TIP3    H1 2136   4.318   0.697   4.222  0.1525 -0.6806 -0.8416
  710TIP3    H2 2137   4.420   0.737   4.118  0.5011 -1.4501 -0.8000
  711TIP3   OH2 2138   2.950   5.502   2.894 -0.0237 -0.7080 -0.0650
  711TIP3    H1 2139   2.877   5.525   2.951 -1.0862 -0.8569 -1.3167
  711TIP3    H2 2140   2.985   5.587   2.865  1.8325 -0.5507  2.3012
  712TIP3   OH2 2141   6.127   2.509   0.065  0.0849 -0.1987 -0.0730
  712TIP3    H1 2142   6.073   2.516  -0.014 -0.7227  0.9226  0.5381
  712TIP3    H2 2143   6.172   2.594   0.070  0.7184 -0.5455  0.2734
  713TIP3   OH2 2144   0.451   0.749   0.655 -0.1036 -0.0783 -0.4059
  713TIP3    H1 2145   0.438   0.741   0.561 -1.3734 -0.6409 -0.2002
  713TIP3    H2 2146   0.387   0.689   0.693 -0.1575  0.7380  0.8358
  714TIP3   OH2 2147   3.435   1.499   1.854  0.1196 -0.3522  0.1498
  714TIP3    H1 2148   3.454   1.490   1.948  2.1867  1.4987 -0.0121
  714TIP3    H2 2149   3.492   1.435   1.812 -1.2096 -1.5745  0.1265
  715TIP3   OH2 2150   2.652   2.808   4.944  0.2816 -0.3762  0.8274
  715TIP3    H1 2151   2.691   2.722   4.960 -0.3886 -0.8750 -0.1134
  715TIP3    H2 2152   2.587   2.792   4.876 -0.4184  0.7342  1.2106
  716TIP3   OH2 2153   1.516   1.613   4.889 -0.6096 -0.1928 -0.5140
  716TIP3    H1 2154   1.468   1.677   4.836 -1.2321 -0.5060 -0.3475
  716TIP3    H2 2155   1.536   1.542   4.828 -1.5264 -0.6564 -0.2934
  717TIP3   OH2 2156   0.906   2.337   1.394 -0.0644  0.3037 -0.0607
  717TIP3    H1 2157   0.988   2.289   1.380 -0.5757 -0.1690 -1.5715
  717TIP3    H2 2158   0.931   2.410   1.450  1.3246 -0.0360 -0.1946
  718TIP3   OH2 2159   5.933   0.118   0.723 -0.3526  0.0230  0.2450
  718TIP3    H1 2160   5.868   0.087   0.786 -0.7859  1.4444  0.5251
  718TIP3    H2 2161   6.013   0.126   0.773  0.0116 -1.4491 -0.0353
  719TIP3   OH2 2162   3.586   3.656   1.555 -0.5399 -0.3339  0.3598
  719TIP3    H1 2163   3.584   3.563   1.577 -0.7302 -0.1067  1.3309
  719TIP3    H2 2164   3.645   3.662   1.480  1.2319 -0.9543  1.6587
  720TIP3   OH2 2165   1.149   0.941   4.176 -0.1387 -0.5178  0.1728
  720TIP3    H1 2166   1.114   0.852   4.166  1.7519 -1.3181  0.2231
  720TIP3    H2 2167   1.080   0.998   4.142 -0.8314 -2.0812 -1.1707
  721TIP3   OH2 2168   2.540   1.115   4.516  0.2843  0.0747 -0.3983
  721TIP3    H1 2169   2.538   1.120   4.612  0.3734  2.7808 -0.4695
  721TIP3    H2 2170   2.451   1.091   4.491 -1.1127  3.8546  0.3104
  722TIP3   OH2 2171   1.465   5.095   1.179  0.6434 -0.9635 -0.4397
  722TIP3    H1 2172   1.534   5.126   1.121  2.2364 -0.8001  1.4276
  722TIP3    H2 2173   1.474   5.150   1.258 -0.6237 -1.9783  0.4568
  723TIP3   OH2 2174   1.698   4.096   2.568  0.0424  0.4100 -0.2096
  723TIP3    H1 2175   1.729   4.036   2.636  1.1233  0.3205 -0.7704
  723TIP3    H2 2176   1.758   4.171   2.573  0.0323  0.4731 -0.9603
  724TIP3   OH2 2177   2.115   4.027   4.919 -0.0280  0.3689  0.4673
  724TIP3    H1 2178   2.099   3.988   5.005  0.3983 -0.2972  0.2412
  724TIP3    H2 2179   2.089   4.119   4.930 -1.4083 -0.0376  0.8918
  725TIP3   OH2 2180   2.390   1.406   3.403 -0.1989  0.1861  0.3086
  725TIP3    H1 2181   2.436   1.322   3.404  1.6277  1.1158 -0.6289
  725TIP3    H2 2182   2.303   1.387   3.439 -0.2694 -2.3509 -1.0178
  726TIP3   OH2 2183   4.058   4.973   3.130  0.4831  0.2102 -0.2597
  726TIP3    H1 2184   4.142   5.010   3.155 -0.2773  0.8573  1.5370
  726TIP3    H2 2185   4.000   5.049   3.122 -0.1337 -0.2898 -0.6257
  727TIP3   OH2 2186   0.049   2.824   3.670 -0.1628  0.1676 -1.0262
  727TIP3    H1 2187   0.136   2.783   3.664  0.0088  0.5211 -0.9786
  727TIP3    H2 2188   0.067   2.918   3.665 -0.2587  0.4360  1.8674
  728TIP3   OH2 2189   1.845   3.569   1.978  0.2383 -0.1457  1.0666
  728TIP3    H1 2190   1.836   3.628   1.904 -1.0070 -1.5893  0.0102
  728TIP3    H2 2191   1.765   3.581   2.029  0.7113  0.2285  1.7407
  729TIP3   OH2 2192   2.890   4.265   4.509 -0.2458  0.9257 -0.1269
  729TIP3    H1 2193   2.921   4.355   4.514 -0.2066  0.8880  0.3261
  729TIP3    H2 2194   2.959   4.214   4.552 -0.6520  0.7703  0.3427
  730TIP3   OH2 2195   5.655   5.968   1.628  0.0224  0.2040  0.2328
  730TIP3    H1 2196   5.717   5.899   1.651  0.8464  0.2104 -1.7950
  730TIP3    H2 2197   5.599   5.929   1.561  0.1490  1.3252 -0.5502
  731TIP3   OH2 2198   1.495   0.910   3.291  0.6614 -0.3568  0.2068
  731TIP3    H1 2199   1.554   0.857   3.345  2.0653  0.2496 -0.6787
  731TIP3    H2 2200   1.529   0.899   3.202 -1.4156 -1.0821 -0.5484
  732TIP3   OH2 2201   5.670   0.947   3.769  0.0766  0.0682 -0.7530
  732TIP3    H1 2202   5.713   0.977   3.849 -0.6501  0.9812 -0.6903
  732TIP3    H2 2203   5.698   1.008   3.702  0.2006 -0.3340 -1.0736
  733TIP3   OH2 2204   5.897   4.828   4.903  0.1854 -0.1899  0.3882
  733TIP3    H1 2205   5.955   4.755   4.923  1.2187  0.6135  0.3964
  733TIP3    H2 2206   5.956   4.901   4.884 -0.8125  0.2307 -1.2326
  734TIP3   OH2 2207   2.844   2.754   1.897 -0.2821 -0.1417  0.0795
  734TIP3    H1 2208   2.858   2.709   1.814  1.6622 -0.5394  0.5844
  734TIP3    H2 2209   2.839   2.685   1.962  0.5808  0.2483  0.5808
  735TIP3   OH2 2210   0.917   3.169   1.706 -0.2286  0.4594 -0.0467
  735TIP3    H1 2211   0.921   3.220   1.787  0.0039  0.4585 -0.0569
  735TIP3    H2 2212   1.000   3.186   1.663  0.0362 -0.2756  0.1591
  736TIP3   OH2 2213   5.678   3.962   4.653  0.1445  0.4480 -0.3665
  736TIP3    H1 2214   5.624   3.977   4.730 -0.7268  1.4352 -1.1305
  736TIP3    H2 2215   5.637   4.016   4.585  0.1073 -1.3855 -1.8648
  737TIP3   OH2 2216   0.967   2.024   0.651 -0.4160 -0.3421  0.6370
  737TIP3    H1 2217   0.949   1.996   0.561  0.2935 -1.2925  0.7782
  737TIP3    H2 2218   1.060   2.043   0.652 -0.7830  1.5883  0.6890
  738TIP3   OH2 2219   2.552   4.330   4.035 -0.3449 -0.6179  0.0342
  738TIP3    H1 2220   2.501   4.255   4.064 -0.9828 -0.8970 -1.6907
  738TIP3    H2 2221   2.499   4.369   3.965  2.2025 -1.5192 -2.5818
  739TIP3   OH2 2222   3.479   1.851   3.728 -0.0831  0.4389  0.3092
  739TIP3    H1 2223   3.457   1.794   3.802  0.0284  1.3102  1.0283
  739TIP3    H2 2224   3.420   1.822   3.658 -0.7565  0.1264  0.9811
  740TIP3   OH2 2225   4.790   5.554   2.618  0.5126 -0.6181  0.5108
  740TIP3    H1 2226   4.868   5.601   2.589  0.8590 -1.1028  0.6413
  740TIP3    H2 2227   4.761   5.504   2.542  0.4465 -0.5877  0.5161
  741TIP3   OH2 2228   2.111   0.559   0.623 -0.0517  0.1579 -0.4517
  741TIP3    H1 2229   2.069   0.597   0.700 -0.3799 -0.3652 -0.3639
  741TIP3    H2 2230   2.204   0.567   0.641 -0.1195  0.4977 -0.2279
  742TIP3   OH2 2231   2.419   5.484   2.802  0.2471  0.3504 -0.2332
  742TIP3    H1 2232   2.434   5.392   2.823 -0.4794  0.3448  0.2947
  742TIP3    H2 2233   2.324   5.493   2.802  0.3134  1.1035 -0.2933
  743TIP3   OH2 2234   0.691   5.067   3.632  0.3585  0.3819 -0.5605
  743TIP3    H1 2235   0.639   5.090   3.709  0.7549  2.8270 -0.9175
  743TIP3    H2 2236   0.734   4.986   3.656  0.8757  1.3093  2.0497
  744TIP3   OH2 2237   1.165   5.632   2.276 -0.2950  0.1322 -0.0529
  744TIP3    H1 2238   1.152   5.563   2.342 -1.3441 -0.9946 -1.3676
  744TIP3    H2 2239   1.259   5.649   2.278  0.3926 -2.9354 -1.1479
  745TIP3   OH2 2240   1.979   2.373   2.634  0.2466 -0.3483  0.2193
  745TIP3    H1 2241   1.957   2.463   2.611 -1.3899 -0.3586  1.5362
  745TIP3    H2 2242   2.067   2.378   2.670 -0.0420  0.8498  0.8302
  746TIP3   OH2 2243   5.276   3.324   1.741  0.3387  0.4773 -0.0395
  746TIP3    H1 2244   5.337   3.354   1.675  0.4664  0.4525  0.0659
  746TIP3    H2 2245   5.258   3.233   1.718  1.4785  0.0210  0.7523
  747TIP3   OH2 2246   4.865   3.873   0.781 -0.3021  0.2496 -0.1703
  747TIP3    H1 2247   4.808   3.938   0.740 -0.9634  0.5591  1.1725
  747TIP3    H2 2248   4.804   3.813   0.825  0.3767  0.1632  0.6697
  748TIP3   OH2 2249   4.854   3.614   3.093 -0.2247  0.3882 -0.3641
  748TIP3    H1 2250   4.927   3.589   3.149 -0.7671 -0.1766  0.1004
  748TIP3    H2 2251   4.804   3.677   3.145 -1.5328 -1.2046  0.4096
  749TIP3   OH2 2252   0.152   0.103   1.966  0.6370  0.0951  0.4802
  749TIP3    H1 2253   0.190   0.167   1.906 -0.2872  1.0655  0.8958
  749TIP3    H2 2254   0.109   0.039   1.910  1.1400  0.1054  0.0738
  750TIP3   OH2 2255   5.805   1.274   2.348  0.5029  0.7697 -0.3107
  750TIP3    H1 2256   5.874   1.208   2.347 -0.0492  0.1414  0.9674
  750TIP3    H2 2257   5.828   1.334   2.277  0.7827 -1.0103 -1.7699
  751TIP3   OH2 2258   5.336   4.399   2.008  0.3689  0.8652  0.3329
  751TIP3    H1 2259   5.351   4.352   1.927 -0.9856 -1.1417  1.1781
  751TIP3    H2 2260   5.423   4.406   2.048  0.6390 -0.9065  0.1370
  752TIP3   OH2 2261   2.295   1.856   1.190  0.7851  0.1278  0.1261
  752TIP3    H1 2262   2.335   1.927   1.240  1.0220 -0.9583  1.5087
  752TIP3    H2 2263   2.368   1.817   1.142  1.2449 -1.0863  1.7231
  753TIP3   OH2 2264   5.603   1.787   1.742  0.4414  0.4343  0.3521
  753TIP3    H1 2265   5.663   1.720   1.774 -0.2467  0.4199  1.6883
  753TIP3    H2 2266   5.539   1.740   1.690 -0.6951 -0.1745  2.2025
  754TIP3   OH2 2267   0.451   2.140   0.667 -0.1732  0.0321 -0.4729
  754TIP3    H1 2268   0.520   2.164   0.729 -0.0622 -0.8182 -0.2526
  754TIP3    H2 2269   0.379   2.200   0.688  0.1914  0.3640 -0.1409
  755TIP3   OH2 2270   1.218   0.772   0.229  0.4778  0.7087  0.0350
  755TIP3    H1 2271   1.250   0.849   0.183  1.0362  0.7791  0.5367
  755TIP3    H2 2272   1.267   0.770   0.311  1.2266 -0.7633 -0.4236
  756TIP3   OH2 2273   2.704   1.749   0.773  0.2561  0.2917  0.7067
  756TIP3    H1 2274   2.761   1.811   0.817 -0.4837  2.0092 -0.6355
  756TIP3    H2 2275   2.616   1.787   0.781 -0.2351 -0.6390 -0.0232
  757TIP3   OH2 2276   1.007   5.075   1.262 -0.2448 -0.1814  0.4014
  757TIP3    H1 2277   0.945   5.008   1.291  2.0282 -2.3072  0.5790
  757TIP3    H2 2278   1.080   5.069   1.323  1.3014  0.4840 -1.2899
  758TIP3   OH2 2279   1.371   3.989   1.278 -0.4591  0.4854  0.6623
  758TIP3    H1 2280   1.373   3.957   1.368  0.5784 -2.0025 -0.1277
  758TIP3    H2 2281   1.280   3.981   1.251 -0.3368 -1.5772  0.6684
  759TIP3   OH2 2282   3.228   4.821   0.215 -0.5569 -0.8931 -0.5616
  759TIP3    H1 2283   3.299   4.878   0.184 -1.1012 -0.0332 -0.2308
  759TIP3    H2 2284   3.205   4.769   0.138  1.5360 -2.3665 -0.2697
  760TIP3   OH2 2285   2.008   5.332   4.321 -0.2073 -0.3522  0.4470
  760TIP3    H1 2286   1.989   5.262   4.384 -0.8969 -0.6717 -0.0993
  760TIP3    H2 2287   1.999   5.290   4.236 -0.0719  0.2702  0.1215
  761TIP3   OH2 2288   4.788   5.946   5.141  0.0262 -0.1017  0.1866
  761TIP3    H1 2289   4.700   5.946   5.180 -0.5797  0.9867 -1.1013
  761TIP3    H2 2290   4.803   5.855   5.116 -1.6727  0.0389 -1.5236
  762TIP3   OH2 2291   1.310   5.090   3.332 -0.4246 -0.0696  0.2851
  762TIP3    H1 2292   1.402   5.115   3.321 -0.2506 -0.5099  0.7306
  762TIP3    H2 2293   1.313   5.010   3.385 -1.0266 -0.5011 -0.3243
  763TIP3   OH2 2294   2.532   5.536   0.305 -0.5121 -0.1364  0.3018
  763TIP3    H1 2295   2.529   5.631   0.293 -0.0700 -0.2565 -0.9503
  763TIP3    H2 2296   2.443   5.506   0.287 -0.5240 -0.0127  0.1579
  764TIP3   OH2 2297   5.182   2.390   4.687  0.1212  0.4520  0.5626
  764TIP3    H1 2298   5.270   2.357   4.704 -0.0029 -0.1033  0.1591
  764TIP3    H2 2299   5.130   2.359   4.761 -1.1522 -4.7112 -2.0067
  765TIP3   OH2 2300   4.061   3.836   2.366 -0.1688  0.3829  0.2928
  765TIP3    H1 2301   4.035   3.892   2.294 -0.1907 -0.5280 -0.4257
  765TIP3    H2 2302   4.091   3.896   2.434 -0.3106  1.2573 -0.4045
  766TIP3   OH2 2303   5.391   0.447   0.464 -0.7871  0.3764  0.5843
  766TIP3    H1 2304   5.308   0.443   0.417 -1.4390 -0.9704  1.7965
  766TIP3    H2 2305   5.457   0.445   0.395 -1.7264  0.3264 -0.3454
  767TIP3   OH2 2306   3.657   0.960   2.375  0.2387 -0.0728  0.7740
  767TIP3    H1 2307   3.625   0.889   2.431 -0.2650 -0.5922 -0.1489
  767TIP3    H2 2308   3.718   1.009   2.431 -0.3589 -0.4814  1.8140
  768TIP3   OH2 2309   1.550   1.853   2.958 -0.1455 -0.7187 -0.1335
  768TIP3    H1 2310   1.566   1.932   2.907 -1.6592 -0.1416  0.2554
  768TIP3    H2 2311   1.603   1.864   3.037 -0.5820  0.0497  0.0578
  769TIP3   OH2 2312   1.272   1.790   2.917 -0.4035  0.4951 -0.2647
  769TIP3    H1 2313   1.360   1.826   2.915 -0.1805  0.0318 -2.6208
  769TIP3    H2 2314   1.215   1.865   2.932  0.3409  0.9017  0.5910
  770TIP3   OH2 2315   0.481   0.523   4.688  0.3280 -0.3766 -0.1111
  770TIP3    H1 2316   0.461   0.518   4.781 -0.4537  1.6104 -0.1297
  770TIP3    H2 2317   0.575   0.539   4.684  0.2540  0.2061  0.3766
  771TIP3   OH2 2318   1.414   4.839   1.950  0.0562  0.0899  0.3616
  771TIP3    H1 2319   1.482   4.862   1.887 -0.8336 -1.5175 -1.2706
  771TIP3    H2 2320   1.332   4.859   1.905 -0.5978 -0.8542  1.0947
  772TIP3   OH2 2321   5.219   0.685   1.441 -0.1719  0.0310  0.2878
  772TIP3    H1 2322   5.243   0.770   1.478  2.4569 -0.2240 -0.6444
  772TIP3    H2 2323   5.284   0.669   1.373 -0.3860 -2.8828  0.6434
  773TIP3   OH2 2324   4.840   1.493   4.503  0.6674 -0.4595  0.0022
  773TIP3    H1 2325   4.814   1.533   4.586  0.6666  0.7903 -0.5786
  773TIP3    H2 2326   4.764   1.441   4.477  0.1136  0.2832  0.0968
  774TIP3   OH2 2327   1.961   2.083   3.465  0.3085  0.5634  0.1844
  774TIP3    H1 2328   2.008   2.022   3.408  1.0598  0.2689  1.0839
  774TIP3    H2 2329   1.941   2.031   3.544  0.4436  1.3197  0.7254
  775TIP3   OH2 2330   2.778   4.545   4.336  0.1031  0.1270  0.1398
  775TIP3    H1 2331   2.774   4.640   4.331 -0.6118  0.1108  0.2268
  775TIP3    H2 2332   2.795   4.516   4.246 -0.1601  0.3220  0.0252
  776TIP3   OH2 2333   2.371   4.142   3.069  0.8808 -0.6242  0.1889
  776TIP3    H1 2334   2.413   4.200   3.133 -0.6588  0.2116  0.4735
  776TIP3    H2 2335   2.423   4.152   2.990  1.4965  0.0317  0.6624
  777TIP3   OH2 2336   0.137   1.126   0.138 -0.2408  0.1816  0.1185
  777TIP3    H1 2337   0.058   1.106   0.188 -1.2931 -0.2975 -1.6599
  777TIP3    H2 2338   0.203   1.067   0.172 -0.3918  1.1177  2.1748
  778TIP3   OH2 2339   1.982   3.208   3.048  0.1141  0.0395  0.2148
  778TIP3    H1 2340   1.998   3.302   3.058 -0.8321  0.1129  1.1990
  778TIP3    H2 2341   1.948   3.199   2.959  0.4816  0.5904  0.0106
  779TIP3   OH2 2342   1.121   0.164   0.511 -0.0056 -0.2957  0.4108
  779TIP3    H1 2343   1.093   0.092   0.567 -0.5210 -1.6967 -1.5414
  779TIP3    H2 2344   1.215   0.151   0.500 -0.4868 -2.4599 -2.1673
  780TIP3   OH2 2345   5.045   2.233   0.938 -0.1121 -0.0553  0.2180
  780TIP3    H1 2346   5.036   2.285   1.018  3.6240 -0.5077  1.0765
  780TIP3    H2 2347   5.000   2.151   0.957  0.2600  0.0531  1.6640
  781TIP3   OH2 2348   2.923   4.810   0.248 -0.0936 -0.2841 -0.2669
  781TIP3    H1 2349   3.001   4.759   0.267 -0.2760 -0.2571  0.5726
  781TIP3    H2 2350   2.869   4.803   0.327 -1.4995 -1.3239 -1.2759
  782TIP3   OH2 2351   5.900   3.081   2.524  0.1106 -0.2966  0.3736
  782TIP3    H1 2352   5.899   3.024   2.601  1.7685 -2.7369 -1.2961
  782TIP3    H2 2353   5.992   3.084   2.497 -0.4987  0.0491 -1.8257
  783TIP3   OH2 2354   5.158   2.991   0.059  0.1372  0.4222  0.1617
  783TIP3    H1 2355   5.116   3.061   0.009 -0.6522 -0.6474 -0.7153
  783TIP3    H2 2356   5.195   2.933  -0.007  0.2196 -0.3405  0.8620
  784TIP3   OH2 2357   4.051   5.229   3.852  0.4906 -0.0299  0.4420
  784TIP3    H1 2358   4.006   5.250   3.770  0.7828  0.5517  0.4260
  784TIP3    H2 2359   4.081   5.314   3.885  0.6181 -0.2924  1.0108
  785TIP3   OH2 2360   5.052   3.956   4.545  0.4044  0.2362 -0.5408
  785TIP3    H1 2361   5.131   3.978   4.596 -0.1435 -0.9610  0.9163
  785TIP3    H2 2362   5.001   4.037   4.543  0.1664  0.1836  1.4118
  786TIP3   OH2 2363   3.540   3.739   1.793 -0.0079 -0.2529 -0.0533
  786TIP3    H1 2364   3.550   3.731   1.698 -0.2593 -1.4018 -0.0005
  786TIP3    H2 2365   3.480   3.813   1.805  0.4689  0.2536 -0.7610
  787TIP3   OH2 2366   0.575   4.558   0.229  0.5843 -0.2176  0.1259
  787TIP3    H1 2367   0.579   4.617   0.154 -0.5577  0.2694  0.4308
  787TIP3    H2 2368   0.617   4.606   0.300 -0.2526  0.2151  0.3468
  788TIP3   OH2 2369   3.646  -0.002   4.485  0.1779 -0.5728 -0.1490
  788TIP3    H1 2370   3.687   0.081   4.461  1.7713 -1.3016 -0.0660
  788TIP3    H2 2371   3.714  -0.068   4.469 -0.3520 -1.6279  1.6829
  789TIP3   OH2 2372   1.307   5.460   4.661  0.5290  0.0143  0.2040
  789TIP3    H1 2373   1.350   5.420   4.586  0.3147 -1.2030  0.7089
  789TIP3    H2 2374   1.244   5.521   4.622  1.6163  0.6825 -0.5561
  790TIP3   OH2 2375   2.759   5.248   3.431  0.1744 -1.0035 -0.1985
  790TIP3    H1 2376   2.737   5.243   3.524 -1.3117  5.1069  0.2229
  790TIP3    H2 2377   2.854   5.243   3.428  0.2563 -1.0264  1.6613
  791TIP3   OH2 2378   1.902   2.108   2.971 -0.3858 -0.1338  0.1659
  791TIP3    H1 2379   1.824   2.070   3.012 -1.1097 -0.9066 -1.8296
  791TIP3    H2 2380   1.975   2.059   3.008 -0.9177 -0.1490  1.2424
  792TIP3   OH2 2381   5.872   2.900   4.449 -0.4478  0.2087 -0.1937
  792TIP3    H1 2382   5.838   2.812   4.436  0.2164 -0.1556  0.4564
  792TIP3    H2 2383   5.888   2.906   4.543  1.0315  0.4347 -0.4350
  793TIP3   OH2 2384   2.091   4.830   1.092 -0.1839 -0.2357  0.6802
  793TIP3    H1 2385   2.168   4.863   1.045 -0.1181  0.0041  0.9531
  793TIP3    H2 2386   2.120   4.746   1.129  0.0901  0.0676  1.1590
  794TIP3   OH2 2387   6.210   5.039   0.824 -0.5406  0.4018  0.4971
  794TIP3    H1 2388   6.293   5.072   0.860  0.8067 -2.1519 -0.0334
  794TIP3    H2 2389   6.146   5.055   0.893 -0.0382  3.8595  0.3235
  795TIP3   OH2 2390   5.547   5.693   4.170 -0.0372  0.4556 -0.2841
  795TIP3    H1 2391   5.528   5.600   4.155 -0.5746  0.6080 -0.5695
  795TIP3    H2 2392   5.470   5.726   4.216 -0.1625  0.9217 -0.8204
  796TIP3   OH2 2393   5.906   3.198   5.167  0.3935 -0.5242  0.1817
  796TIP3    H1 2394   5.921   3.286   5.132 -0.0571  0.2739  1.8836
  796TIP3    H2 2395   5.874   3.147   5.093 -1.1850  1.2535 -0.4261
  797TIP3   OH2 2396   6.064   5.370   5.074 -0.2371  0.0135 -0.6874
  797TIP3    H1 2397   6.131   5.399   5.012 -1.0655  0.8176 -1.2386
  797TIP3    H2 2398   5.983   5.365   5.022 -0.3319 -2.5270 -0.4360
  798TIP3   OH2 2399   4.783   2.253   3.422 -0.1268 -0.3144 -0.4363
  798TIP3    H1 2400   4.716   2.318   3.445  0.5930  0.8841 -1.5453
  798TIP3    H2 2401   4.770   2.238   3.328  0.4305 -0.9412 -0.4181
  799TIP3   OH2 2402   5.519   1.984   1.899 -0.1019 -0.1058  0.3412
  799TIP3    H1 2403   5.548   1.911   1.844  0.5736  0.6153 -0.2784
  799TIP3    H2 2404   5.587   1.993   1.966  0.3027  0.5453 -0.1451
  800TIP3   OH2 2405   2.208   2.112   1.346  0.0932  0.3662  0.2001
  800TIP3    H1 2406   2.149   2.109   1.270  0.1977  1.2823  0.0659
  800TIP3    H2 2407   2.168   2.177   1.404  0.5381  0.3920  0.4762
  801TIP3   OH2 2408   3.814   2.045   1.412  0.1832 -0.4593 -0.2276
  801TIP3    H1 2409   3.775   2.104   1.348 -1.0668 -0.5409  0.4180
  801TIP3    H2 2410   3.882   1.998   1.364 -1.3152 -1.1768 -1.7575
  802TIP3   OH2 2411   1.565   2.725   2.967  0.0780  0.1362 -0.2640
  802TIP3    H1 2412   1.527   2.753   3.050 -1.2709 -2.6778  0.1774
  802TIP3    H2 2413   1.492   2.722   2.906  0.4856 -0.7140 -0.7288
  803TIP3   OH2 2414   5.563   0.072   1.965  0.3373 -0.4174  0.1100
  803TIP3    H1 2415   5.618   0.047   2.040 -1.3381 -1.2092  1.1498
  803TIP3    H2 2416   5.500   0.001   1.957 -0.8835  0.7033 -0.6741
  804TIP3   OH2 2417   4.305   3.304   0.980 -0.3710  0.3507  0.0283
  804TIP3    H1 2418   4.285   3.351   1.062 -1.4470  0.9018 -0.5320
  804TIP3    H2 2419   4.224   3.260   0.957  0.1733 -0.4900 -0.3122
  805TIP3   OH2 2420   1.647   0.643   2.335 -0.9667  0.7524 -0.1466
  805TIP3    H1 2421   1.712   0.705   2.304 -0.0607 -0.2473 -0.3194
  805TIP3    H2 2422   1.695   0.587   2.397 -2.2233  1.4030  1.4911
  806TIP3   OH2 2423   0.783   3.381   2.997 -0.1951  0.0444 -0.2561
  806TIP3    H1 2424   0.741   3.464   3.017  0.8273  0.5208 -0.0491
  806TIP3    H2 2425   0.747   3.319   3.061 -2.3342 -0.1405 -1.5440
  807TIP3   OH2 2426   0.155   4.015   1.705  0.2127 -0.2519  0.3169
  807TIP3    H1 2427   0.145   3.993   1.613 -1.7644  1.5092  0.0172
  807TIP3    H2 2428   0.157   3.931   1.751 -0.4783 -1.1321 -1.2028
  808TIP3   OH2 2429  -0.020   5.039   4.475 -0.1610 -0.6996  0.3649
  808TIP3    H1 2430   0.033   4.960   4.485  3.6266  1.6589  0.7492
  808TIP3    H2 2431  -0.008   5.064   4.383  0.0238  0.2552  0.6413
  809TIP3   OH2 2432   2.218   2.849   1.283 -0.5919  0.0171 -0.0798
  809TIP3    H1 2433   2.224   2.881   1.192 -0.2964  0.0794 -0.0379
  809TIP3    H2 2434   2.124   2.849   1.301 -0.7840 -1.5172 -0.9252
  810TIP3   OH2 2435   6.209   3.134   4.596 -0.3878 -0.4692  0.1577
  810TIP3    H1 2436   6.119   3.163   4.583 -0.4299 -1.0171 -0.8133
  810TIP3    H2 2437   6.260   3.183   4.532  0.0581  0.0690  0.9129
  811TIP3   OH2 2438   0.103   4.060   1.977 -0.8430  0.4465 -0.0756
  811TIP3    H1 2439   0.114   4.038   1.884  1.8619  0.6862  0.0927
  811TIP3    H2 2440   0.075   4.152   1.977 -1.9725  0.1159 -0.6458
  812TIP3   OH2 2441   0.856   2.610   2.182 -0.1892  0.2586  0.3761
  812TIP3    H1 2442   0.770   2.572   2.200  0.7514 -1.5281  1.3009
  812TIP3    H2 2443   0.880   2.575   2.096 -0.0526  0.1763  0.4495
  813TIP3   OH2 2444   1.072   5.864   1.715 -0.1337  0.1420 -0.5052
  813TIP3    H1 2445   1.011   5.863   1.642  0.0866  1.5486 -0.7382
  813TIP3    H2 2446   1.137   5.930   1.691 -0.4399  1.1407  1.2545
  814TIP3   OH2 2447   3.999   2.196   0.416  0.3314  0.0657 -0.3533
  814TIP3    H1 2448   4.063   2.195   0.345 -0.0190  0.1586 -0.6793
  814TIP3    H2 2449   4.029   2.265   0.475  1.8010 -1.4137  0.7174
  815TIP3   OH2 2450   1.534   3.021   2.704  0.5391  0.3147  0.0752
  815TIP3    H1 2451   1.464   2.995   2.764 -0.6128 -0.4755 -1.5371
  815TIP3    H2 2452   1.511   3.111   2.678 -0.5457 -0.3096 -1.2766
  816TIP3   OH2 2453   1.864   0.520   0.965  0.2665 -0.3047 -0.5647
  816TIP3    H1 2454   1.800   0.535   1.035  2.5762  1.3528  1.3531
  816TIP3    H2 2455   1.827   0.564   0.889 -0.9833  0.4293  0.4266
  817TIP3   OH2 2456   1.255   4.805   4.836 -0.8552  0.1848 -0.6345
  817TIP3    H1 2457   1.229   4.886   4.794  0.7563  0.5312 -1.0179
  817TIP3    H2 2458   1.332   4.828   4.888  0.7976 -1.4240 -2.2151
  818TIP3   OH2 2459   1.465   5.412   4.000 -0.2493 -0.2762 -0.2129
  818TIP3    H1 2460   1.548   5.438   4.039  0.0062 -0.4611 -0.6230
  818TIP3    H2 2461   1.399   5.437   4.064  0.0445  0.7108 -0.2838
  819TIP3   OH2 2462   3.395   0.591   3.593  0.0179  0.3520 -0.0089
  819TIP3    H1 2463   3.299   0.599   3.592  0.0415  0.5674 -0.7519
  819TIP3    H2 2464   3.426   0.679   3.615  0.0638  0.4588 -0.4947
  820TIP3   OH2 2465   0.612   3.607   2.978  0.0769 -0.1942  0.0525
  820TIP3    H1 2466   0.528   3.608   3.024 -0.9058 -1.1508 -1.6422
  820TIP3    H2 2467   0.619   3.693   2.937  0.9671  0.6736  1.8963
  821TIP3   OH2 2468   3.280   4.461   3.325  0.0543  0.2362  0.3504
  821TIP3    H1 2469   3.303   4.504   3.243 -1.1181  0.7495  0.2763
  821TIP3    H2 2470   3.184   4.454   3.323  0.0734 -0.6021  1.2492
  822TIP3   OH2 2471   6.214   0.625   0.758  0.1475 -0.4054  0.0688
  822TIP3    H1 2472   6.182   0.535   0.749  3.1504 -1.5149 -0.6189
  822TIP3    H2 2473   6.214   0.640   0.853  0.8750 -1.6777  0.2986
  823TIP3   OH2 2474   4.583   0.242   2.385  0.1991 -0.0621  0.1821
  823TIP3    H1 2475   4.604   0.160   2.430 -0.4857 -0.2151  0.2307
  823TIP3    H2 2476   4.538   0.214   2.305 -1.0370  0.2969  0.7423
  824TIP3   OH2 2477   3.403   5.110   3.575 -0.5216  0.5301  0.2643
  824TIP3    H1 2478   3.442   5.099   3.488  1.2520  0.5698  1.0273
  824TIP3    H2 2479   3.349   5.033   3.587 -2.9276  1.7115 -1.8971
  825TIP3   OH2 2480   3.799   1.336   2.799  0.5836  0.1372  0.3764
  825TIP3    H1 2481   3.787   1.303   2.710  2.4507  0.7880 -0.1633
  825TIP3    H2 2482   3.840   1.262   2.846 -1.6443 -0.6980  1.1287
  826TIP3   OH2 2483   3.388   4.653   4.021  0.2440  0.0398  0.9088
  826TIP3    H1 2484   3.482   4.650   4.003  0.3855  0.4207  1.5470
  826TIP3    H2 2485   3.374   4.738   4.063 -0.7447  0.8738 -1.0002
  827TIP3   OH2 2486   5.422   5.552   0.319  0.1571 -0.1682 -0.1966
  827TIP3    H1 2487   5.392   5.631   0.363  1.3976  0.2587 -0.0571
  827TIP3    H2 2488   5.459   5.498   0.390 -1.6923 -1.4099 -0.1124
  828TIP3   OH2 2489   1.855   4.122   3.169  0.3774 -0.4286 -0.0656
  828TIP3    H1 2490   1.810   4.085   3.244  0.3073 -0.4848 -0.1345
  828TIP3    H2 2491   1.931   4.065   3.157  0.7888  0.0133  0.4093
  829TIP3   OH2 2492   1.225   5.217   4.038  0.3226 -0.1353  0.3976
  829TIP3    H1 2493   1.193   5.179   3.956  1.4148 -1.6527  0.6377
  829TIP3    H2 2494   1.315   5.242   4.019 -0.6038  3.4622 -0.0622
  830TIP3   OH2 2495   2.580   0.119   4.107 -0.2224  0.6226 -0.0824
  830TIP3    H1 2496   2.553   0.192   4.053 -0.5458  0.3979 -0.2254
  830TIP3    H2 2497   2.547   0.041   4.061 -0.1217  0.4055  0.2091
  831TIP3   OH2 2498   6.110   1.259   3.675  0.0220 -0.4680 -0.1041
  831TIP3    H1 2499   6.030   1.216   3.706  0.7079 -1.6872  0.0227
  831TIP3    H2 2500   6.180   1.199   3.699  0.8584 -0.0267 -1.3675
  832TIP3   OH2 2501   6.278   3.829   5.109  0.2051 -0.4802  0.1922
  832TIP3    H1 2502   6.222   3.877   5.169 -0.9677 -0.2435 -1.0412
  832TIP3    H2 2503   6.360   3.879   5.108 -0.4504  0.6248  0.1182
  833TIP3   OH2 2504   5.363   4.786   1.067  0.2111  0.2309  0.2598
  833TIP3    H1 2505   5.411   4.759   1.145  0.3825 -1.1970 -0.3124
  833TIP3    H2 2506   5.430   4.824   1.010  0.8926 -2.2995 -0.7896
  834TIP3   OH2 2507   5.584   4.699   0.729 -0.6899  0.1665 -0.1873
  834TIP3    H1 2508   5.612   4.638   0.797  0.5023  2.7997  1.8562
  834TIP3    H2 2509   5.665   4.725   0.686 -0.9040  1.7675  0.3241
  835TIP3   OH2 2510   1.513   2.890   4.987 -0.0024  0.0668  0.1485
  835TIP3    H1 2511   1.467   2.914   4.907 -1.9349  0.0168  1.1693
  835TIP3    H2 2512   1.528   2.796   4.979 -0.3551  0.0282 -0.0827
  836TIP3   OH2 2513   1.943   2.203   0.159 -0.1755  0.3133  0.4050
  836TIP3    H1 2514   1.955   2.155   0.241 -0.3155  2.7178  1.9254
  836TIP3    H2 2515   1.884   2.148   0.107 -0.3140 -1.1452  2.0176
  837TIP3   OH2 2516   0.495   3.344   1.752  0.1871  0.1029  0.0417
  837TIP3    H1 2517   0.467   3.273   1.693  1.2323 -0.1631 -0.1532
  837TIP3    H2 2518   0.522   3.414   1.693 -0.8030  0.6542  0.2357
  838TIP3   OH2 2519   0.671   1.618   0.881  0.4347 -0.9044  0.0161
  838TIP3    H1 2520   0.699   1.639   0.792  3.5048 -1.8722  0.6335
  838TIP3    H2 2521   0.686   1.698   0.931  3.5325 -1.6959  0.5624
  839TIP3   OH2 2522   1.522   4.281   4.431  0.2620 -0.3148  0.2879
  839TIP3    H1 2523   1.432   4.313   4.430  0.7438  1.1940  1.5894
  839TIP3    H2 2524   1.517   4.198   4.479 -0.7165 -1.3363 -1.4823
  840TIP3   OH2 2525   0.902   0.610   0.221  0.7221 -0.3161  0.0448
  840TIP3    H1 2526   0.886   0.565   0.138 -0.6921 -0.2444  0.2460
  840TIP3    H2 2527   0.966   0.678   0.200  0.1195 -0.0734 -1.0829
  841TIP3   OH2 2528   5.819   0.622   2.934  0.0441 -0.2334 -0.6651
  841TIP3    H1 2529   5.880   0.662   2.996  0.3482 -0.9809 -0.4804
  841TIP3    H2 2530   5.750   0.584   2.988  1.1419 -2.3357 -0.6255
  842TIP3   OH2 2531   2.669   4.365   0.676 -0.3069  0.5830  0.2400
  842TIP3    H1 2532   2.678   4.401   0.588 -2.5546  1.0914  0.1398
  842TIP3    H2 2533   2.580   4.388   0.702  0.2754  0.3909  2.6415
  843TIP3   OH2 2534   5.555   2.211   4.207 -0.3995  0.0378  0.7030
  843TIP3    H1 2535   5.506   2.130   4.214  0.2884 -0.2459  2.7327
  843TIP3    H2 2536   5.488   2.279   4.194 -1.0585 -0.6944  0.1866
  844TIP3   OH2 2537   4.288   3.458   1.222 -0.1919 -0.2297 -0.2893
  844TIP3    H1 2538   4.332   3.542   1.209  0.4206 -0.0445  2.3265
  844TIP3    H2 2539   4.230   3.472   1.297 -1.2818 -1.7312 -0.7978
  845TIP3   OH2 2540   1.863   1.269   0.107  0.2243  1.1642  0.0475
  845TIP3    H1 2541   1.879   1.237   0.018  1.9148 -0.7295  0.9437
  845TIP3    H2 2542   1.768   1.277   0.113 -0.1081 -1.0656 -1.1704
  846TIP3   OH2 2543   0.670   0.412   0.135  0.1661  0.2409  0.7497
  846TIP3    H1 2544   0.725   0.364   0.073  0.2897 -0.9218  1.7187
  846TIP3    H2 2545   0.582   0.404   0.100  0.2497 -0.3105  0.6571
  847TIP3   OH2 2546   3.039   1.400   2.057 -0.5192  0.1680  0.2982
  847TIP3    H1 2547   3.122   1.400   2.104  0.4675  2.7245 -1.2290
  847TIP3    H2 2548   3.006   1.311   2.066  1.4673 -0.4566  2.4874
  848TIP3   OH2 2549   4.106   3.570   2.508  0.1138 -0.1374 -0.2679
  848TIP3    H1 2550   4.095   3.645   2.449  0.7356  0.7345  0.6921
  848TIP3    H2 2551   4.054   3.591   2.585  1.3779 -0.0333  0.5890
  849TIP3   OH2 2552   1.968   1.115   1.941  0.3895 -0.2468  0.4055
  849TIP3    H1 2553   1.975   1.165   1.860 -0.7584 -0.9929 -0.1788
  849TIP3    H2 2554   1.896   1.054   1.925  0.8981 -1.1821  1.5803
  850TIP3   OH2 2555   3.030   0.850   2.044 -0.5866 -0.5127  0.4712
  850TIP3    H1 2556   3.121   0.825   2.059 -0.1781  0.4445 -0.3627
  850TIP3    H2 2557   2.998   0.788   1.978 -0.2466 -0.2379  0.0477
  851TIP3   OH2 2558   5.762   2.689   0.081  0.3048 -0.3951  0.0373
  851TIP3    H1 2559   5.736   2.650   0.164 -0.0608 -0.4540 -0.1027
  851TIP3    H2 2560   5.751   2.618   0.017 -1.6335  0.2869 -0.4447
  852TIP3   OH2 2561   2.771   3.212   3.364 -0.0959 -0.9004  0.4535
  852TIP3    H1 2562   2.769   3.162   3.445 -0.8090 -2.2286 -0.3426
  852TIP3    H2 2563   2.696   3.272   3.370  2.0113  1.7833  2.3716
  853TIP3   OH2 2564   0.774   4.897   1.271  0.0355  0.1944  0.0532
  853TIP3    H1 2565   0.711   4.827   1.256  2.2826 -2.0535  0.4262
  853TIP3    H2 2566   0.786   4.937   1.184 -1.2479  0.1536 -0.1692
  854TIP3   OH2 2567   2.126   3.434   4.170 -0.1702 -0.3720  0.3661
  854TIP3    H1 2568   2.149   3.433   4.077 -1.0772  3.5246 -0.0550
  854TIP3    H2 2569   2.114   3.342   4.193  1.0383 -1.5361 -3.0822
  855TIP3   OH2 2570   0.597   4.075   4.741  0.3789  0.0231 -0.0127
  855TIP3    H1 2571   0.547   4.016   4.684 -0.9410 -0.2089  1.3095
  855TIP3    H2 2572   0.530   4.128   4.785  1.4094  0.8435  0.6012
  856TIP3   OH2 2573   4.498   4.452   3.062 -0.5543 -0.0460 -0.3262
  856TIP3    H1 2574   4.508   4.511   2.987  0.6066  1.3966  0.8944
  856TIP3    H2 2575   4.551   4.376   3.041  1.5509  1.2831 -0.1070
  857TIP3   OH2 2576   0.194   5.952   4.809 -0.3489  0.1821  0.3577
  857TIP3    H1 2577   0.129   5.939   4.878  1.1124 -2.2701  1.3922
  857TIP3    H2 2578   0.143   5.969   4.730 -2.2461 -1.5276  1.1451
  858TIP3   OH2 2579   1.839   5.541   4.961  0.2737 -0.0294  0.5043
  858TIP3    H1 2580   1.747   5.549   4.935  0.2305 -1.1072  0.2361
  858TIP3    H2 2581   1.885   5.604   4.905 -0.2462  0.1798  0.3003
  859TIP3   OH2 2582   3.137   1.800   0.672  0.0024  0.0785  0.1775
  859TIP3    H1 2583   3.208   1.759   0.624 -0.4168 -1.3983  0.7533
  859TIP3    H2 2584   3.068   1.814   0.607  0.1679 -0.1107 -0.0380
  860TIP3   OH2 2585   3.501   4.564   1.351 -0.2459 -0.5544 -0.0155
  860TIP3    H1 2586   3.476   4.505   1.422  1.4784  1.6275  2.5922
  860TIP3    H2 2587   3.441   4.638   1.359  1.2625  0.6435  0.5517
  861TIP3   OH2 2588   2.554   1.814   3.286  0.0546  0.0033  0.1094
  861TIP3    H1 2589   2.604   1.826   3.367 -1.0379  0.7397  0.6907
  861TIP3    H2 2590   2.516   1.900   3.268 -1.3461 -0.6387 -0.0921
  862TIP3   OH2 2591   1.889   0.530   0.479  0.2978  0.0650  0.1461
  862TIP3    H1 2592   1.974   0.503   0.513  0.0220 -1.7677 -0.5069
  862TIP3    H2 2593   1.848   0.577   0.552  1.6527  0.5408  0.6305
  863TIP3   OH2 2594   1.408   2.659   2.721  0.0939  0.1554  0.2408
  863TIP3    H1 2595   1.395   2.714   2.643  0.4254  1.5733  1.1356
  863TIP3    H2 2596   1.423   2.571   2.686  2.6341  1.1326 -1.4667
  864TIP3   OH2 2597   2.421   5.803   0.653  0.3605 -0.2470  0.3677
  864TIP3    H1 2598   2.355   5.829   0.589  1.0274 -2.4894 -1.3527
  864TIP3    H2 2599   2.396   5.714   0.678  1.5875 -0.3704  1.2367
  865TIP3   OH2 2600   0.546   3.505   0.086 -0.4641 -0.0740 -0.6690
  865TIP3    H1 2601   0.634   3.482   0.058  0.2604  1.3383  0.3098
  865TIP3    H2 2602   0.506   3.422   0.112  0.6838 -0.6868 -0.8085
  866TIP3   OH2 2603   3.750   3.668   0.565  0.4765  0.4643 -0.1408
  866TIP3    H1 2604   3.785   3.753   0.539 -0.0717  1.0122  0.8290
  866TIP3    H2 2605   3.661   3.687   0.595  0.5461 -0.3521  0.6345
  867TIP3   OH2 2606   3.693   2.782   1.272  0.1186 -0.2937 -0.1385
  867TIP3    H1 2607   3.613   2.815   1.231 -0.3258 -0.8457  0.2619
  867TIP3    H2 2608   3.760   2.847   1.250 -0.3696  0.0122 -0.7409
  868TIP3   OH2 2609   4.103   3.251   2.949 -0.1439  0.1316 -0.2523
  868TIP3    H1 2610   4.157   3.259   3.028  0.0748 -0.1103 -0.3758
  868TIP3    H2 2611   4.015   3.234   2.982 -0.1414  0.5043 -0.0479
  869TIP3   OH2 2612   3.570   3.006   2.814 -0.5601  0.3711  0.7907
  869TIP3    H1 2613   3.567   3.101   2.827 -0.6447  0.5710 -0.5512
  869TIP3    H2 2614   3.550   2.994   2.721 -0.0803 -0.9352  0.8389
  870TIP3   OH2 2615   4.353   2.618   4.464  0.2957 -0.0684 -0.2018
  870TIP3    H1 2616   4.271   2.664   4.484  0.7791  0.4193  0.6983
  870TIP3    H2 2617   4.326   2.546   4.406 -0.7569  0.1273  0.0185
  871TIP3   OH2 2618   0.819   0.727   2.723 -0.0519 -0.2608  0.3474
  871TIP3    H1 2619   0.800   0.647   2.772 -3.1888 -0.4708 -1.0104
  871TIP3    H2 2620   0.845   0.697   2.636 -2.7185  0.0585 -0.6638
  872TIP3   OH2 2621   2.624   2.448   4.712 -0.1248  0.6148 -0.1565
  872TIP3    H1 2622   2.571   2.484   4.783 -0.8491  0.5191 -0.6428
  872TIP3    H2 2623   2.653   2.525   4.663 -1.5041  0.5815 -1.0755
  873TIP3   OH2 2624   5.564   4.305   0.566  0.3502 -0.5084  0.3230
  873TIP3    H1 2625   5.511   4.282   0.643  0.3140 -0.5391  0.2893
  873TIP3    H2 2626   5.510   4.369   0.519  0.7488  0.1598  0.7747
  874TIP3   OH2 2627   3.037   3.085   3.490 -0.0767 -0.3413 -0.0584
  874TIP3    H1 2628   2.984   3.005   3.498  0.2783 -0.6635 -0.8490
  874TIP3    H2 2629   3.104   3.076   3.558  0.0551 -0.7958 -0.2420
  875TIP3   OH2 2630   3.416   5.127   4.166 -0.4583  0.4445  0.3338
  875TIP3    H1 2631   3.446   5.125   4.256 -0.1480 -1.8206  0.2513
  875TIP3    H2 2632   3.386   5.217   4.152  1.2783  1.3727  2.0636
  876TIP3   OH2 2633   2.622   5.530   1.005 -0.2294 -0.2618 -0.3392
  876TIP3    H1 2634   2.685   5.593   0.971 -2.1446  1.8749 -0.1654
  876TIP3    H2 2635   2.608   5.556   1.096 -1.9874 -0.0685 -0.6151
  877TIP3   OH2 2636   1.113   2.098   4.751  0.2722  0.4587 -0.3848
  877TIP3    H1 2637   1.152   2.067   4.833 -1.1095 -0.5800 -0.0963
  877TIP3    H2 2638   1.050   2.165   4.778 -0.8461 -0.5290 -0.5012
  878TIP3   OH2 2639   2.532   5.193   2.850  0.0875 -0.0637 -0.3364
  878TIP3    H1 2640   2.552   5.181   2.942 -0.9504  1.4879  0.1312
  878TIP3    H2 2641   2.457   5.135   2.833 -1.3579  1.4861  0.4828
  879TIP3   OH2 2642   0.580   2.573   3.556 -0.2335 -0.0493 -0.5607
  879TIP3    H1 2643   0.641   2.499   3.552 -0.2745 -0.1245  0.0666
  879TIP3    H2 2644   0.636   2.650   3.562 -0.1825  0.0183 -1.7404
  880TIP3   OH2 2645   0.615   3.427   4.122  0.0769 -0.1609  0.4589
  880TIP3    H1 2646   0.525   3.431   4.155  0.1009 -1.5478  0.7593
  880TIP3    H2 2647   0.607   3.429   4.027 -0.2011  0.7215  0.4970
  881TIP3   OH2 2648   2.407   2.242   2.198  0.3959 -0.5322 -0.0794
  881TIP3    H1 2649   2.416   2.181   2.271 -0.3572 -0.5505  0.0103
  881TIP3    H2 2650   2.374   2.189   2.126 -0.1332 -0.2655 -0.0398
  882TIP3   OH2 2651   4.741   2.199   3.171  0.1439 -0.0739  1.1094
  882TIP3    H1 2652   4.740   2.272   3.108 -0.3005  0.0000  1.1943
  882TIP3    H2 2653   4.720   2.122   3.118 -1.1458  0.1170  1.3029
  883TIP3   OH2 2654   4.212   5.971   0.402  0.3598 -0.1555  0.2064
  883TIP3    H1 2655   4.226   6.013   0.317  0.4880  0.9067  0.7347
  883TIP3    H2 2656   4.265   5.891   0.398 -1.4255 -1.3733 -1.5599
  884TIP3   OH2 2657   4.889   2.903   3.301 -0.4067  0.6374 -0.0766
  884TIP3    H1 2658   4.885   2.809   3.281 -0.8027  1.0570 -2.1050
  884TIP3    H2 2659   4.983   2.924   3.297 -0.1824  0.1467  1.5488
  885TIP3   OH2 2660   0.138   0.841   0.508 -0.0286  0.3193 -0.4224
  885TIP3    H1 2661   0.173   0.810   0.592 -0.6492  1.0096  0.1012
  885TIP3    H2 2662   0.077   0.910   0.532 -1.7080 -0.7932 -1.3174
  886TIP3   OH2 2663   0.169   0.635   0.719  0.5428 -0.0600  0.0690
  886TIP3    H1 2664   0.073   0.633   0.718  0.5277  0.1785 -0.9715
  886TIP3    H2 2665   0.195   0.544   0.702  0.5092 -0.1664  0.5729
  887TIP3   OH2 2666   5.870   4.065   3.006 -0.4336  0.1113 -0.1991
  887TIP3    H1 2667   5.933   4.116   3.057 -0.9758 -0.7724  1.4332
  887TIP3    H2 2668   5.920   4.035   2.930  0.7363  0.5512  0.3654
  888TIP3   OH2 2669   0.897   1.809   4.919  0.6154 -0.1120  0.3253
  888TIP3    H1 2670   0.928   1.745   4.983  1.1531  1.1899  1.4210
  888TIP3    H2 2671   0.863   1.881   4.972 -0.9014  0.0936 -0.8767
  889TIP3   OH2 2672   0.838   5.324   4.187  0.4260  0.1426  0.4960
  889TIP3    H1 2673   0.854   5.259   4.119 -1.2779  0.3092 -0.1364
  889TIP3    H2 2674   0.810   5.402   4.138 -3.5040 -0.5242  1.3478
  890TIP3   OH2 2675   1.187   0.057   3.400 -0.5991 -0.1614 -0.3025
  890TIP3    H1 2676   1.107   0.053   3.348 -2.8370 -1.1492  2.9265
  890TIP3    H2 2677   1.229   0.139   3.373 -2.0411 -0.1666 -2.9029
  891TIP3   OH2 2678   2.810   3.782   2.253  0.2064  0.3816 -0.3494
  891TIP3    H1 2679   2.844   3.870   2.270  0.8588 -0.3677  2.9669
  891TIP3    H2 2680   2.716   3.790   2.266  0.3367  0.5095  0.6127
  892TIP3   OH2 2681   1.901   4.210   1.663 -0.7481 -0.7249 -0.3233
  892TIP3    H1 2682   1.865   4.299   1.663 -0.8124 -0.7429 -1.1493
  892TIP3    H2 2683   1.837   4.159   1.612  0.2486 -0.8293 -1.5272
  893TIP3   OH2 2684   4.113   0.391   2.935  0.7505  0.1751 -0.0857
  893TIP3    H1 2685   4.184   0.377   2.998  0.9551 -0.0600 -0.3665
  893TIP3    H2 2686   4.156   0.391   2.850  0.8089  2.6320 -0.1345
  894TIP3   OH2 2687   5.393   3.659   3.532  0.2317 -0.1015  0.0453
  894TIP3    H1 2688   5.412   3.727   3.468  0.5865  0.0478  0.2985
  894TIP3    H2 2689   5.400   3.704   3.617 -0.7908 -0.1632  0.1716
  895TIP3   OH2 2690   0.883   4.248   2.294 -0.0941 -0.1210 -0.5956
  895TIP3    H1 2691   0.832   4.320   2.332 -1.4294 -0.2463 -2.0151
  895TIP3    H2 2692   0.911   4.282   2.209  0.9512 -0.6000 -0.4518
  896TIP3   OH2 2693   0.855   4.202   1.127 -0.0874 -0.3515  0.2180
  896TIP3    H1 2694   0.786   4.157   1.078  0.3219  0.8165 -1.5327
  896TIP3    H2 2695   0.936   4.176   1.084  0.6101 -1.5579  2.1287
  897TIP3   OH2 2696   4.009   1.768   2.891  0.2732 -0.2961  0.5664
  897TIP3    H1 2697   4.059   1.842   2.923  1.3926 -1.8678  2.7069
  897TIP3    H2 2698   3.954   1.742   2.965 -3.2207  0.8119 -1.3983
  898TIP3   OH2 2699   2.574   3.953   3.798  0.4414  1.0674  0.6451
  898TIP3    H1 2700   2.631   3.886   3.758 -0.9638  0.3547 -0.2380
  898TIP3    H2 2701   2.591   3.946   3.892  1.1518  0.2599  0.4718
  899TIP3   OH2 2702   3.694   1.976   3.401  0.5118  0.0240 -0.0224
  899TIP3    H1 2703   3.648   1.900   3.435 -2.0605  0.4693 -2.1827
  899TIP3    H2 2704   3.699   2.036   3.475 -2.3662 -0.1154  0.4049
  900TIP3   OH2 2705   0.334   5.810   4.437  0.2258  0.3638  0.3907
  900TIP3    H1 2706   0.258   5.761   4.469  0.5112  0.1436  0.7356
  900TIP3    H2 2707   0.305   5.901   4.436 -0.3542  0.1806 -0.3853
  901TIP3   OH2 2708   4.749   0.981   5.001 -0.0750  0.4581 -0.6922
  901TIP3    H1 2709   4.813   0.931   4.952 -2.0726 -2.4131 -0.5959
  901TIP3    H2 2710   4.700   1.030   4.935  0.7778  0.9585 -0.9626
  902TIP3   OH2 2711   1.951   4.684   3.463  0.4199  0.1553 -0.1627
  902TIP3    H1 2712   1.979   4.601   3.501  0.7981  0.7320  0.8457
  902TIP3    H2 2713   1.859   4.671   3.442  0.4853 -0.5270 -0.0576
  903TIP3   OH2 2714   1.845   3.208   1.485  0.1870  0.2858 -0.1853
  903TIP3    H1 2715   1.922   3.257   1.514 -0.4696  1.0130  0.3878
  903TIP3    H2 2716   1.828   3.241   1.396  0.2005  0.5496 -0.0921
  904TIP3   OH2 2717   1.399   0.038   4.317  0.3422 -0.1251  0.1194
  904TIP3    H1 2718   1.404  -0.039   4.373  2.5601  1.1838  1.9357
  904TIP3    H2 2719   1.429   0.009   4.231 -2.0853 -1.9500 -0.1972
  905TIP3   OH2 2720   2.366   5.555   1.600  0.3792 -0.6617 -0.1184
  905TIP3    H1 2721   2.424   5.494   1.554 -0.9547  0.5561 -3.7143
  905TIP3    H2 2722   2.421   5.631   1.618  0.6681 -0.7522 -0.6055
  906TIP3   OH2 2723   5.622   3.304   0.378 -0.0510  0.2442 -0.0400
  906TIP3    H1 2724   5.564   3.244   0.330  0.0319  1.1661 -1.3305
  906TIP3    H2 2725   5.563   3.370   0.414  0.0304  0.2884  0.0109
  907TIP3   OH2 2726   0.972   0.968   1.876 -0.3217 -0.0627 -0.7194
  907TIP3    H1 2727   0.917   0.895   1.846 -0.0185  0.0357 -1.5319
  907TIP3    H2 2728   1.027   0.931   1.945  0.7094 -0.9258 -1.9843
  908TIP3   OH2 2729   4.462   0.468   2.857 -0.2295 -0.1841  0.4630
  908TIP3    H1 2730   4.557   0.470   2.863  0.0802  0.0771 -2.9532
  908TIP3    H2 2731   4.442   0.392   2.802 -1.9746  0.1535  0.5565
  909TIP3   OH2 2732   4.733   4.748   3.100  0.4166 -0.1484  0.5512
  909TIP3    H1 2733   4.742   4.691   3.024 -1.4698  1.1089 -0.6881
  909TIP3    H2 2734   4.727   4.836   3.064 -1.5970  0.3873  2.0369
  910TIP3   OH2 2735   2.630   5.134   2.340 -0.0320  0.6138  0.3224
  910TIP3    H1 2736   2.674   5.086   2.270 -0.8433 -0.1223  0.2972
  910TIP3    H2 2737   2.685   5.210   2.355  0.5769  0.3673 -0.5667
  911TIP3   OH2 2738   3.128   0.272   3.350  0.4701  0.0079  0.1717
  911TIP3    H1 2739   3.036   0.282   3.327  0.4473 -1.0019 -0.2075
  911TIP3    H2 2740   3.127   0.239   3.440  0.5179  1.7049  0.8376
  912TIP3   OH2 2741   0.235   4.297   1.652 -0.2824  0.0155 -0.5508
  912TIP3    H1 2742   0.184   4.334   1.580  1.7017  0.8716 -1.6286
  912TIP3    H2 2743   0.226   4.202   1.642 -2.1232  0.1362 -0.2974
  913TIP3   OH2 2744   0.914   0.585   2.499  0.2761  0.4467 -0.1693
  913TIP3    H1 2745   1.009   0.594   2.496  0.5774 -1.4538  1.4219
  913TIP3    H2 2746   0.886   0.583   2.408  1.3879  3.7797 -0.7106
  914TIP3   OH2 2747   2.479   1.888   3.876 -0.3777 -0.3150 -0.4823
  914TIP3    H1 2748   2.439   1.884   3.962  1.9305  2.0332  0.8590
  914TIP3    H2 2749   2.554   1.828   3.882  0.3992  0.6271 -0.4258
  915TIP3   OH2 2750   3.025   2.725   2.897  0.0109  0.1861  0.4448
  915TIP3    H1 2751   3.071   2.808   2.908 -0.7270  0.6887 -0.1168
  915TIP3    H2 2752   2.995   2.726   2.806  1.3385 -1.4185 -0.0551
  916TIP3   OH2 2753   1.763   4.058   4.309  0.1386 -0.0314 -0.0095
  916TIP3    H1 2754   1.754   3.988   4.374 -2.2654  0.3796  0.1858
  916TIP3    H2 2755   1.674   4.073   4.277  0.6039  2.7436 -0.2662
  917TIP3   OH2 2756   1.060   3.679   3.212 -0.0572 -0.2789 -0.2880
  917TIP3    H1 2757   1.080   3.669   3.119 -1.1163 -2.3926 -0.3586
  917TIP3    H2 2758   0.988   3.743   3.214  0.5453  0.4407 -0.8109
  918TIP3   OH2 2759   3.785   3.989   1.156 -0.8606 -0.0791  0.1510
  918TIP3    H1 2760   3.716   4.050   1.183 -0.2557  0.0049  1.6235
  918TIP3    H2 2761   3.757   3.904   1.190 -0.1243  0.0125  1.0501
  919TIP3   OH2 2762   3.462   4.493   2.467 -0.4103  0.0358  0.0448
  919TIP3    H1 2763   3.507   4.431   2.410 -2.8183 -1.9816  0.1613
  919TIP3    H2 2764   3.494   4.473   2.555  0.5253  0.5594 -0.1733
  920TIP3   OH2 2765   4.996   2.689   0.242 -0.1728  0.2050  0.8537
  920TIP3    H1 2766   4.976   2.669   0.151 -1.4751  0.7408  0.9982
  920TIP3    H2 2767   5.090   2.703   0.244  0.0060 -0.7385 -0.2224
  921TIP3   OH2 2768   4.776   2.957   3.683 -0.0887  0.2397 -0.0451
  921TIP3    H1 2769   4.741   2.884   3.735 -0.5971  0.1663 -0.4747
  921TIP3    H2 2770   4.862   2.975   3.721 -0.2169 -0.1789  0.4597
  922TIP3   OH2 2771   1.544   5.594   0.653 -0.1449 -0.0269 -0.3743
  922TIP3    H1 2772   1.528   5.590   0.747 -0.5863  3.0295 -0.2433
  922TIP3    H2 2773   1.465   5.555   0.614 -1.3914  1.4514  0.5305
  923TIP3   OH2 2774   1.535   0.786  -0.016  0.9694 -0.1317  0.0360
  923TIP3    H1 2775   1.596   0.723   0.023  1.1471 -0.7547 -1.1858
  923TIP3    H2 2776   1.529   0.856   0.048  0.5056 -1.5327  1.5986
  924TIP3   OH2 2777   4.875   4.258   2.296 -0.9930 -0.4169 -0.6537
  924TIP3    H1 2778   4.905   4.321   2.230  1.6136  0.8987  1.5718
  924TIP3    H2 2779   4.921   4.177   2.273  0.2612  0.1569 -0.3095
  925TIP3   OH2 2780   6.263   3.230   3.378 -0.4324 -0.2770 -0.7202
  925TIP3    H1 2781   6.225   3.201   3.295 -0.9087 -1.1654 -0.2107
  925TIP3    H2 2782   6.192   3.277   3.421 -1.3996 -2.8458  0.6973
  926TIP3   OH2 2783   3.000   0.922   1.246  0.0303 -0.4675 -0.7475
  926TIP3    H1 2784   2.933   0.862   1.276 -1.5197  1.3314 -0.4032
  926TIP3    H2 2785   3.038   0.880   1.169 -0.7780 -1.9715 -0.3581
  927TIP3   OH2 2786   4.351   3.995   4.410  0.2118 -0.1886 -0.6894
  927TIP3    H1 2787   4.423   4.054   4.430 -0.0131  0.0585 -0.6042
  927TIP3    H2 2788   4.272   4.049   4.420 -0.0886 -0.8343  0.7186
  928TIP3   OH2 2789   2.314   1.070   4.262  0.2616  0.1623  0.5872
  928TIP3    H1 2790   2.402   1.057   4.227 -1.3801 -1.5429 -3.6679
  928TIP3    H2 2791   2.302   0.999   4.324  1.0272 -1.3834 -0.9445
  929TIP3   OH2 2792   2.242   5.497   3.746 -0.1841  0.3177 -0.6577
  929TIP3    H1 2793   2.300   5.562   3.705 -1.8692  2.0471 -0.4298
  929TIP3    H2 2794   2.277   5.486   3.834 -1.8010  3.7314  0.6065
  930TIP3   OH2 2795   3.748   1.813   0.665  0.4131  0.7806 -0.6863
  930TIP3    H1 2796   3.807   1.769   0.726  0.1096 -1.2235 -1.7536
  930TIP3    H2 2797   3.779   1.903   0.662  2.9915 -0.0343 -0.6719
  931TIP3   OH2 2798   0.332   0.746   2.685 -0.5906  0.0771 -0.1804
  931TIP3    H1 2799   0.273   0.679   2.650 -1.4118  0.4747  0.4168
  931TIP3    H2 2800   0.419   0.719   2.655 -0.5783 -2.4562  1.7924
  932TIP3   OH2 2801   4.417   3.696   1.902  0.4172  0.2066  0.0953
  932TIP3    H1 2802   4.347   3.712   1.966  0.0644  1.2032 -0.5192
  932TIP3    H2 2803   4.423   3.778   1.852  0.3426 -0.7003 -1.4744
  933TIP3   OH2 2804   3.514   1.908   3.008  0.2299  0.2493  0.4596
  933TIP3    H1 2805   3.518   1.991   2.960  1.3868 -0.2048 -0.2804
  933TIP3    H2 2806   3.458   1.852   2.955 -0.5731  0.5489  0.9732
  934TIP3   OH2 2807   5.073   0.423   4.659 -0.2183 -0.1400 -0.5307
  934TIP3    H1 2808   5.109   0.387   4.740 -1.7957  1.6814  1.0699
  934TIP3    H2 2809   5.149   0.459   4.614  0.3832  1.4200  1.5700
  935TIP3   OH2 2810   4.663   1.719   0.657 -0.2163  0.1224  0.0130
  935TIP3    H1 2811   4.598   1.786   0.638  0.3892  0.4143 -1.1173
  935TIP3    H2 2812   4.746   1.766   0.659 -0.0117 -0.2472  1.4393
  936TIP3   OH2 2813   5.279   1.813   0.174 -0.6677  0.6594 -0.5878
  936TIP3    H1 2814   5.326   1.777   0.098 -1.0073 -1.1972  0.0528
  936TIP3    H2 2815   5.197   1.846   0.137 -1.5805 -1.7138 -0.8745
  937TIP3   OH2 2816   3.191   2.426   2.691  0.2778 -1.0092  0.1019
  937TIP3    H1 2817   3.194   2.512   2.734  0.9734 -1.4981  1.0696
  937TIP3    H2 2818   3.122   2.435   2.625 -0.3861 -0.0318  0.8900
  938TIP3   OH2 2819   5.279   3.024   5.030 -0.2389  0.1462  0.2959
  938TIP3    H1 2820   5.335   2.949   5.008 -0.0274  0.5520 -0.5860
  938TIP3    H2 2821   5.253   3.059   4.945 -0.4393  1.0036  0.7095
  939TIP3   OH2 2822   3.194   2.454   1.739 -0.1122 -0.2861  0.0621
  939TIP3    H1 2823   3.286   2.431   1.757 -0.3219 -0.7608  0.5687
  939TIP3    H2 2824   3.191   2.549   1.751  0.4397 -0.1850 -0.5406
  940TIP3   OH2 2825   0.804   0.020   4.162  0.2398  0.8654 -0.4506
  940TIP3    H1 2826   0.887   0.043   4.121  0.3899  1.2049  0.0363
  940TIP3    H2 2827   0.799   0.076   4.240 -1.3162  2.2493 -1.4767
  941TIP3   OH2 2828   2.633   5.568   1.794  0.2570  0.2227 -0.9811
  941TIP3    H1 2829   2.590   5.635   1.849 -0.5658  0.4115 -1.8287
  941TIP3    H2 2830   2.572   5.494   1.795  1.1347 -0.5117 -0.1031
  942TIP3   OH2 2831   6.077   4.245   1.173  0.5937 -0.2363 -0.1838
  942TIP3    H1 2832   6.142   4.315   1.186  0.7170 -0.4943  0.6926
  942TIP3    H2 2833   6.025   4.246   1.254 -0.4537 -0.0806 -0.8449
  943TIP3   OH2 2834   4.884   1.557   2.211 -0.2055 -0.2403 -0.5611
  943TIP3    H1 2835   4.858   1.564   2.303 -0.2125  0.0278 -0.5814
  943TIP3    H2 2836   4.834   1.625   2.167  0.3344  0.1151 -0.6436
  944TIP3   OH2 2837   1.783   3.104   4.449 -0.4437  0.1081 -0.4704
  944TIP3    H1 2838   1.739   3.034   4.399 -1.4560 -0.1143  0.6810
  944TIP3    H2 2839   1.711   3.151   4.492  0.3789  0.4454  0.5626
  945TIP3   OH2 2840   2.038   0.423   3.199 -0.1179  0.2285  0.1121
  945TIP3    H1 2841   2.062   0.331   3.212 -0.7670  0.3035  2.1442
  945TIP3    H2 2842   2.122   0.468   3.191  0.2103 -0.4983 -0.8356
  946TIP3   OH2 2843   0.064   2.352   3.134  0.2361  0.3078 -0.4078
  946TIP3    H1 2844   0.065   2.296   3.056  0.1351 -1.0410  0.5274
  946TIP3    H2 2845   0.108   2.300   3.201  0.4658  1.5148  0.4051
  947TIP3   OH2 2846   0.031   4.731   0.868  0.4676  0.0289  0.1462
  947TIP3    H1 2847   0.044   4.654   0.812 -0.2538 -0.8088  1.0894
  947TIP3    H2 2848   0.064   4.804   0.816  1.4275 -0.9496 -0.6670
  948TIP3   OH2 2849   2.001   0.084   1.185  0.1373 -0.5093  0.4637
  948TIP3    H1 2850   1.993   0.152   1.251 -0.7480 -1.4575  1.3576
  948TIP3    H2 2851   2.047   0.013   1.230 -0.1952 -1.0428 -0.0319
  949TIP3   OH2 2852   5.195   1.496   1.947  0.5311  0.0943  0.3621
  949TIP3    H1 2853   5.225   1.577   1.990  0.1286  0.3392  0.1893
  949TIP3    H2 2854   5.158   1.526   1.864  1.2587 -0.3695 -0.1410
  950TIP3   OH2 2855   1.124   0.678   0.738 -0.1141 -0.0095  0.5214
  950TIP3    H1 2856   1.078   0.612   0.789 -0.8338  0.8852  1.0541
  950TIP3    H2 2857   1.136   0.751   0.799  2.2235 -0.2797  0.4758
  951TIP3   OH2 2858   3.638   0.767   3.479 -0.2337  0.0554 -0.2451
  951TIP3    H1 2859   3.621   0.817   3.399 -1.6010  2.1200  1.2383
  951TIP3    H2 2860   3.717   0.717   3.460  0.5220  1.8808 -2.2709
  952TIP3   OH2 2861   5.609   5.878   4.588 -0.1391 -0.0484 -0.0727
  952TIP3    H1 2862   5.569   5.933   4.656 -0.5495  2.3220 -2.0865
  952TIP3    H2 2863   5.682   5.835   4.632 -0.2525  1.5547  1.8288
  953TIP3   OH2 2864   2.950   2.501   3.075 -0.5042 -0.0402 -0.0740
  953TIP3    H1 2865   2.979   2.490   3.165  0.0576  0.0401 -0.2415
  953TIP3    H2 2866   2.986   2.586   3.048 -0.9539  0.0926 -0.2650
  954TIP3   OH2 2867   2.075   0.962   0.603 -0.4440  0.2610 -0.5419
  954TIP3    H1 2868   2.121   0.906   0.540 -0.6808  0.0923 -0.5665
  954TIP3    H2 2869   2.103   1.051   0.581 -0.0654  0.1543 -0.5028
  955TIP3   OH2 2870   0.118   0.215   3.584  0.3026 -0.0413  0.1865
  955TIP3    H1 2871   0.112   0.155   3.510  1.0484 -1.2921  1.0964
  955TIP3    H2 2872   0.054   0.183   3.647 -1.6665  2.1074 -0.5764
  956TIP3   OH2 2873   5.824   1.954   1.769  0.3124  0.7001 -0.1867
  956TIP3    H1 2874   5.885   1.914   1.707  0.4866  0.1284  0.3522
  956TIP3    H2 2875   5.739   1.917   1.746  0.2091  1.2534 -0.7287
  957TIP3   OH2 2876   4.412   4.188   5.001  0.0667  0.5207  0.3247
  957TIP3    H1 2877   4.435   4.117   5.061 -0.8927  2.2248  2.8407
  957TIP3    H2 2878   4.316   4.185   4.996 -0.1028  2.4143  1.5637
  958TIP3   OH2 2879   2.017   0.598   4.259  0.2185 -0.1091  0.1746
  958TIP3    H1 2880   2.024   0.611   4.164  1.9254  1.2244  0.4451
  958TIP3    H2 2881   1.938   0.545   4.270  1.1606 -2.1874 -2.1557
  959TIP3   OH2 2882  -0.014   1.317   0.003 -0.1750  0.5869  0.2074
  959TIP3    H1 2883   0.009   1.231   0.037 -1.7686 -0.3549 -0.9624
  959TIP3    H2 2884   0.069   1.355  -0.025  0.7495  0.0958  2.1186
  960TIP3   OH2 2885   4.062   2.708   4.528 -0.2870  0.3431  0.4295
  960TIP3    H1 2886   4.007   2.672   4.598  0.0931  0.8526  0.9983
  960TIP3    H2 2887   4.006   2.706   4.450 -0.2333 -1.6239  0.3843
  961TIP3   OH2 2888   4.389   0.274   3.443  0.1785 -0.1110  0.2052
  961TIP3    H1 2889   4.468   0.327   3.445  1.6780 -2.2249 -0.3233
  961TIP3    H2 2890   4.325   0.327   3.396  1.5913  1.2388 -0.2513
  962TIP3   OH2 2891   4.140   1.622   2.030 -0.0075 -0.4962 -0.6963
  962TIP3    H1 2892   4.222   1.672   2.030  0.7949 -1.6821  1.5754
  962TIP3    H2 2893   4.072   1.688   2.042  0.7281  0.3714 -1.1557
  963TIP3   OH2 2894   4.122   3.639   4.754 -0.0188  0.6816  0.9206
  963TIP3    H1 2895   4.067   3.716   4.767  0.2728  0.8690  1.0309
  963TIP3    H2 2896   4.196   3.670   4.702 -0.1079  0.3898  0.6172
  964TIP3   OH2 2897   3.569   2.280   4.597  0.2260  0.0973  0.7160
  964TIP3    H1 2898   3.555   2.273   4.502  0.5104  0.8252  0.6204
  964TIP3    H2 2899   3.631   2.351   4.607  2.6192 -1.9336  1.2602
  965TIP3   OH2 2900   4.333   0.141   3.989  0.2334 -0.3293  0.2401
  965TIP3    H1 2901   4.299   0.157   4.077  0.4497  1.8814 -0.0146
  965TIP3    H2 2902   4.423   0.175   3.992  0.0644  0.2806 -0.9538
  966TIP3   OH2 2903   4.831   4.170   3.471 -0.4794  0.9493  0.1020
  966TIP3    H1 2904   4.790   4.084   3.466  1.0949  0.2243 -1.9124
  966TIP3    H2 2905   4.856   4.180   3.563 -0.5700 -0.8174  0.3515
  967TIP3   OH2 2906   3.794   1.577   2.205 -0.2741  0.1921  0.2615
  967TIP3    H1 2907   3.722   1.589   2.142  0.2779 -0.4132 -0.5209
  967TIP3    H2 2908   3.857   1.522   2.157  0.3514  0.0732  1.2103
  968TIP3   OH2 2909   0.914   5.237   3.619 -0.6348  0.4707 -0.3728
  968TIP3    H1 2910   0.867   5.318   3.598 -0.3986  1.2301  1.7431
  968TIP3    H2 2911   0.851   5.168   3.600 -2.7087  1.4550  2.2842
  969TIP3   OH2 2912   2.455   0.293   2.832 -0.0467 -0.1542 -0.2593
  969TIP3    H1 2913   2.473   0.199   2.831  0.8058 -0.0744  2.1220
  969TIP3    H2 2914   2.454   0.316   2.925 -4.8104  1.3563 -0.4176
  970TIP3   OH2 2915   1.505   4.880   4.944 -0.4411  0.1362 -0.1968
  970TIP3    H1 2916   1.538   4.791   4.934 -1.0826 -0.0953 -0.2907
  970TIP3    H2 2917   1.579   4.936   4.920  0.7996 -0.3110  2.2671
  971TIP3   OH2 2918   5.311   1.052   3.121 -0.1319  0.7971  0.4270
  971TIP3    H1 2919   5.339   0.961   3.115 -1.0090  0.5378  0.0839
  971TIP3    H2 2920   5.340   1.081   3.208  1.6179  0.7133 -0.0935
  972TIP3   OH2 2921   2.624   0.035   2.041  0.3199  0.1424  0.2858
  972TIP3    H1 2922   2.612  -0.047   2.090 -0.0940 -0.4109 -0.7063
  972TIP3    H2 2923   2.580   0.019   1.958  0.9725  1.0809 -0.2506
  973TIP3   OH2 2924   1.667   2.431   2.075  0.1111 -0.1420  0.6073
  973TIP3    H1 2925   1.667   2.422   1.980  1.2615  0.4750  0.5235
  973TIP3    H2 2926   1.700   2.348   2.107  0.2144 -0.1662  0.4375
  974TIP3   OH2 2927   4.318   5.817   3.701  0.5126 -0.3339 -0.0292
  974TIP3    H1 2928   4.285   5.759   3.769  0.8977  0.5251  0.9180
  974TIP3    H2 2929   4.239   5.846   3.655  0.1587 -0.2353  0.6224
  975TIP3   OH2 2930   0.565   3.116   2.949  0.0135  0.2439  0.4312
  975TIP3    H1 2931   0.653   3.117   2.987  0.7425  0.7307 -1.1867
  975TIP3    H2 2932   0.507   3.136   3.022  1.3183  0.7078  1.3693
  976TIP3   OH2 2933   4.950   2.532   2.442 -0.1862  0.2664 -0.0961
  976TIP3    H1 2934   4.996   2.616   2.447 -0.3364  0.2935  1.4363
  976TIP3    H2 2935   4.857   2.555   2.447 -0.3573  0.1224 -1.8809
  977TIP3   OH2 2936   4.558   0.922   4.338  0.3441 -0.2086 -0.2366
  977TIP3    H1 2937   4.600   0.987   4.282  0.6125 -1.4820 -1.5655
  977TIP3    H2 2938   4.520   0.858   4.277 -1.3003 -0.4584  0.9918
  978TIP3   OH2 2939   0.082   3.174   0.922  0.2400 -0.0300 -0.1618
  978TIP3    H1 2940   0.138   3.246   0.952 -0.3765 -0.1323  1.3299
  978TIP3    H2 2941  -0.006   3.201   0.947  0.0262 -1.3761  0.6326
  979TIP3   OH2 2942   5.365   4.072   2.599  0.1548 -0.4284  0.0497
  979TIP3    H1 2943   5.272   4.053   2.615  0.0041 -0.4544 -0.7895
  979TIP3    H2 2944   5.404   3.986   2.582  0.2675 -0.3835  0.0847
  980TIP3   OH2 2945   2.196   1.310   0.408 -0.0767  0.2012 -0.3624
  980TIP3    H1 2946   2.289   1.333   0.413 -0.4749  1.7203  2.8247
  980TIP3    H2 2947   2.169   1.336   0.320  2.4184  0.0139 -1.2524
  981TIP3   OH2 2948   3.010   3.161   3.221  1.1623 -0.3735  0.0599
  981TIP3    H1 2949   2.991   3.106   3.298 -1.7835 -1.2818 -1.1917
  981TIP3    H2 2950   3.038   3.244   3.259 -1.5029 -0.3152  2.2592
  982TIP3   OH2 2951  -0.013   2.014   0.991 -0.2222 -0.0200  0.7058
  982TIP3    H1 2952  -0.014   1.933   0.940  0.7181  0.4436 -0.0990
  982TIP3    H2 2953   0.043   2.073   0.940  1.0566  0.3598  2.4379
  983TIP3   OH2 2954   2.071   1.516   3.648 -0.1239 -0.6157  0.0754
  983TIP3    H1 2955   2.087   1.484   3.737  0.7476 -1.1083 -0.2442
  983TIP3    H2 2956   2.093   1.442   3.591  0.7389  0.1376 -0.6207
  984TIP3   OH2 2957   5.298   4.010   4.656 -0.4407  0.3752 -0.5907
  984TIP3    H1 2958   5.307   4.066   4.733 -0.9888 -2.1563  1.4783
  984TIP3    H2 2959   5.381   4.020   4.609  0.0338  1.7738  0.4805
  985TIP3   OH2 2960   3.631   0.745   1.313  0.2429  0.0100  0.1205
  985TIP3    H1 2961   3.598   0.806   1.379 -2.1896  1.9364 -2.6392
  985TIP3    H2 2962   3.673   0.801   1.247  0.1296 -1.5102 -1.3216
  986TIP3   OH2 2963   4.797   5.670   4.708 -0.4512  0.4905  0.3056
  986TIP3    H1 2964   4.885   5.667   4.744  0.0770 -1.1733 -0.9900
  986TIP3    H2 2965   4.766   5.580   4.712 -1.3070  0.6885 -1.0715
  987TIP3   OH2 2966   1.268   3.839   0.131 -0.3872  0.0508  0.4653
  987TIP3    H1 2967   1.310   3.820   0.047 -1.4017 -2.4363  0.4424
  987TIP3    H2 2968   1.335   3.819   0.196 -0.1655  0.2565  0.3000
  988TIP3   OH2 2969   4.403   4.434   5.145 -0.0574 -0.5712  0.6417
  988TIP3    H1 2970   4.356   4.390   5.215 -0.5195 -1.8022 -0.3953
  988TIP3    H2 2971   4.438   4.363   5.091 -1.7662  0.2635 -1.7128
  989TIP3   OH2 2972   2.885   1.655   1.414 -0.3345  0.1999 -0.1046
  989TIP3    H1 2973   2.888   1.718   1.486  1.2492  1.1853 -0.9791
  989TIP3    H2 2974   2.974   1.620   1.409 -0.3825  0.2458 -1.6439
  990TIP3   OH2 2975   5.557   1.282   1.589 -0.3609  0.0231 -0.1765
  990TIP3    H1 2976   5.532   1.354   1.531  0.2557  0.1015 -0.3448
  990TIP3    H2 2977   5.477   1.231   1.599  0.1465 -1.5622 -3.2795
  991TIP3   OH2 2978   3.415   2.390   4.850 -0.6276  0.1086  0.0725
  991TIP3    H1 2979   3.351   2.448   4.891 -0.9248 -0.8040  0.9479
  991TIP3    H2 2980   3.495   2.403   4.901  0.1780  1.8615 -1.5305
  992TIP3   OH2 2981   3.415   0.062   1.624  0.5647 -0.3395 -0.1391
  992TIP3    H1 2982   3.351   0.121   1.583 -1.1579 -2.1153 -0.1761
  992TIP3    H2 2983   3.434  -0.002   1.556  1.5134 -0.5111  0.2753
  993TIP3   OH2 2984   5.149   1.515   0.200 -0.2477  0.4437 -0.2135
  993TIP3    H1 2985   5.081   1.527   0.134 -0.8295  0.5972  0.4021
  993TIP3    H2 2986   5.164   1.420   0.201  1.9715  0.6477 -2.7089
  994TIP3   OH2 2987   0.531   4.654   0.659  0.0158 -0.3716  0.0791
  994TIP3    H1 2988   0.498   4.624   0.744  0.4067 -1.1440 -0.0332
  994TIP3    H2 2989   0.454   4.658   0.603 -0.4366  1.2287  0.7523
  995TIP3   OH2 2990   5.879   4.388   3.836  0.3928 -0.1251  0.5042
  995TIP3    H1 2991   5.786   4.371   3.852  0.7603 -2.8464  0.2669
  995TIP3    H2 2992   5.900   4.334   3.760  1.6357  2.4670 -1.1571
  996TIP3   OH2 2993   0.683   4.988   4.826 -0.3495  0.0442  0.2005
  996TIP3    H1 2994   0.731   5.068   4.802  0.8255 -0.5972  0.3715
  996TIP3    H2 2995   0.654   4.952   4.742  1.0424 -0.5144 -0.0681
  997TIP3   OH2 2996   4.753   5.457   0.350  0.1888 -0.1758 -0.7299
  997TIP3    H1 2997   4.690   5.413   0.407 -0.9666 -0.7890 -2.3841
  997TIP3    H2 2998   4.699   5.512   0.293  1.3881  1.2422 -0.5626
  998TIP3   OH2 2999   4.057   4.922   0.741 -0.0129 -0.9120 -0.4782
  998TIP3    H1 3000   4.062   5.004   0.791  1.1568 -1.7886  0.9197
  998TIP3    H2 3001   3.980   4.933   0.685 -1.8435 -0.1378  1.9875
  999TIP3   OH2 3002   3.925   2.536   1.766  0.3605  0.5328 -0.1549
  999TIP3    H1 3003   3.994   2.566   1.706 -0.4847  2.3984 -0.2721
  999TIP3    H2 3004   3.844   2.573   1.729 -0.6918 -1.4009  0.1166
 1000TIP3   OH2 3005   4.184   5.023   4.157  0.2662 -0.3634  0.1580
 1000TIP3    H1 3006   4.133   5.096   4.191  0.3670 -0.0438 -0.3626
 1000TIP3    H2 3007   4.253   5.064   4.104  0.4784 -0.8235  0.0680
 1001TIP3   OH2 3008   3.630   2.246   2.487 -0.0168  0.3104 -0.0351
 1001TIP3    H1 3009   3.599   2.321   2.436 -1.6929  0.2164  0.7625
 1001TIP3    H2 3010   3.700   2.280   2.542 -1.8847  1.7757  1.5760
 1002TIP3   OH2 3011   5.838   5.411   1.159 -0.1126 -0.8160  0.3156
 1002TIP3    H1 3012   5.917   5.381   1.115 -1.4012 -1.9260 -1.3763
 1002TIP3    H2 3013   5.863   5.421   1.251  1.9077 -1.3277 -0.1453
 1003TIP3   OH2 3014   4.328   5.009   3.174  0.4846 -0.0123 -0.2943
 1003TIP3    H1 3015   4.377   5.041   3.098  2.1289 -1.8739 -0.1124
 1003TIP3    H2 3016   4.374   5.046   3.249  1.0399 -0.9713 -0.1458
 1004TIP3   OH2 3017   0.165   3.558   1.584 -0.6306  0.4353 -0.1093
 1004TIP3    H1 3018   0.198   3.473   1.556 -1.5622  0.4281 -1.2656
 1004TIP3    H2 3019   0.230   3.589   1.647  1.1805  0.0683 -1.6848
 1005TIP3   OH2 3020   3.014   0.325   4.438 -0.5651 -0.0540 -0.4070
 1005TIP3    H1 3021   2.941   0.284   4.484 -0.6977 -0.4726 -0.9736
 1005TIP3    H2 3022   3.080   0.341   4.506 -0.8394 -0.4619 -0.0415
 1006TIP3   OH2 3023   0.027   2.367   0.443 -0.1218 -0.2765  0.5611
 1006TIP3    H1 3024  -0.048   2.359   0.384 -0.3103 -1.6743  0.9519
 1006TIP3    H2 3025   0.087   2.299   0.414  0.0112 -0.6391  1.6572
 1007TIP3   OH2 3026   1.346   5.484   0.351 -0.2793 -0.0986  0.1100
 1007TIP3    H1 3027   1.335   5.426   0.427 -0.7030  1.5736  1.3984
 1007TIP3    H2 3028   1.260   5.484   0.309 -1.2252  1.7902  1.8310
 1008TIP3   OH2 3029   4.171   5.484   2.599  0.5293  0.2807  0.4677
 1008TIP3    H1 3030   4.132   5.421   2.660  0.7173 -0.2361  0.0557
 1008TIP3    H2 3031   4.111   5.485   2.524  1.7660 -1.2563 -0.6092
 1009TIP3   OH2 3032   4.242   4.686   4.731 -0.3687  0.1583 -0.8197
 1009TIP3    H1 3033   4.336   4.703   4.728 -0.1422 -1.0433 -0.8221
 1009TIP3    H2 3034   4.232   4.621   4.800 -1.1221 -0.1753 -1.2342
 1010TIP3   OH2 3035   3.975   3.496   0.434  0.1063  0.1112 -0.0583
 1010TIP3    H1 3036   3.885   3.521   0.455 -0.6506 -1.9399 -0.5857
 1010TIP3    H2 3037   4.006   3.564   0.374 -1.9612 -0.3886 -1.8158
 1011TIP3   OH2 3038   1.872   3.004   4.970  0.4417 -0.5695  0.7351
 1011TIP3    H1 3039   1.815   3.040   5.038 -2.1729 -1.6797 -0.7059
 1011TIP3    H2 3040   1.827   2.925   4.941  1.4073 -0.1479 -2.2599
 1012TIP3   OH2 3041   1.885   0.411   2.954 -0.2323  0.1992 -0.2436
 1012TIP3    H1 3042   1.840   0.433   3.036  1.0149 -1.4562  0.9258
 1012TIP3    H2 3043   1.966   0.462   2.956  0.8120 -1.4315  0.6121
 1013TIP3   OH2 3044   3.445   3.827   0.899 -0.2505 -0.3186  0.0725
 1013TIP3    H1 3045   3.520   3.768   0.898 -0.6966 -0.9245 -1.6017
 1013TIP3    H2 3046   3.387   3.791   0.966 -0.3020 -1.5528 -0.5962
 1014TIP3   OH2 3047   2.469   1.529   4.543 -0.0488  0.3330 -0.1541
 1014TIP3    H1 3048   2.508   1.601   4.494 -0.7584  0.3346 -0.7201
 1014TIP3    H2 3049   2.432   1.471   4.477  1.8513 -1.3867  0.1822
 1015TIP3   OH2 3050   1.975   4.029   4.157 -0.3805 -0.6280  0.1575
 1015TIP3    H1 3051   1.924   4.047   4.235  0.6535 -0.7218  0.8834
 1015TIP3    H2 3052   1.910   4.012   4.088 -1.3088 -0.9628  1.0917
 1016TIP3   OH2 3053   3.902   5.234   3.112 -0.2286 -0.4142  0.2154
 1016TIP3    H1 3054   3.952   5.314   3.128 -1.2422  0.6337 -1.5408
 1016TIP3    H2 3055   3.837   5.233   3.182 -0.3791  0.4679  0.1047
 1017TIP3   OH2 3056   3.505   0.385   3.143  0.1942  0.1537 -0.0521
 1017TIP3    H1 3057   3.414   0.414   3.147 -0.1322 -0.6792 -1.1054
 1017TIP3    H2 3058   3.533   0.383   3.235 -0.8762  0.3265  0.2964
 1018TIP3   OH2 3059   2.812   2.517   2.057  0.1277 -0.4146 -0.6237
 1018TIP3    H1 3060   2.810   2.425   2.030 -1.4045 -0.7013  0.3618
 1018TIP3    H2 3061   2.733   2.529   2.109  0.9690  1.1396  0.3803
 1019TIP3   OH2 3062   5.190   4.209   2.770 -0.5833 -0.7894 -0.3519
 1019TIP3    H1 3063   5.138   4.183   2.846 -1.9389 -0.3505 -1.0962
 1019TIP3    H2 3064   5.125   4.241   2.706  0.6503  0.3869 -1.0707
 1020TIP3   OH2 3065   5.532   2.006   2.661  0.2073  0.0280 -0.6143
 1020TIP3    H1 3066   5.595   2.055   2.714 -0.1613  1.2832 -1.2948
 1020TIP3    H2 3067   5.464   2.069   2.640 -1.7968 -1.5018  0.8654
 1021TIP3   OH2 3068   0.181   4.304   4.211  0.2599 -0.9144  0.2177
 1021TIP3    H1 3069   0.269   4.338   4.228 -0.1951  0.4578  0.0044
 1021TIP3    H2 3070   0.192   4.248   4.134  1.0143 -1.0760  0.4346
 1022TIP3   OH2 3071   4.688   2.782   3.874  0.2514 -0.4048  0.0641
 1022TIP3    H1 3072   4.667   2.762   3.965 -0.0880  0.3155  0.1559
 1022TIP3    H2 3073   4.657   2.706   3.825 -0.8232 -0.2135  0.4088
 1023TIP3   OH2 3074   2.884   3.553   4.039 -0.4747 -0.0084 -0.3495
 1023TIP3    H1 3075   2.970   3.593   4.057 -0.0579 -1.2776  0.6483
 1023TIP3    H2 3076   2.843   3.544   4.125 -1.5925  0.4998 -0.8067
 1024TIP3   OH2 3077   4.271   2.918   4.989 -0.1101 -0.2771  0.0322
 1024TIP3    H1 3078   4.277   3.004   4.947 -1.7649 -0.8656 -1.5535
 1024TIP3    H2 3079   4.189   2.881   4.956  0.4298 -2.3667  0.8770
 1025TIP3   OH2 3080   2.805   3.688   3.497 -0.0174 -0.2462 -0.3947
 1025TIP3    H1 3081   2.792   3.602   3.536  2.2822 -0.3336  0.3351
 1025TIP3    H2 3082   2.724   3.735   3.515 -0.4474 -1.5181  1.2000
 1026TIP3   OH2 3083   5.808   0.742  -0.012  0.1912 -0.1935  0.3439
 1026TIP3    H1 3084   5.728   0.693   0.005  1.7141 -2.2617  2.1110
 1026TIP3    H2 3085   5.822   0.794   0.067  0.2861  0.6250 -0.2035
 1027TIP3   OH2 3086   5.347   4.673   3.616 -0.1675 -0.0575 -0.3113
 1027TIP3    H1 3087   5.359   4.759   3.656  0.4673 -0.3545  0.1397
 1027TIP3    H2 3088   5.412   4.617   3.658  1.4920 -0.0756 -2.7017
 1028TIP3   OH2 3089   3.982   4.276   2.300  0.1480 -0.1863 -0.4359
 1028TIP3    H1 3090   3.920   4.289   2.228 -2.0717 -0.3780  1.3135
 1028TIP3    H2 3091   4.068   4.276   2.258 -1.0596 -0.9651 -3.1458
 1029TIP3   OH2 3092   0.633   4.387   1.893  0.6693 -0.7204  0.1519
 1029TIP3    H1 3093   0.543   4.395   1.926 -0.2070  0.6894 -2.2998
 1029TIP3    H2 3094   0.629   4.315   1.830  0.6728  0.6796 -1.5235
 1030TIP3   OH2 3095   1.667   3.548   2.517  0.0845  0.0912  0.4983
 1030TIP3    H1 3096   1.746   3.545   2.571  0.9873  1.0480 -0.7193
 1030TIP3    H2 3097   1.700   3.564   2.428 -1.5436  1.7038  0.1467
 1031TIP3   OH2 3098   1.529   2.545   3.497 -1.2622  0.0243  0.1514
 1031TIP3    H1 3099   1.502   2.533   3.588  1.2649 -3.5127  0.6791
 1031TIP3    H2 3100   1.618   2.581   3.503 -1.1109 -0.1483 -0.8650
 1032TIP3   OH2 3101   1.673   4.408   3.313 -0.5992 -0.0806 -0.3118
 1032TIP3    H1 3102   1.657   4.328   3.362  0.5903 -1.4550 -2.0345
 1032TIP3    H2 3103   1.586   4.444   3.296 -1.3089 -2.0368 -1.1007
 1033TIP3   OH2 3104   5.889   3.887   4.846  0.4412  0.6501  0.3377
 1033TIP3    H1 3105   5.933   3.940   4.779 -0.3565  0.2481 -0.5271
 1033TIP3    H2 3106   5.796   3.899   4.828  0.2416 -0.3729  0.6516
 1034TIP3   OH2 3107   4.162   1.303   5.022  0.4040 -0.0075 -0.6099
 1034TIP3    H1 3108   4.236   1.344   5.065  0.2092 -0.8603  0.6106
 1034TIP3    H2 3109   4.153   1.218   5.065 -1.6182  0.2914 -0.3187
 1035TIP3   OH2 3110   4.787   3.397   5.158  1.1615 -0.6705 -0.5015
 1035TIP3    H1 3111   4.741   3.411   5.075  2.2828 -0.3643 -1.0987
 1035TIP3    H2 3112   4.745   3.321   5.197  0.8205 -1.0084 -1.5059
 1036TIP3   OH2 3113   6.092   4.659   2.301 -0.1561  0.6664  0.2332
 1036TIP3    H1 3114   6.040   4.624   2.228 -1.4398  2.3356  0.2801
 1036TIP3    H2 3115   6.027   4.696   2.360  1.0411  2.2153  0.6398
 1037TIP3   OH2 3116   3.657   5.764   3.820 -0.2201 -0.2915  0.0614
 1037TIP3    H1 3117   3.596   5.693   3.797  0.2764 -0.4641 -0.7960
 1037TIP3    H2 3118   3.740   5.737   3.781 -0.1300  0.9742 -0.6966
 1038TIP3   OH2 3119   0.178   5.394   1.120  0.5963 -0.0520 -0.3612
 1038TIP3    H1 3120   0.150   5.475   1.161  0.3347 -0.0675 -0.5085
 1038TIP3    H2 3121   0.215   5.342   1.192 -2.2874 -1.2082  0.4440
 1039TIP3   OH2 3122   3.715   2.940   0.876 -0.6155  0.0711 -0.2170
 1039TIP3    H1 3123   3.750   2.923   0.789  0.7579  0.5155  0.2250
 1039TIP3    H2 3124   3.637   2.884   0.883  0.3610 -1.4240 -1.0021
 1040TIP3   OH2 3125   4.464   4.437   4.194  0.3249 -0.2647  0.3054
 1040TIP3    H1 3126   4.390   4.449   4.254  1.0317  0.1677  1.1174
 1040TIP3    H2 3127   4.541   4.441   4.251  0.9731 -0.7536 -0.5200
 1041TIP3   OH2 3128   4.408   1.591   2.584 -0.4153  0.8899 -0.8057
 1041TIP3    H1 3129   4.333   1.627   2.630 -0.1591 -0.3887  0.7005
 1041TIP3    H2 3130   4.399   1.622   2.494 -2.1818  1.5857 -0.4194
 1042TIP3   OH2 3131   5.390   2.104   0.247  0.2393  0.4757  0.5100
 1042TIP3    H1 3132   5.363   2.013   0.238  3.0004 -0.6362  2.2194
 1042TIP3    H2 3133   5.484   2.103   0.229  0.0096  3.4795 -1.7815
 1043TIP3   OH2 3134   1.609   1.059   0.209  0.2342 -0.2240  0.6984
 1043TIP3    H1 3135   1.596   1.149   0.179 -2.0714 -0.5821  0.4088
 1043TIP3    H2 3136   1.682   1.026   0.156  1.0418  1.4136  0.7405
 1044TIP3   OH2 3137   4.793   0.003   1.748 -0.0436  0.1328  0.7665
 1044TIP3    H1 3138   4.709   0.049   1.745  0.0395  0.2491 -0.8269
 1044TIP3    H2 3139   4.856   0.069   1.718 -0.0608 -1.1649 -2.6321
 1045TIP3   OH2 3140   3.908   5.066   3.536  0.0954 -0.6366 -0.5228
 1045TIP3    H1 3141   3.984   5.075   3.479 -0.2285 -0.6674 -0.9641
 1045TIP3    H2 3142   3.944   5.034   3.619  0.9127  1.8792  0.1881
 1046TIP3   OH2 3143   0.540   3.350   3.853  0.4164 -0.3121 -0.1870
 1046TIP3    H1 3144   0.446   3.350   3.835 -0.1155 -2.3654  2.0169
 1046TIP3    H2 3145   0.568   3.439   3.834 -2.2612  0.7345  0.3014
 1047TIP3   OH2 3146   3.641   5.440   3.504 -0.0290 -0.4418  0.0813
 1047TIP3    H1 3147   3.577   5.491   3.455 -0.4346  0.2630  1.2833
 1047TIP3    H2 3148   3.654   5.361   3.453  0.1952  0.6171 -1.5580
 1048TIP3   OH2 3149   2.386   0.135   4.370 -0.0639 -0.1232  0.6514
 1048TIP3    H1 3150   2.316   0.147   4.305 -0.2424  0.1730  0.8949
 1048TIP3    H2 3151   2.467   0.147   4.320 -0.1029 -2.0855 -0.0008
 1049TIP3   OH2 3152   6.205   2.473   5.014 -0.5166 -0.3853  0.0479
 1049TIP3    H1 3153   6.200   2.569   5.017  0.7292 -0.2775 -0.7665
 1049TIP3    H2 3154   6.228   2.453   4.924 -1.3201 -1.5038  0.0672
 1050TIP3   OH2 3155   2.589   4.127   0.812 -0.4530  0.1497 -0.3536
 1050TIP3    H1 3156   2.567   4.082   0.730 -2.1908 -1.0106  0.6813
 1050TIP3    H2 3157   2.623   4.212   0.784 -0.9779 -0.2158 -2.2768
 1051TIP3   OH2 3158   2.812   1.963   3.751 -0.3497 -0.1436  0.4185
 1051TIP3    H1 3159   2.885   2.025   3.753 -1.3092  1.0224  0.0852
 1051TIP3    H2 3160   2.756   1.990   3.823 -0.0272 -1.6110  1.2653
 1052TIP3   OH2 3161   3.424   2.136   3.777 -0.2856 -0.3693 -0.4384
 1052TIP3    H1 3162   3.462   2.170   3.857 -0.8846 -0.5513 -0.0711
 1052TIP3    H2 3163   3.430   2.041   3.785  0.4268 -0.3775 -0.9929
 1053TIP3   OH2 3164   2.108   4.284   4.262 -0.3426 -0.2039 -0.0700
 1053TIP3    H1 3165   2.017   4.312   4.249 -0.4119  0.4889  1.6928
 1053TIP3    H2 3166   2.160   4.362   4.244 -0.3269  0.2557  1.7717
 1054TIP3   OH2 3167   3.439   2.933   0.831  0.4271  0.2280 -0.1856
 1054TIP3    H1 3168   3.371   2.866   0.834 -1.1542  1.7714  2.2009
 1054TIP3    H2 3169   3.433   2.969   0.743  0.1653 -1.5768 -0.9518
 1055TIP3   OH2 3170   3.029   1.959   1.275 -0.2499 -0.1450  0.3183
 1055TIP3    H1 3171   3.039   2.053   1.261 -1.3339  0.0236  0.5786
 1055TIP3    H2 3172   3.118   1.924   1.273  0.0359  0.5073 -2.4454
 1056TIP3   OH2 3173   4.215   0.381   4.914 -0.5697  0.0795  0.0632
 1056TIP3    H1 3174   4.168   0.457   4.879 -0.3100  0.2572  0.0998
 1056TIP3    H2 3175   4.274   0.418   4.980 -0.1538 -0.1080 -0.2039
 1057TIP3   OH2 3176   2.558   1.879   4.702 -0.0780  0.1860 -0.4715
 1057TIP3    H1 3177   2.629   1.938   4.726  0.4645 -0.5527 -0.2315
 1057TIP3    H2 3178   2.577   1.798   4.749 -0.7408 -0.2314 -0.9025
 1058TIP3   OH2 3179   6.136   1.427   0.738 -0.1571 -0.5784  0.3735
 1058TIP3    H1 3180   6.117   1.438   0.831  0.7382  0.3133  0.4612
 1058TIP3    H2 3181   6.228   1.450   0.729  0.0224 -1.5820 -0.5871
 1059TIP3   OH2 3182   4.122   1.892   3.292 -0.4167 -0.2941  0.0216
 1059TIP3    H1 3183   4.160   1.842   3.364  0.1407 -0.8587 -0.6487
 1059TIP3    H2 3184   4.192   1.950   3.263 -0.4911 -0.3772 -0.3390
 1060TIP3   OH2 3185   4.150   5.729   3.141 -0.2429 -0.2086  0.8286
 1060TIP3    H1 3186   4.133   5.821   3.162 -1.6852  0.4257 -2.4235
 1060TIP3    H2 3187   4.145   5.725   3.045  1.7408 -3.3470  0.7127
 1061TIP3   OH2 3188   0.002   2.161   4.113  0.1036  0.1464 -0.0391
 1061TIP3    H1 3189   0.027   2.076   4.076 -0.0785  0.7949 -1.7807
 1061TIP3    H2 3190   0.007   2.149   4.207  2.9190 -0.9651 -0.2359
 1062TIP3   OH2 3191   4.194   2.498   0.222  0.3526 -0.7948 -0.7237
 1062TIP3    H1 3192   4.256   2.482   0.151  0.5280  1.2250 -1.0977
 1062TIP3    H2 3193   4.108   2.490   0.181  0.4540  0.7996 -1.3414
 1063TIP3   OH2 3194   2.918   4.565   2.037  0.2050 -0.1418  0.4199
 1063TIP3    H1 3195   2.860   4.499   2.000  1.1607 -1.8635  1.8317
 1063TIP3    H2 3196   2.863   4.612   2.101 -0.0033 -0.8542  0.7716
 1064TIP3   OH2 3197   6.037   3.556   2.661  0.8258 -0.4811  0.7047
 1064TIP3    H1 3198   6.101   3.600   2.716 -0.8543 -0.0542  2.4030
 1064TIP3    H2 3199   5.959   3.611   2.666  0.0543 -1.3787 -0.6928
 1065TIP3   OH2 3200   4.298   0.956   0.294 -0.1844 -0.2615 -0.2399
 1065TIP3    H1 3201   4.320   0.919   0.209  1.8570  2.1252 -0.8723
 1065TIP3    H2 3202   4.383   0.976   0.334 -1.1340  0.6349  1.4341
 1066TIP3   OH2 3203   6.281   1.190   2.982 -0.1384  0.1650 -0.1713
 1066TIP3    H1 3204   6.287   1.262   3.044  0.4823 -0.5094  0.5664
 1066TIP3    H2 3205   6.372   1.167   2.962 -0.1918 -2.3755  1.9575
 1067TIP3   OH2 3206   5.547   1.339   0.179 -0.1377 -0.4211 -0.2454
 1067TIP3    H1 3207   5.540   1.431   0.156  1.4229 -0.0909  0.4741
 1067TIP3    H2 3208   5.556   1.338   0.275  0.1985 -1.2818 -0.2710
 1068TIP3   OH2 3209   0.028   0.878   3.924  0.8843 -0.0976  0.0126
 1068TIP3    H1 3210   0.094   0.893   3.992 -0.2927 -0.0392  1.1821
 1068TIP3    H2 3211  -0.056   0.892   3.968 -0.0127 -2.3431 -0.8400
 1069TIP3   OH2 3212   1.137   1.670   0.115 -0.1636 -0.0842  0.2420
 1069TIP3    H1 3213   1.141   1.766   0.115 -0.4899 -0.0650 -0.5205
 1069TIP3    H2 3214   1.054   1.649   0.072 -0.4022 -0.7088  0.9627
 1070TIP3   OH2 3215   4.599   4.955   0.673  0.9226 -0.7056 -0.4854
 1070TIP3    H1 3216   4.503   4.955   0.665  0.8001 -0.0297  0.6801
 1070TIP3    H2 3217   4.615   4.972   0.766  2.1788  1.8440 -1.0766
 1071TIP3   OH2 3218   0.161   2.615   0.473 -1.0878  0.1403 -0.2590
 1071TIP3    H1 3219   0.254   2.596   0.479 -0.4475  2.1108 -2.4801
 1071TIP3    H2 3220   0.118   2.531   0.488  1.0209 -0.8686  0.5457
 1072TIP3   OH2 3221   4.257   2.200   2.277 -0.5951 -0.8129 -0.3371
 1072TIP3    H1 3222   4.199   2.125   2.273 -0.6538 -0.8051  0.2548
 1072TIP3    H2 3223   4.309   2.186   2.356  0.8079 -1.2500 -1.3017
 1073TIP3   OH2 3224   4.307   2.675   2.331  0.4704  0.4191 -0.1280
 1073TIP3    H1 3225   4.272   2.587   2.342  0.7038  0.2070 -1.0325
 1073TIP3    H2 3226   4.233   2.733   2.350  0.2619  0.0273  0.2639
 1074TIP3   OH2 3227   4.726   4.770   4.318  0.2065  0.2843  0.0079
 1074TIP3    H1 3228   4.786   4.838   4.285  0.9294 -0.4739 -0.2645
 1074TIP3    H2 3229   4.640   4.798   4.288  0.4654  1.1998  0.0808
 1075TIP3   OH2 3230   1.728   4.220   1.166 -0.1019  0.6903 -0.1990
 1075TIP3    H1 3231   1.816   4.212   1.130  0.0565  1.3074  0.0330
 1075TIP3    H2 3232   1.684   4.139   1.141  0.9664 -0.2698  0.9144
 1076TIP3   OH2 3233   3.663   3.206   4.473 -0.0526  0.0772  0.0214
 1076TIP3    H1 3234   3.735   3.267   4.482  0.8971 -0.9159 -0.6434
 1076TIP3    H2 3235   3.617   3.210   4.557  0.2770  1.3184  0.1542
 1077TIP3   OH2 3236   3.081   5.141   0.197 -0.3115  0.2721  0.0683
 1077TIP3    H1 3237   3.015   5.164   0.263  0.8010  0.6396  1.0941
 1077TIP3    H2 3238   3.098   5.048   0.211 -0.1615  0.3226  0.2260
 1078TIP3   OH2 3239   2.149   3.195   2.803 -0.0137 -0.1678  0.4210
 1078TIP3    H1 3240   2.135   3.285   2.832  0.9715  0.1375 -0.0329
 1078TIP3    H2 3241   2.061   3.158   2.797 -0.4316  0.7875  0.5233
 1079TIP3   OH2 3242   5.630   4.281   2.058  0.4709 -0.2310  0.2928
 1079TIP3    H1 3243   5.711   4.305   2.012  1.3372 -0.8339  1.4751
 1079TIP3    H2 3244   5.651   4.287   2.151 -0.3896 -1.8460  0.6387
 1080TIP3   OH2 3245   2.047   5.211   4.949 -0.1326 -0.5558  0.0786
 1080TIP3    H1 3246   2.006   5.294   4.924  0.7208  0.0351  0.5973
 1080TIP3    H2 3247   2.028   5.152   4.876 -1.5195 -0.1787  0.1084
 1081TIP3   OH2 3248   1.684   5.696   4.701 -0.6960  0.9650 -0.0065
 1081TIP3    H1 3249   1.691   5.712   4.607  1.5151  0.6273  0.0582
 1081TIP3    H2 3250   1.768   5.723   4.737 -0.8390 -0.5496  1.6303
 1082TIP3   OH2 3251   1.013   1.261   4.077 -0.3214  0.3986  0.3357
 1082TIP3    H1 3252   0.990   1.212   3.998 -0.8653  0.7571  0.2668
 1082TIP3    H2 3253   0.940   1.321   4.091  1.2063  2.6400 -0.7153
 1083TIP3   OH2 3254   0.324   5.532   2.461  0.0931  0.0830 -0.0859
 1083TIP3    H1 3255   0.264   5.469   2.502  0.1818 -0.7328 -1.1738
 1083TIP3    H2 3256   0.298   5.533   2.369  0.7322  0.9183 -0.2650
 1084TIP3   OH2 3257   5.508   2.389   3.428 -0.1313  0.1284 -0.2122
 1084TIP3    H1 3258   5.537   2.479   3.443 -0.4648  0.4058 -1.1430
 1084TIP3    H2 3259   5.427   2.382   3.477 -0.5019  0.5885 -0.7374
 1085TIP3   OH2 3260   4.225   3.431   4.998 -0.3222 -0.0469  0.2586
 1085TIP3    H1 3261   4.145   3.401   5.042 -0.7899  0.6729 -0.0854
 1085TIP3    H2 3262   4.197   3.504   4.943  0.9405  1.7948  1.8945
 1086TIP3   OH2 3263   2.230   2.102   4.112  0.4981 -0.3794 -0.3928
 1086TIP3    H1 3264   2.276   2.176   4.072 -0.1842 -0.5077 -1.4435
 1086TIP3    H2 3265   2.197   2.137   4.195  0.8915  0.2497 -0.4918
 1087TIP3   OH2 3266   4.895   0.201   1.020 -0.4545 -0.4097  0.4096
 1087TIP3    H1 3267   4.889   0.234   1.110 -2.2988 -1.4816  0.7373
 1087TIP3    H2 3268   4.928   0.112   1.030 -1.2587 -0.7488  0.1020
 1088TIP3   OH2 3269   1.310   3.736   2.114 -0.2641  0.3713  0.2113
 1088TIP3    H1 3270   1.302   3.827   2.084 -0.2146  0.6796  1.0915
 1088TIP3    H2 3271   1.222   3.700   2.106 -0.8360  1.2490  2.1323
 1089TIP3   OH2 3272   2.589   1.574   3.510 -0.0364  0.6515 -0.5140
 1089TIP3    H1 3273   2.519   1.515   3.484 -0.0395 -1.5233  3.6939
 1089TIP3    H2 3274   2.544   1.649   3.550 -0.1085 -0.4625  1.6294
 1090TIP3   OH2 3275   6.185   5.794   4.428  0.7084  0.3811 -0.0944
 1090TIP3    H1 3276   6.186   5.718   4.369  0.8501 -1.0488  1.6509
 1090TIP3    H2 3277   6.094   5.797   4.460  0.6719  1.0396 -0.2625
 1091TIP3   OH2 3278   5.876   5.387   3.605 -0.0483  0.2449 -0.1520
 1091TIP3    H1 3279   5.852   5.451   3.671 -1.6533  0.7665 -1.1983
 1091TIP3    H2 3280   5.862   5.431   3.521 -2.1127 -1.6973 -0.9374
 1092TIP3   OH2 3281   4.185   1.985   0.355  0.7634  0.2151  0.0155
 1092TIP3    H1 3282   4.201   2.067   0.402 -3.3020  0.7831  0.7278
 1092TIP3    H2 3283   4.143   1.928   0.419  2.1828 -2.0013 -0.8957
 1093TIP3   OH2 3284   5.951   3.322   1.178 -0.2696  0.3738 -0.2223
 1093TIP3    H1 3285   6.026   3.284   1.225  0.9601  0.7128 -1.8203
 1093TIP3    H2 3286   5.879   3.262   1.196  0.3580  0.0340  1.3785
 1094TIP3   OH2 3287   4.719   4.701   0.686  0.3643  0.3176  1.0248
 1094TIP3    H1 3288   4.774   4.680   0.610  1.6076  0.1013  1.9430
 1094TIP3    H2 3289   4.674   4.782   0.661  0.3203 -0.0483 -0.1453
 1095TIP3   OH2 3290   5.941   0.408   4.040 -0.4582  0.3487  0.2909
 1095TIP3    H1 3291   5.999   0.481   4.061 -0.5786  0.7685 -0.7504
 1095TIP3    H2 3292   5.992   0.330   4.061  0.8518  0.6895 -1.4172
 1096TIP3   OH2 3293   1.765   5.707   3.017 -0.3823  0.2714  0.1507
 1096TIP3    H1 3294   1.833   5.732   2.954  1.3361  0.7104  2.0719
 1096TIP3    H2 3295   1.775   5.769   3.089 -1.8566 -0.5830  1.1447
 1097TIP3   OH2 3296   1.607   2.532   4.625 -0.0560 -0.3474  0.4939
 1097TIP3    H1 3297   1.672   2.504   4.561 -0.3428 -1.3767  0.6296
 1097TIP3    H2 3298   1.542   2.581   4.575  0.0373 -0.6279  0.0913
 1098TIP3   OH2 3299   4.299   5.342   1.724  0.2876 -0.0042  0.4564
 1098TIP3    H1 3300   4.378   5.290   1.709 -0.3994 -0.4400 -2.1178
 1098TIP3    H2 3301   4.251   5.337   1.641 -2.3575  0.4225  1.8560
 1099TIP3   OH2 3302   5.830   2.898   1.680 -0.5731 -0.2093  0.2351
 1099TIP3    H1 3303   5.910   2.891   1.627  0.0992  0.0793  1.1782
 1099TIP3    H2 3304   5.763   2.856   1.627  0.1067 -0.0666 -0.7769
 1100TIP3   OH2 3305   3.545   0.951   1.459 -0.1096  0.4034  0.1729
 1100TIP3    H1 3306   3.523   0.944   1.552  1.2177 -1.3240  0.4038
 1100TIP3    H2 3307   3.586   1.038   1.451  0.7168  0.1588  1.4317
 1101TIP3   OH2 3308   5.284   0.537   1.760 -0.1357  0.4533 -0.0976
 1101TIP3    H1 3309   5.321   0.619   1.728  1.4962 -0.4887 -0.7321
 1101TIP3    H2 3310   5.342   0.469   1.726 -0.4604 -0.8593  1.8193
 1102TIP3   OH2 3311   0.895   4.148   3.932  0.0746 -0.7234 -0.3492
 1102TIP3    H1 3312   0.911   4.054   3.944  1.7180 -0.6769 -1.7280
 1102TIP3    H2 3313   0.982   4.188   3.939 -0.4432  0.5646 -0.9651
 1103TIP3   OH2 3314   5.032   2.795   2.385  0.0720 -0.0462 -0.2987
 1103TIP3    H1 3315   5.016   2.883   2.419  0.3936 -0.4599  0.9706
 1103TIP3    H2 3316   5.124   2.796   2.361  0.9673 -0.9227  2.6685
 1104TIP3   OH2 3317   3.250   4.722   1.471 -0.3547 -0.2815  0.8485
 1104TIP3    H1 3318   3.301   4.754   1.546 -0.7714  0.7201  0.7226
 1104TIP3    H2 3319   3.187   4.792   1.454 -0.7456 -0.8256  0.0217
 1105TIP3   OH2 3320   0.272   1.263   4.845  0.1561  0.6240  0.0021
 1105TIP3    H1 3321   0.280   1.204   4.769 -0.2364  0.8289 -0.2004
 1105TIP3    H2 3322   0.334   1.227   4.909 -0.2289 -0.1366 -0.0365
 1106TIP3   OH2 3323   5.430   2.712   0.866  0.4027 -0.7274  0.1285
 1106TIP3    H1 3324   5.449   2.631   0.912  1.3061 -1.1785 -1.0055
 1106TIP3    H2 3325   5.389   2.685   0.784 -0.0645  0.0066  0.1042
 1107TIP3   OH2 3326   6.350   5.684   0.302  0.1256 -0.1772  0.5108
 1107TIP3    H1 3327   6.326   5.592   0.309 -1.0310 -0.0750 -1.3375
 1107TIP3    H2 3328   6.268   5.728   0.278  1.4174  0.7141 -2.7242
 1108TIP3   OH2 3329   0.417   0.650   4.447 -0.4594  0.3621 -0.0644
 1108TIP3    H1 3330   0.443   0.626   4.536 -2.4823  0.6372  0.6439
 1108TIP3    H2 3331   0.486   0.711   4.418  0.5220 -0.1606  1.0814
 1109TIP3   OH2 3332   0.346   3.541   3.075  0.3094 -0.8693 -0.2146
 1109TIP3    H1 3333   0.322   3.484   3.148 -1.5544  0.4956  0.3190
 1109TIP3    H2 3334   0.383   3.482   3.010 -0.2388 -2.4828  0.8710
 1110TIP3   OH2 3335   5.927   0.874   2.453 -0.1149  0.4045 -0.3485
 1110TIP3    H1 3336   5.926   0.918   2.538 -1.4912 -1.5704  0.7524
 1110TIP3    H2 3337   5.839   0.838   2.443 -0.3438  1.4690 -3.1630
 1111TIP3   OH2 3338   0.546   4.376   2.828 -0.1046  0.3813 -0.4142
 1111TIP3    H1 3339   0.487   4.439   2.786 -1.6814  0.8545  2.2404
 1111TIP3    H2 3340   0.579   4.423   2.905 -0.1514 -1.5232  0.8219
 1112TIP3   OH2 3341   3.473   1.132   4.352 -0.1672 -0.2384 -0.7323
 1112TIP3    H1 3342   3.490   1.076   4.276  1.1802  0.8414 -1.2749
 1112TIP3    H2 3343   3.412   1.199   4.319 -0.6089 -0.5142 -0.4888
 1113TIP3   OH2 3344   3.045   3.717   2.839 -0.2239  0.4060 -0.0628
 1113TIP3    H1 3345   3.095   3.798   2.833  0.9308 -0.1561  1.3826
 1113TIP3    H2 3346   2.962   3.743   2.880 -0.9685  1.2474 -1.9647
 1114TIP3   OH2 3347   4.328   5.764   0.543  0.2420 -0.2423 -0.8114
 1114TIP3    H1 3348   4.286   5.683   0.515 -0.6464 -0.4207  0.9163
 1114TIP3    H2 3349   4.271   5.798   0.612  2.2431  0.1657  0.7411
 1115TIP3   OH2 3350   1.970   1.641   4.615 -0.8164  0.2683  0.5618
 1115TIP3    H1 3351   2.003   1.717   4.663  1.1354  0.7067 -1.3162
 1115TIP3    H2 3352   1.875   1.652   4.616 -0.7517  1.2009  2.6871
 1116TIP3   OH2 3353   2.737   1.813   4.288  0.4885 -0.9319  0.1061
 1116TIP3    H1 3354   2.764   1.897   4.251 -1.1567 -1.1066 -1.6033
 1116TIP3    H2 3355   2.799   1.798   4.359  0.7181  1.8008  0.5901
 1117TIP3   OH2 3356   2.075   1.348   3.013  0.4127 -0.4027  0.3993
 1117TIP3    H1 3357   2.042   1.301   2.936 -0.1608  0.9079 -0.1813
 1117TIP3    H2 3358   2.165   1.372   2.989 -0.6660  2.5205 -1.1181
 1118TIP3   OH2 3359   3.930   1.344   4.682  0.4536  0.2910  0.1413
 1118TIP3    H1 3360   3.841   1.309   4.686  0.5215  0.2485  2.9360
 1118TIP3    H2 3361   3.986   1.273   4.712  1.1682  1.0282  0.6173
 1119TIP3   OH2 3362   4.505   3.463   3.563 -0.0397 -0.2799 -0.1509
 1119TIP3    H1 3363   4.537   3.456   3.653  0.4393  0.2846 -0.2722
 1119TIP3    H2 3364   4.434   3.527   3.567  1.2574  1.2348 -0.4846
 1120TIP3   OH2 3365   4.117   1.391   1.481 -0.1464 -0.0901  0.6957
 1120TIP3    H1 3366   4.154   1.468   1.437  0.0387 -0.9322 -0.6892
 1120TIP3    H2 3367   4.090   1.423   1.567 -0.6392  1.6704 -0.0693
 1121TIP3   OH2 3368   1.674   3.042   1.295 -0.3622  0.1303 -0.3348
 1121TIP3    H1 3369   1.729   3.035   1.373  0.2689 -0.4206 -0.8152
 1121TIP3    H2 3370   1.724   3.099   1.236 -0.6027  0.1369 -0.5300
 1122TIP3   OH2 3371   3.464   0.669   4.688 -0.4852 -0.1362 -0.4540
 1122TIP3    H1 3372   3.466   0.755   4.647 -1.6450  0.8501  1.4254
 1122TIP3    H2 3373   3.372   0.642   4.683 -0.5939 -0.1467  1.0635
 1123TIP3   OH2 3374   4.812   2.342   4.765  0.5380  0.6300  0.4281
 1123TIP3    H1 3375   4.845   2.305   4.848  0.8207  1.4880  0.7061
 1123TIP3    H2 3376   4.815   2.269   4.704  2.0452  0.4320  0.7049
 1124TIP3   OH2 3377   3.416   1.717   1.580 -0.3391 -0.2496  0.1126
 1124TIP3    H1 3378   3.458   1.757   1.504 -1.2203  1.4391  0.4627
 1124TIP3    H2 3379   3.481   1.726   1.650 -0.2048 -0.1957 -0.0185
 1125TIP3   OH2 3380   5.489   1.770   2.542  0.5918 -0.0082  0.2854
 1125TIP3    H1 3381   5.496   1.860   2.572  0.3609 -0.0641  0.5137
 1125TIP3    H2 3382   5.576   1.748   2.508  0.5280  0.4497 -0.1916
 1126TIP3   OH2 3383   0.081   4.315   1.883 -0.5343  0.6223  0.0039
 1126TIP3    H1 3384   0.095   4.400   1.925 -1.1562  1.0553 -0.6333
 1126TIP3    H2 3385   0.152   4.309   1.818  0.8234 -0.3383  1.4923
 1127TIP3   OH2 3386   2.197   2.261   4.327 -0.0601 -0.3580 -0.3880
 1127TIP3    H1 3387   2.172   2.347   4.295  1.4759 -0.5244 -2.2868
 1127TIP3    H2 3388   2.263   2.278   4.394  0.4669 -0.0339 -0.9767
 1128TIP3   OH2 3389   3.022   1.126   4.179 -0.4241 -0.0182  0.3655
 1128TIP3    H1 3390   2.974   1.058   4.226 -0.4763 -0.0006  0.3380
 1128TIP3    H2 3391   3.104   1.085   4.154 -0.4056 -0.0349  0.4526
 1129TIP3   OH2 3392   2.448   5.388   0.842 -0.5425 -0.0072 -0.4503
 1129TIP3    H1 3393   2.493   5.307   0.818 -1.9657 -1.1902  0.6704
 1129TIP3    H2 3394   2.507   5.431   0.904  0.5312  0.1813 -1.5682
 1130TIP3   OH2 3395   2.224   0.417   2.718 -0.4013  0.1497 -0.7617
 1130TIP3    H1 3396   2.312   0.390   2.744  0.0000  1.7192 -0.3679
 1130TIP3    H2 3397   2.228   0.513   2.715 -2.0164  0.2446 -1.0285
 1131TIP3   OH2 3398   5.471   2.373   2.420 -0.0088  0.0097 -0.1931
 1131TIP3    H1 3399   5.448   2.410   2.335 -1.3254 -0.3104 -0.0143
 1131TIP3    H2 3400   5.566   2.374   2.423  0.0463  0.3170 -1.5394
 1132TIP3   OH2 3401   4.355   0.616   1.636 -0.2942  0.3229  0.0296
 1132TIP3    H1 3402   4.307   0.629   1.554 -1.0751 -0.3134  0.3766
 1132TIP3    H2 3403   4.339   0.697   1.686 -0.3865  0.4206 -0.1578
 1133TIP3   OH2 3404   4.086   2.179   1.424 -0.3023  0.3748 -0.3603
 1133TIP3    H1 3405   4.025   2.121   1.470  1.4802  1.0232  3.1595
 1133TIP3    H2 3406   4.036   2.259   1.409 -0.4236  0.9860  2.6744
 1134TIP3   OH2 3407   0.926   3.641   0.492 -0.1014  0.0790  0.0237
 1134TIP3    H1 3408   1.000   3.644   0.553  0.1418 -2.2926 -0.0643
 1134TIP3    H2 3409   0.952   3.697   0.419  0.7774  0.7913  0.8639
 1135TIP3   OH2 3410   4.975   1.249   2.315 -0.2407 -0.5249 -0.1509
 1135TIP3    H1 3411   4.888   1.256   2.275 -0.6740 -4.3126 -0.2287
 1135TIP3    H2 3412   4.958   1.235   2.408  0.3871  0.4583  0.1195
 1136TIP3   OH2 3413   0.732   0.796   1.893  0.3317  0.1588  0.3907
 1136TIP3    H1 3414   0.744   0.815   1.986 -1.2347 -1.2897  0.9571
 1136TIP3    H2 3415   0.659   0.851   1.866 -0.6752 -0.9844  0.6488
 1137TIP3   OH2 3416   4.578   5.746   2.684 -0.1940  0.0602 -0.3097
 1137TIP3    H1 3417   4.548   5.655   2.676 -0.2531  0.0551 -0.0279
 1137TIP3    H2 3418   4.669   5.738   2.712 -0.6912  0.0915  1.4567
 1138TIP3   OH2 3419   4.564   2.060   2.782 -0.2751  0.7318 -0.3145
 1138TIP3    H1 3420   4.626   2.098   2.720 -1.5439  3.2660 -0.1724
 1138TIP3    H2 3421   4.554   2.127   2.849 -1.0814 -0.7737  1.1462
 1139TIP3   OH2 3422   3.117   1.896   3.940  0.5133  0.4511  0.5292
 1139TIP3    H1 3423   3.051   1.924   4.004  1.1191 -0.4323  1.5817
 1139TIP3    H2 3424   3.200   1.898   3.988  0.7133 -2.3083  0.4915
 1140TIP3   OH2 3425   4.910   2.525   4.304 -0.0829 -0.0926 -0.1254
 1140TIP3    H1 3426   4.894   2.543   4.396 -0.7335 -0.7632 -0.0967
 1140TIP3    H2 3427   4.947   2.437   4.303  2.3753  0.8686 -0.3143
 1141TIP3   OH2 3428   2.057   3.670   2.128  0.2142  0.2900  0.0866
 1141TIP3    H1 3429   1.971   3.635   2.107  0.2652  0.7926 -1.0432
 1141TIP3    H2 3430   2.094   3.694   2.044  0.3891  2.5583  0.7512
 1142TIP3   OH2 3431   3.578   4.741   2.768  0.3300 -0.2576  0.0644
 1142TIP3    H1 3432   3.641   4.686   2.816  1.2042  0.1885 -0.5659
 1142TIP3    H2 3433   3.608   4.830   2.782 -0.3484 -0.0163  0.0093
 1143TIP3   OH2 3434   1.072   0.673   2.257  0.4544 -0.3190 -0.1030
 1143TIP3    H1 3435   1.148   0.616   2.267  0.9174  0.2407 -0.3644
 1143TIP3    H2 3436   1.072   0.728   2.335 -0.3843 -1.1080  0.4826
 1144TIP3   OH2 3437   3.205   2.310   3.906  0.0549  0.0839  0.5369
 1144TIP3    H1 3438   3.279   2.326   3.964  1.0215  0.1880 -0.6695
 1144TIP3    H2 3439   3.240   2.253   3.837 -1.0005  0.0766 -0.0217
 1145TIP3   OH2 3440   1.281   3.990   2.011  0.0731 -0.6423  0.0369
 1145TIP3    H1 3441   1.360   4.027   2.051 -0.7154  0.1759  0.8992
 1145TIP3    H2 3442   1.253   4.057   1.948  0.9505 -1.6480 -1.4988
 1146TIP3   OH2 3443   0.906  -0.004   3.383 -0.0085  0.1465  0.1083
 1146TIP3    H1 3444   0.890   0.007   3.289 -0.1130  0.0603  0.1150
 1146TIP3    H2 3445   0.896   0.083   3.419  2.0564  0.5735 -0.2474
 1147TIP3   OH2 3446   3.387   3.511   1.749  0.4616  0.1950  0.3550
 1147TIP3    H1 3447   3.393   3.596   1.792  0.7409 -1.6152  4.4396
 1147TIP3    H2 3448   3.477   3.479   1.747  0.0380 -1.4278  2.5417
 1148TIP3   OH2 3449   3.644   2.629   0.581  0.4127  0.4084  0.3919
 1148TIP3    H1 3450   3.719   2.640   0.523  0.0861  0.1629 -0.0789
 1148TIP3    H2 3451   3.654   2.541   0.617 -0.1329  0.0264 -0.3720
 1149TIP3   OH2 3452   4.668   5.240   2.666 -0.0576 -0.6194  0.0836
 1149TIP3    H1 3453   4.593   5.191   2.633  0.5444 -2.0452  0.7471
 1149TIP3    H2 3454   4.744   5.193   2.633  0.5420 -0.5303  1.2661
 1150TIP3   OH2 3455   5.513   3.507   0.699  0.3430 -0.0923 -0.1833
 1150TIP3    H1 3456   5.602   3.513   0.734  0.8183 -0.6480 -1.2132
 1150TIP3    H2 3457   5.488   3.597   0.679  0.8572  0.0345 -0.2760
 1151TIP3   OH2 3458   5.871   3.020   1.206 -0.1361 -0.0449 -0.3702
 1151TIP3    H1 3459   5.794   3.040   1.259  1.1966  0.1089  1.6350
 1151TIP3    H2 3460   5.862   2.927   1.184  0.1618 -0.6822  1.8597
 1152TIP3   OH2 3461   2.307   1.033   2.191 -0.4506 -0.1993  0.1237
 1152TIP3    H1 3462   2.287   1.016   2.098 -0.2128  3.1406 -0.6445
 1152TIP3    H2 3463   2.236   1.089   2.221  0.8357  0.9064  1.2042
 1153TIP3   OH2 3464   1.078   5.245   4.670  0.1553 -0.0920  0.4356
 1153TIP3    H1 3465   1.072   5.306   4.743 -2.3424  0.9793 -0.5149
 1153TIP3    H2 3466   1.147   5.280   4.614  1.0707 -0.1019  1.5263
 1154TIP3   OH2 3467   4.363   0.397   1.819 -0.3670  0.2561  0.1394
 1154TIP3    H1 3468   4.367   0.473   1.761 -0.7925 -0.3078 -0.6475
 1154TIP3    H2 3469   4.289   0.346   1.787  0.3376 -0.8450  0.1978
 1155TIP3   OH2 3470   4.747   0.422   2.923 -0.1266  0.0176  0.4550
 1155TIP3    H1 3471   4.806   0.482   2.877  1.1909  0.3884  2.5284
 1155TIP3    H2 3472   4.804   0.373   2.982 -1.8094 -0.0951  2.0661
 1156TIP3   OH2 3473   0.941   4.472   3.096 -0.2009  0.0674 -0.3149
 1156TIP3    H1 3474   0.919   4.379   3.090  0.4001  0.0059 -2.5837
 1156TIP3    H2 3475   0.992   4.480   3.177  0.7125 -1.8214 -0.6517
 1157TIP3   OH2 3476   4.968   5.295   1.980  0.1265 -0.0348  0.7947
 1157TIP3    H1 3477   4.909   5.370   1.981 -0.7518 -0.6955  0.5080
 1157TIP3    H2 3478   4.920   5.226   2.027 -0.5563 -1.4277 -1.7369
 1158TIP3   OH2 3479   5.364   0.566   0.952  0.2175 -0.1355  0.1152
 1158TIP3    H1 3480   5.401   0.559   0.864  1.6005 -0.5834  0.6939
 1158TIP3    H2 3481   5.371   0.478   0.988  1.4617  0.4129  1.3282
 1159TIP3   OH2 3482   2.535   5.060   0.512 -0.2518  0.0120 -0.2297
 1159TIP3    H1 3483   2.554   5.131   0.451 -0.1841  0.8977  0.7967
 1159TIP3    H2 3484   2.567   5.091   0.597 -1.0091 -0.8746  0.4094
 1160TIP3   OH2 3485   0.896   5.295   0.037 -0.1913  0.0170 -0.0772
 1160TIP3    H1 3486   0.909   5.227   0.103 -0.4095 -0.7039 -0.7665
 1160TIP3    H2 3487   0.825   5.348   0.072 -0.0367 -0.1131  0.4550
 1161TIP3   OH2 3488   5.417   0.873   0.694  0.5367  0.4097  0.0859
 1161TIP3    H1 3489   5.361   0.908   0.625 -1.1458 -1.2869  0.5060
 1161TIP3    H2 3490   5.426   0.780   0.673  3.4322  0.6202 -0.0652
 1162TIP3   OH2 3491   3.883   4.964   1.820 -0.0748 -0.2083  0.3843
 1162TIP3    H1 3492   3.900   4.886   1.768 -0.5611  0.7423 -1.2547
 1162TIP3    H2 3493   3.956   4.967   1.882  1.3065 -0.6285 -1.1464
 1163TIP3   OH2 3494   5.081   4.311   3.616  0.9645 -0.0152  0.6837
 1163TIP3    H1 3495   5.100   4.232   3.566  0.6289  1.1979 -1.5034
 1163TIP3    H2 3496   5.010   4.287   3.675 -3.0157 -0.1965 -3.6181
 1164TIP3   OH2 3497   0.194   5.289   0.395 -0.0824  0.1304 -0.6167
 1164TIP3    H1 3498   0.126   5.222   0.393  0.3578 -0.3184 -0.7669
 1164TIP3    H2 3499   0.152   5.368   0.360 -0.2129 -0.4345 -1.7562
 1165TIP3   OH2 3500   4.589   5.854   4.040  0.2763 -0.1742  0.4259
 1165TIP3    H1 3501   4.678   5.828   4.064  0.3539 -0.0816  0.2378
 1165TIP3    H2 3502   4.558   5.905   4.115 -0.0282 -1.1576  0.9892
 1166TIP3   OH2 3503   3.200   0.607   4.634 -0.4871  0.2301  0.7410
 1166TIP3    H1 3504   3.116   0.591   4.675 -0.5367  0.3760  0.6985
 1166TIP3    H2 3505   3.188   0.690   4.587 -0.0388  0.7238  1.4891
 1167TIP3   OH2 3506   2.730   2.049   1.107 -0.5807 -0.5973  0.1641
 1167TIP3    H1 3507   2.754   1.984   1.172 -0.8344 -0.8295  0.0250
 1167TIP3    H2 3508   2.731   2.132   1.154 -0.8377 -0.7736  0.4807
 1168TIP3   OH2 3509   4.111   0.054   2.916 -0.3252  0.0041 -0.4917
 1168TIP3    H1 3510   4.052   0.107   2.970  0.1757 -0.3744  0.4348
 1168TIP3    H2 3511   4.188   0.110   2.903 -0.9923  0.6473 -2.0140
 1169TIP3   OH2 3512   1.033   1.806   1.314 -0.0015  0.0454  0.4181
 1169TIP3    H1 3513   1.039   1.743   1.385  1.0343  0.4118  0.6816
 1169TIP3    H2 3514   1.035   1.752   1.234 -0.8382 -0.3457  0.6596
 1170TIP3   OH2 3515   0.779   0.284   2.254  0.3346 -0.4430 -0.2681
 1170TIP3    H1 3516   0.745   0.226   2.322 -0.8445  1.4454  0.8397
 1170TIP3    H2 3517   0.761   0.238   2.172  1.0000 -2.3816  0.6075
 1171TIP3   OH2 3518   5.651   2.492   0.658  0.3543 -0.6440  0.1178
 1171TIP3    H1 3519   5.649   2.569   0.715  0.0555  1.8790 -3.0267
 1171TIP3    H2 3520   5.744   2.468   0.654  0.4223 -0.6516  1.2995
 1172TIP3   OH2 3521   0.900   5.439   2.195 -0.1230  0.3228 -0.2063
 1172TIP3    H1 3522   0.843   5.393   2.258  1.4521 -1.6210 -0.0774
 1172TIP3    H2 3523   0.865   5.528   2.191 -2.1358 -0.3374  1.0879
 1173TIP3   OH2 3524   0.707   5.627   4.020  0.1845  0.3733 -0.5038
 1173TIP3    H1 3525   0.701   5.684   3.943 -0.4423  1.0180 -0.0009
 1173TIP3    H2 3526   0.754   5.550   3.990 -1.6768 -0.2278 -2.0506
 1174TIP3   OH2 3527   3.300   4.226   1.749 -0.0861  0.6487  0.3758
 1174TIP3    H1 3528   3.234   4.166   1.714  0.5587 -0.1072  0.4163
 1174TIP3    H2 3529   3.372   4.221   1.685 -0.0784  1.4955  0.3071
 1175TIP3   OH2 3530   5.213   5.001   0.111  0.1504  0.0118 -0.0238
 1175TIP3    H1 3531   5.215   4.929   0.048 -0.6933 -0.1449  0.1147
 1175TIP3    H2 3532   5.289   5.055   0.088  1.7257 -1.7313  0.8675
 1176TIP3   OH2 3533   0.907   4.019   0.620  0.1632 -0.1807 -0.4157
 1176TIP3    H1 3534   0.900   4.088   0.685 -0.8664  0.3017 -1.0134
 1176TIP3    H2 3535   0.874   3.941   0.664 -1.9779  0.4611 -0.7867
 1177TIP3   OH2 3536   2.186   5.245   3.018  0.6880 -0.2895  0.0024
 1177TIP3    H1 3537   2.119   5.256   2.951  2.6519 -2.4911 -2.4944
 1177TIP3    H2 3538   2.220   5.333   3.032 -1.5569  0.6259  0.1844
 1178TIP3   OH2 3539   4.892   0.248   3.499 -0.2738 -0.0774 -0.1908
 1178TIP3    H1 3540   4.956   0.291   3.443 -0.0913 -0.2475 -0.1133
 1178TIP3    H2 3541   4.847   0.187   3.441 -0.6283  0.3116 -0.3335
 1179TIP3   OH2 3542   3.738   3.863   2.952 -0.6557 -0.1628 -0.0369
 1179TIP3    H1 3543   3.812   3.833   2.898 -1.7857 -0.2658 -1.5965
 1179TIP3    H2 3544   3.757   3.828   3.039  1.5212  0.4779 -0.1852
 1180TIP3   OH2 3545   4.157   0.065   0.493 -0.4665 -0.0965  0.6067
 1180TIP3    H1 3546   4.107   0.026   0.564 -0.8306  0.1065  0.4650
 1180TIP3    H2 3547   4.095   0.124   0.450 -0.0902  0.1965  0.4628
 1181TIP3   OH2 3548   5.914   1.837   4.204 -0.0880 -0.0185 -0.4278
 1181TIP3    H1 3549   5.989   1.896   4.194 -0.0655  0.1315  0.5891
 1181TIP3    H2 3550   5.936   1.784   4.281 -0.4756 -0.8068 -0.8510
 1182TIP3   OH2 3551   1.352   1.495   0.046  0.2769  0.4320  0.3958
 1182TIP3    H1 3552   1.338   1.459  -0.042  1.4572 -2.4230  1.2603
 1182TIP3    H2 3553   1.272   1.543   0.065 -0.3514  0.4331 -1.9132
 1183TIP3   OH2 3554   5.213   3.149   1.367 -0.2722  0.1551 -0.0886
 1183TIP3    H1 3555   5.123   3.183   1.366  0.4605  2.2235 -0.2040
 1183TIP3    H2 3556   5.264   3.219   1.407  1.4103 -0.6820 -0.7024
 1184TIP3   OH2 3557   1.024   3.721   2.164  0.2063  0.5367  0.5954
 1184TIP3    H1 3558   0.959   3.652   2.149  0.5012 -0.0258  1.7985
 1184TIP3    H2 3559   0.982   3.800   2.131 -1.4943  0.3577  2.1165
 1185TIP3   OH2 3560   1.895   2.539   0.959 -0.2672  0.8942 -0.5681
 1185TIP3    H1 3561   1.863   2.498   0.878 -1.5468  0.2715  0.2304
 1185TIP3    H2 3562   1.984   2.504   0.969 -0.1583  0.8325 -1.5924
 1186TIP3   OH2 3563   4.615   5.958   1.377 -0.3063  0.0012  0.0097
 1186TIP3    H1 3564   4.599   5.948   1.283 -0.4322  1.5774 -0.1652
 1186TIP3    H2 3565   4.527   5.955   1.416 -0.5346  1.9858 -0.2407
 1187TIP3   OH2 3566   3.829   0.413   1.572  0.6211  0.1689 -0.6143
 1187TIP3    H1 3567   3.871   0.466   1.504 -1.2536  1.8941 -0.4943
 1187TIP3    H2 3568   3.781   0.346   1.523  0.6979  0.3266 -0.9107
 1188TIP3   OH2 3569   4.078   4.059   1.699  0.1500  0.2849 -0.3723
 1188TIP3    H1 3570   4.127   4.122   1.752  0.4557  0.3084 -0.6845
 1188TIP3    H2 3571   4.131   3.980   1.699 -0.1354  0.0888 -0.1533
 1189TIP3   OH2 3572   0.126   4.927   0.686 -0.1391  0.0251  0.0570
 1189TIP3    H1 3573   0.189   4.959   0.622 -0.3681 -0.3197 -0.3490
 1189TIP3    H2 3574   0.077   5.005   0.712  1.3792  0.5478  1.4451
 1190TIP3   OH2 3575   2.803   5.006   1.956  0.4409  0.3709  0.0556
 1190TIP3    H1 3576   2.727   5.038   2.003  1.7364 -0.9312  3.3151
 1190TIP3    H2 3577   2.878   5.048   1.999  1.7337 -1.2099 -0.5187
 1191TIP3   OH2 3578   2.657   2.324   2.413 -0.4009 -0.0197  0.6757
 1191TIP3    H1 3579   2.590   2.259   2.391 -0.4097 -0.1347  1.0339
 1191TIP3    H2 3580   2.729   2.273   2.450 -1.4539  0.3577  3.4815
 1192TIP3   OH2 3581   5.339   1.665   3.605  0.2959  0.2874  0.3784
 1192TIP3    H1 3582   5.335   1.684   3.698  0.0107 -0.5303  0.5384
 1192TIP3    H2 3583   5.248   1.664   3.576  0.3548  0.0714  0.1931
 1193TIP3   OH2 3584   3.766   0.347   2.072  0.2146 -0.0059  0.3911
 1193TIP3    H1 3585   3.861   0.339   2.062  0.2200 -0.1569  0.5520
 1193TIP3    H2 3586   3.740   0.266   2.115 -0.0209 -0.0681  0.1324
 1194TIP3   OH2 3587   4.879   4.671   1.301 -0.1888  0.6412 -0.4110
 1194TIP3    H1 3588   4.963   4.714   1.287  0.6977 -1.2858 -1.5124
 1194TIP3    H2 3589   4.814   4.732   1.267  0.9628  1.3174 -1.4812
 1195TIP3   OH2 3590   0.650   5.447   1.431 -0.7164  0.2864 -0.2501
 1195TIP3    H1 3591   0.717   5.398   1.384  0.7569  1.2826  0.7284
 1195TIP3    H2 3592   0.620   5.388   1.500  0.5040  0.4606  0.4548
 1196TIP3   OH2 3593   1.799   0.652   0.731  0.1482  0.0341 -0.2254
 1196TIP3    H1 3594   1.706   0.636   0.712 -0.4971 -0.3270  2.7116
 1196TIP3    H2 3595   1.811   0.745   0.714 -1.5326  0.7000  1.7773
 1197TIP3   OH2 3596   5.713   3.149   0.974  0.1141  0.3047 -0.6856
 1197TIP3    H1 3597   5.651   3.107   0.914  1.2490 -2.1509 -0.2756
 1197TIP3    H2 3598   5.765   3.207   0.919 -2.0726  1.9486 -1.1396
 1198TIP3   OH2 3599   0.909   2.682   4.679 -0.1024  0.1456 -0.2948
 1198TIP3    H1 3600   0.963   2.708   4.753 -0.5288 -0.5568  0.2672
 1198TIP3    H2 3601   0.899   2.763   4.628  0.2551  0.6164  0.3669
 1199TIP3   OH2 3602   0.466   1.652   2.137 -0.4981  0.3888 -0.0636
 1199TIP3    H1 3603   0.546   1.705   2.137 -0.8977  0.9991 -0.4685
 1199TIP3    H2 3604   0.432   1.660   2.048 -0.9791  0.0693  0.0863
 1200TIP3   OH2 3605   6.096   0.450   0.508 -0.3166 -0.4505  0.1759
 1200TIP3    H1 3606   6.017   0.398   0.518  0.2529 -1.3558  0.1006
 1200TIP3    H2 3607   6.162   0.404   0.560  0.7267 -0.9878 -1.5420
 1201TIP3   OH2 3608   1.277   1.032   3.451 -0.0632 -0.5978 -0.4442
 1201TIP3    H1 3609   1.366   1.025   3.485 -0.4220 -0.6449  0.5304
 1201TIP3    H2 3610   1.283   1.094   3.378  0.5238  0.5757  0.5620
 1202TIP3   OH2 3611   6.195   2.909   3.136  0.1310  0.7815 -0.0469
 1202TIP3    H1 3612   6.264   2.966   3.103 -1.3787  2.3002 -0.7316
 1202TIP3    H2 3613   6.226   2.880   3.222  0.6872  3.2081  0.6385
 1203TIP3   OH2 3614   1.213   1.190   1.867  0.2668  0.2675  0.1769
 1203TIP3    H1 3615   1.123   1.209   1.843  0.6935  0.5122 -1.2866
 1203TIP3    H2 3616   1.222   1.096   1.854 -0.2898 -0.1287  2.2010
 1204TIP3   OH2 3617   6.094   1.375   1.816 -0.3194  0.6237  0.1420
 1204TIP3    H1 3618   6.067   1.284   1.804  0.1947  0.4443  0.2926
 1204TIP3    H2 3619   6.060   1.421   1.740 -1.7128  0.5682  0.7059
 1205TIP3   OH2 3620   3.392   2.679   0.437  0.1610  0.2366  0.0788
 1205TIP3    H1 3621   3.408   2.622   0.361  0.9953  1.3684 -0.6214
 1205TIP3    H2 3622   3.471   2.672   0.490 -0.1716 -0.0718  0.5420
 1206TIP3   OH2 3623   4.458   1.099   3.343  0.0066 -0.3301 -0.1971
 1206TIP3    H1 3624   4.513   1.173   3.367  0.0745 -0.4849  0.1334
 1206TIP3    H2 3625   4.445   1.108   3.248 -1.8308  1.3645  0.1513
 1207TIP3   OH2 3626   3.802   3.694   1.910  0.0825  0.4223  0.0466
 1207TIP3    H1 3627   3.803   3.722   2.001  1.1883  1.9101 -0.3802
 1207TIP3    H2 3628   3.709   3.697   1.885 -0.3649 -1.0358  1.3810
 1208TIP3   OH2 3629   5.077   1.445   3.902  0.5042 -0.0721  0.0079
 1208TIP3    H1 3630   5.164   1.427   3.867 -0.9209 -1.7918 -3.1623
 1208TIP3    H2 3631   5.071   1.540   3.906  2.5361  0.0762  0.4583
 1209TIP3   OH2 3632   0.462   0.084   0.843  0.0673 -0.0475 -0.0366
 1209TIP3    H1 3633   0.538   0.141   0.853 -0.0098  0.2096 -0.8307
 1209TIP3    H2 3634   0.387   0.143   0.847 -0.2058 -0.4527  2.1679
 1210TIP3   OH2 3635   3.250   0.018   2.965  0.1278 -0.1260  0.0587
 1210TIP3    H1 3636   3.338   0.023   2.928 -0.1313 -1.2549 -0.7656
 1210TIP3    H2 3637   3.192   0.022   2.889 -0.4777 -0.7803  0.4720
 1211TIP3   OH2 3638   3.490   0.926   1.708 -0.1139  0.4091  0.2587
 1211TIP3    H1 3639   3.474   0.833   1.720  1.1796  0.1537  0.0965
 1211TIP3    H2 3640   3.442   0.968   1.780 -1.1450 -0.3250  0.0184
 1212TIP3   OH2 3641   1.136   0.545   5.092 -0.0647  0.2497  0.1818
 1212TIP3    H1 3642   1.208   0.493   5.127 -0.7148  1.9420  4.8245
 1212TIP3    H2 3643   1.069   0.481   5.069  0.9238 -1.1723  1.0954
 1213TIP3   OH2 3644   0.035   5.392   2.856 -0.2932  0.0815  0.1315
 1213TIP3    H1 3645   0.006   5.417   2.768 -1.5722 -1.8551 -0.0704
 1213TIP3    H2 3646  -0.033   5.427   2.914 -0.8616 -0.8873  0.0679
 1214TIP3   OH2 3647   5.357   0.965   1.246  0.5411 -0.1379  0.9355
 1214TIP3    H1 3648   5.270   0.974   1.283  0.6152  0.2539  1.0187
 1214TIP3    H2 3649   5.344   0.915   1.165  0.3852 -1.0338  1.5042
 1215TIP3   OH2 3650   0.598   3.969   3.157  0.0943 -0.3248 -0.2836
 1215TIP3    H1 3651   0.602   4.054   3.112  0.3296  0.0184  0.3749
 1215TIP3    H2 3652   0.520   3.926   3.121  0.6755 -0.3724 -1.5637
 1216TIP3   OH2 3653   4.245   0.624   2.865  0.4943 -0.0690  0.1923
 1216TIP3    H1 3654   4.321   0.566   2.858 -0.6717 -1.6222 -0.1297
 1216TIP3    H2 3655   4.182   0.574   2.916 -1.0166  0.4115 -1.1510
 1217TIP3   OH2 3656   4.149   3.179   3.952  0.4840  0.2820  0.0651
 1217TIP3    H1 3657   4.112   3.248   4.007  0.5935  0.2137  0.2249
 1217TIP3    H2 3658   4.215   3.137   4.007 -0.2478 -0.5800  0.3062
 1218TIP3   OH2 3659   4.574   3.170   2.557 -0.8106  0.7478  0.8708
 1218TIP3    H1 3660   4.620   3.181   2.640  0.1053  1.0086  0.3526
 1218TIP3    H2 3661   4.524   3.089   2.567  0.3829  0.0316  1.1899
 1219TIP3   OH2 3662   3.401   5.257   1.828 -0.2099 -0.8709 -0.3386
 1219TIP3    H1 3663   3.409   5.264   1.923 -0.8068 -0.2356 -0.3283
 1219TIP3    H2 3664   3.486   5.287   1.794 -1.1539  2.4407 -0.1189
 1220TIP3   OH2 3665   5.775   4.430   1.213  0.2412 -0.3958 -0.1899
 1220TIP3    H1 3666   5.788   4.462   1.302 -3.1519 -0.5095  0.4799
 1220TIP3    H2 3667   5.763   4.335   1.223  1.0399 -0.5895 -0.9535
 1221TIP3   OH2 3668   5.289   2.939   0.839  0.1366 -1.1285 -0.2551
 1221TIP3    H1 3669   5.263   2.981   0.921 -0.6772 -2.2695  0.0893
 1221TIP3    H2 3670   5.349   2.870   0.867 -0.6642 -1.9551 -0.5363
 1222TIP3   OH2 3671   3.129   4.277   4.216  0.2804 -0.0727  0.4437
 1222TIP3    H1 3672   3.134   4.345   4.283  0.7569 -0.8993  1.2882
 1222TIP3    H2 3673   3.219   4.246   4.207  0.2671  0.1973 -0.7869
 1223TIP3   OH2 3674   2.279   4.220   1.867  0.1626  0.3596  0.0857
 1223TIP3    H1 3675   2.312   4.302   1.903  0.0516  0.5940 -0.3437
 1223TIP3    H2 3676   2.200   4.201   1.918  0.3048  0.4062  0.3264
 1224TIP3   OH2 3677   3.626   3.976   4.805 -0.3738 -0.5193 -0.0572
 1224TIP3    H1 3678   3.605   4.023   4.724  0.2616  2.4759  1.3985
 1224TIP3    H2 3679   3.553   3.915   4.817 -0.0873 -1.6796 -3.2378
 1225TIP3   OH2 3680   1.006   1.148   1.388  0.1868 -0.4695  0.5601
 1225TIP3    H1 3681   1.100   1.150   1.407  0.2939 -0.6036  0.0550
 1225TIP3    H2 3682   0.976   1.064   1.422  0.5650 -1.1411 -0.7044
 1226TIP3   OH2 3683   6.078   3.672   1.123  0.9861  0.4371 -0.0876
 1226TIP3    H1 3684   5.983   3.659   1.128  1.1188 -0.4062  0.4738
 1226TIP3    H2 3685   6.114   3.602   1.177  1.9630  0.3307 -0.8637
 1227TIP3   OH2 3686   0.453   4.204   3.006 -0.3160 -0.1192 -0.5875
 1227TIP3    H1 3687   0.468   4.265   2.934  1.1463  0.1843 -0.0606
 1227TIP3    H2 3688   0.391   4.140   2.970 -0.9329  0.9744 -1.5420
 1228TIP3   OH2 3689   6.295   3.312   3.843 -0.2540  0.8344 -0.3165
 1228TIP3    H1 3690   6.367   3.272   3.794  1.6222  2.1199  1.2509
 1228TIP3    H2 3691   6.265   3.242   3.901 -0.0818  0.3633 -0.7835
 1229TIP3   OH2 3692   5.783   3.144   3.608 -0.7890  0.3353 -0.1220
 1229TIP3    H1 3693   5.794   3.143   3.513  0.3398 -0.8345  0.0004
 1229TIP3    H2 3694   5.871   3.158   3.642 -1.4203  2.7517  0.7609
 1230TIP3   OH2 3695   0.233   1.798   4.570 -0.1698 -0.4453  0.9158
 1230TIP3    H1 3696   0.166   1.732   4.588 -0.9668  0.4608  1.3698
 1230TIP3    H2 3697   0.303   1.778   4.631  0.4869 -2.0555 -0.2745
 1231TIP3   OH2 3698   3.888   2.513   0.139  0.1253  0.1809 -0.0924
 1231TIP3    H1 3699   3.831   2.583   0.107  1.4923  1.3763 -0.0141
 1231TIP3    H2 3700   3.909   2.461   0.062 -0.6618  0.0087 -0.2005
 1232TIP3   OH2 3701   0.339   2.806   3.211  0.7037  0.4013  0.5184
 1232TIP3    H1 3702   0.306   2.753   3.284 -0.0387  0.9488  0.5889
 1232TIP3    H2 3703   0.433   2.789   3.210  0.7673  0.6112  1.7922
 1233TIP3   OH2 3704   0.185   4.374   4.933  0.0643 -0.4927 -0.3075
 1233TIP3    H1 3705   0.226   4.431   4.999  0.8702 -0.5857 -0.7101
 1233TIP3    H2 3706   0.117   4.327   4.981  0.6246 -0.5377  0.4655
 1234TIP3   OH2 3707   5.807   5.431   4.107 -0.4242 -0.3634  0.4139
 1234TIP3    H1 3708   5.890   5.478   4.110  0.1727 -1.4236  2.7022
 1234TIP3    H2 3709   5.830   5.340   4.125 -1.8492 -1.1436 -1.3249
 1235TIP3   OH2 3710   4.266   3.584   3.187 -0.4395  0.6566 -0.0946
 1235TIP3    H1 3711   4.229   3.510   3.236 -0.4688  0.8689  0.2045
 1235TIP3    H2 3712   4.247   3.563   3.096 -0.9223  0.5496  0.0230
 1236TIP3   OH2 3713   2.178   3.686   1.427  0.2648  0.1293  0.0487
 1236TIP3    H1 3714   2.246   3.747   1.456  0.9586 -0.4082 -0.4081
 1236TIP3    H2 3715   2.222   3.600   1.425 -0.5087 -0.2768  0.0262
 1237TIP3   OH2 3716   1.371   4.778   2.742  0.0701 -0.2632  0.2761
 1237TIP3    H1 3717   1.411   4.861   2.767 -0.5789 -0.0702  0.6822
 1237TIP3    H2 3718   1.289   4.802   2.701 -0.4976 -0.7228  1.1082
 1238TIP3   OH2 3719   2.746   2.980   2.080  0.4649  0.6001  0.3279
 1238TIP3    H1 3720   2.821   2.927   2.055 -1.0223 -1.1268 -0.6769
 1238TIP3    H2 3721   2.716   3.020   1.998  1.1496  2.5495  0.9596
 1239TIP3   OH2 3722   5.529   1.828   2.898  0.6459 -0.2803  0.0042
 1239TIP3    H1 3723   5.540   1.737   2.869 -1.8877 -0.6980  0.1784
 1239TIP3    H2 3724   5.562   1.881   2.825  3.3551 -1.2571  0.3924
 1240TIP3   OH2 3725   0.913   4.727   0.677  0.3673  0.3111  0.2734
 1240TIP3    H1 3726   0.841   4.772   0.722  0.4314 -0.0136  0.7076
 1240TIP3    H2 3727   0.933   4.783   0.602  0.7851  1.2761  1.0835
 1241TIP3   OH2 3728   4.029   1.584   4.697 -0.6590  0.0837  0.1458
 1241TIP3    H1 3729   3.983   1.639   4.760  1.0042  0.0856  1.4243
 1241TIP3    H2 3730   3.974   1.506   4.689 -2.9052  1.7077 -1.4835
 1242TIP3   OH2 3731   1.603   0.892   3.046 -1.1145 -0.6832  0.4528
 1242TIP3    H1 3732   1.557   0.908   2.964  2.2940 -0.4362 -1.6070
 1242TIP3    H2 3733   1.631   0.800   3.040  1.1091 -0.0473  0.1452
 1243TIP3   OH2 3734   4.998   3.709   3.531  0.0851 -0.1588 -0.2940
 1243TIP3    H1 3735   4.909   3.691   3.562  0.3640 -3.2172 -0.9041
 1243TIP3    H2 3736   5.050   3.714   3.612 -0.4817  0.8623  0.0301
 1244TIP3   OH2 3737   3.454   2.503   2.815 -0.3935 -0.5066  0.4391
 1244TIP3    H1 3738   3.480   2.411   2.806  3.5188  0.4657  0.1688
 1244TIP3    H2 3739   3.487   2.529   2.900  0.8621  1.2777 -0.5363
 1245TIP3   OH2 3740   1.021   3.582   4.215  0.0855  0.8963 -0.2596
 1245TIP3    H1 3741   1.011   3.503   4.269 -1.4009  0.5512 -0.9822
 1245TIP3    H2 3742   0.999   3.553   4.126 -2.9432  2.5709 -0.1843
 1246TIP3   OH2 3743   4.736   0.819   0.892  0.2346  0.1252  0.5266
 1246TIP3    H1 3744   4.775   0.906   0.900  0.8341 -0.1556  0.6981
 1246TIP3    H2 3745   4.764   0.788   0.806  0.8126 -0.2778  0.8552
 1247TIP3   OH2 3746   6.243   0.113   2.844  0.2411 -0.0903  0.3370
 1247TIP3    H1 3747   6.169   0.060   2.875 -0.5896  1.0133  0.3326
 1247TIP3    H2 3748   6.225   0.126   2.750  0.6063 -0.0650  0.2698
 1248TIP3   OH2 3749   1.167   2.308   3.691  0.5600 -0.5067  0.7396
 1248TIP3    H1 3750   1.183   2.240   3.626  1.1827 -0.8404  1.2186
 1248TIP3    H2 3751   1.167   2.261   3.775  4.0809  0.3851  1.4159
 1249TIP3   OH2 3752   1.542   3.390   1.902  0.1345  0.7457 -0.3644
 1249TIP3    H1 3753   1.627   3.349   1.882 -0.3537 -1.0479  0.9401
 1249TIP3    H2 3754   1.564   3.469   1.952  1.0654  1.2823 -1.5742
 1250TIP3   OH2 3755   5.067   3.849   4.304 -0.0340  0.1548  0.1775
 1250TIP3    H1 3756   5.068   3.754   4.320  0.7724  0.2916  1.0261
 1250TIP3    H2 3757   5.043   3.887   4.389 -2.6148  0.6366 -0.6931
 1251TIP3   OH2 3758   4.022   0.046   1.521  0.6380 -0.2093 -0.2526
 1251TIP3    H1 3759   3.970   0.046   1.441  0.5082  1.3386 -0.1883
 1251TIP3    H2 3760   3.959   0.030   1.591  0.8756 -2.4807 -0.4855
 1252TIP3   OH2 3761   5.019   4.133   3.001 -0.1416 -0.2556 -0.2548
 1252TIP3    H1 3762   5.047   4.171   3.084 -0.4882  0.7996 -0.6019
 1252TIP3    H2 3763   4.924   4.136   3.004 -0.1699 -1.0784 -0.3046
 1253TIP3   OH2 3764   4.563   5.226   0.120 -0.0508  0.3080 -0.3574
 1253TIP3    H1 3765   4.516   5.274   0.189  0.2690  1.5058 -0.9482
 1253TIP3    H2 3766   4.656   5.246   0.136  0.1501 -0.7649 -0.1417
 1254TIP3   OH2 3767   5.294   5.841   4.863 -0.5542 -0.1937 -0.1521
 1254TIP3    H1 3768   5.363   5.865   4.802 -0.9075 -0.3475 -0.6132
 1254TIP3    H2 3769   5.340   5.814   4.943 -0.1179  0.7486 -0.0799
 1255TIP3   OH2 3770   0.341   2.373   0.979 -0.4062 -0.4497 -0.2130
 1255TIP3    H1 3771   0.379   2.317   1.046 -0.7064 -1.5115 -0.9162
 1255TIP3    H2 3772   0.254   2.394   1.011 -0.8514 -1.6094 -0.6172
 1256TIP3   OH2 3773   4.297   1.248   0.390  0.3399  0.1548 -0.3143
 1256TIP3    H1 3774   4.285   1.329   0.341  0.5654  0.1896 -0.3153
 1256TIP3    H2 3775   4.311   1.181   0.323  0.5635  0.1879 -0.3037
 1257TIP3   OH2 3776   1.300   2.424   2.005  0.1336  0.4352 -0.0502
 1257TIP3    H1 3777   1.349   2.501   2.034  0.9271  0.5347 -1.5773
 1257TIP3    H2 3778   1.365   2.369   1.962 -0.5276 -0.8684  0.5685
 1258TIP3   OH2 3779   0.768   3.790   3.251 -0.0129  0.4245  0.0020
 1258TIP3    H1 3780   0.685   3.832   3.226  0.4592  0.7769 -1.0710
 1258TIP3    H2 3781   0.834   3.838   3.201  0.6807 -0.7675 -0.2636
 1259TIP3   OH2 3782   0.579   5.123   1.310 -0.3135 -0.9027 -0.4315
 1259TIP3    H1 3783   0.492   5.109   1.349  0.4769 -0.9567  1.3874
 1259TIP3    H2 3784   0.631   5.048   1.339  0.5935 -0.4074 -0.7356
 1260TIP3   OH2 3785   4.656   5.692   4.458  0.1523  0.7130 -0.0342
 1260TIP3    H1 3786   4.694   5.694   4.546 -4.2769 -0.3084  2.2411
 1260TIP3    H2 3787   4.675   5.605   4.425 -1.2842 -0.3196  1.6833
 1261TIP3   OH2 3788   5.939   1.660   4.586 -0.1328 -0.1794 -0.0885
 1261TIP3    H1 3789   5.982   1.659   4.672 -0.8873  1.2761  0.3384
 1261TIP3    H2 3790   5.997   1.608   4.530  1.6217  0.8051  0.7283
 1262TIP3   OH2 3791   1.844   3.811   0.555 -0.5137  0.4109  0.3571
 1262TIP3    H1 3792   1.792   3.843   0.629 -0.4435 -0.7210  0.9081
 1262TIP3    H2 3793   1.919   3.767   0.595  0.5771  1.4784 -0.4222
 1263TIP3   OH2 3794   0.411   2.128   3.067 -0.4563 -0.2396  0.1334
 1263TIP3    H1 3795   0.352   2.121   2.993 -1.6261 -0.9960  1.0976
 1263TIP3    H2 3796   0.499   2.121   3.029 -1.0560 -3.6392 -0.9218
 1264TIP3   OH2 3797   5.483   3.412   2.333  0.3303 -0.0117  0.5765
 1264TIP3    H1 3798   5.546   3.377   2.271  1.4264 -1.2684  2.3054
 1264TIP3    H2 3799   5.527   3.488   2.371  0.2752 -0.1083  0.8375
 1265TIP3   OH2 3800   5.805   2.125   4.159  0.3816  0.5567  0.5368
 1265TIP3    H1 3801   5.886   2.176   4.161  0.9228  0.0693 -2.7866
 1265TIP3    H2 3802   5.735   2.189   4.168  1.0880  1.1777  1.7990
 1266TIP3   OH2 3803   3.188   5.290   5.125 -0.1700 -0.1187  0.0151
 1266TIP3    H1 3804   3.137   5.265   5.202  0.9012  0.4059  0.9283
 1266TIP3    H2 3805   3.156   5.234   5.055 -1.3082 -0.4667  0.8010
 1267TIP3   OH2 3806   2.314   4.698   3.055  0.1997  0.2122 -0.0900
 1267TIP3    H1 3807   2.256   4.720   2.982  1.1876  1.8994 -0.4289
 1267TIP3    H2 3808   2.354   4.615   3.030 -0.2308  0.2658 -0.9958
 1268TIP3   OH2 3809   5.847   2.233   2.700 -0.0183  0.4046 -0.2064
 1268TIP3    H1 3810   5.801   2.180   2.765  1.1454  0.1317  0.4178
 1268TIP3    H2 3811   5.779   2.285   2.659 -1.5876 -2.8587 -2.1779
 1269TIP3   OH2 3812   5.080   1.103   0.893  0.1636 -0.0054  0.1675
 1269TIP3    H1 3813   5.130   1.093   0.812  0.5632 -0.2330  0.4406
 1269TIP3    H2 3814   5.121   1.043   0.955 -0.4410 -0.1892  0.4024
 1270TIP3   OH2 3815   5.993   5.021   1.380  0.7948  0.4466 -0.5531
 1270TIP3    H1 3816   5.973   5.085   1.448  2.0329  1.5469 -1.1573
 1270TIP3    H2 3817   5.946   5.053   1.303 -0.9495 -1.0296 -0.1552
 1271TIP3   OH2 3818   6.109   2.546   0.507 -0.1338  0.2451 -0.1762
 1271TIP3    H1 3819   6.075   2.600   0.436  0.6251  1.4755  0.3637
 1271TIP3    H2 3820   6.203   2.538   0.488 -0.3780 -1.6555 -0.7239
 1272TIP3   OH2 3821   0.458   2.879   2.176 -0.5799  0.7847 -0.2939
 1272TIP3    H1 3822   0.458   2.922   2.091  0.9415 -0.0139 -0.7253
 1272TIP3    H2 3823   0.539   2.908   2.218 -0.4568 -0.1652  0.1611
 1273TIP3   OH2 3824   3.581   4.024   1.952 -0.0738 -0.0573  0.4441
 1273TIP3    H1 3825   3.666   4.024   1.906 -0.9148  2.3451 -1.3144
 1273TIP3    H2 3826   3.517   4.043   1.883 -1.4528  3.6038  2.4934
 1274TIP3   OH2 3827   3.334   2.519   1.261  0.4201 -0.0613  0.3859
 1274TIP3    H1 3828   3.405   2.459   1.286  0.3813 -0.5071 -0.5325
 1274TIP3    H2 3829   3.379   2.596   1.228  0.4668  0.2600  1.1620
 1275TIP3   OH2 3830   0.475   4.285   3.267 -0.4014 -0.9890 -0.2116
 1275TIP3    H1 3831   0.482   4.268   3.173 -0.6119 -0.1319 -0.3933
 1275TIP3    H2 3832   0.492   4.379   3.276 -2.6611 -0.5627  0.3163
 1276TIP3   OH2 3833   4.373   5.665   1.673  0.7274  0.3409  0.1520
 1276TIP3    H1 3834   4.468   5.672   1.678  0.9247 -0.9653 -1.0386
 1276TIP3    H2 3835   4.357   5.572   1.655 -0.7772  0.5386  0.3298
 1277TIP3   OH2 3836   3.199   4.015   1.594  0.0287 -0.0790  0.4892
 1277TIP3    H1 3837   3.213   4.061   1.512 -1.2022 -0.3349  0.1086
 1277TIP3    H2 3838   3.203   3.922   1.571  1.3704 -0.1757  1.0431
 1278TIP3   OH2 3839   6.254   3.448   1.850 -0.6360  0.1681  0.2990
 1278TIP3    H1 3840   6.178   3.409   1.806  0.4156 -2.3933  0.6238
 1278TIP3    H2 3841   6.243   3.425   1.942 -0.1023  0.9211  0.5606
 1279TIP3   OH2 3842   2.860   4.567   3.339  0.0726  0.4801 -0.1402
 1279TIP3    H1 3843   2.832   4.608   3.257 -0.3682  0.5078  0.0232
 1279TIP3    H2 3844   2.852   4.473   3.322  0.0832  0.4836 -0.1649
 1280TIP3   OH2 3845   5.269   0.612   3.157  0.2836 -0.3191 -0.1836
 1280TIP3    H1 3846   5.296   0.544   3.220  0.4013 -0.3866 -0.3074
 1280TIP3    H2 3847   5.330   0.684   3.171  0.6987 -0.5779 -0.6515
 1281TIP3   OH2 3848   1.165   0.552   0.046 -0.1149 -0.4817 -0.5538
 1281TIP3    H1 3849   1.243   0.500   0.025 -1.3246 -3.0512  0.8604
 1281TIP3    H2 3850   1.192   0.604   0.122  0.9281  0.6074 -1.6143
 1282TIP3   OH2 3851   1.626   0.705   3.434 -0.1337  0.3460 -0.4671
 1282TIP3    H1 3852   1.715   0.704   3.468 -0.3013  1.3145  0.0045
 1282TIP3    H2 3853   1.576   0.655   3.498  0.6134 -3.2991 -2.4141
 1283TIP3   OH2 3854   1.459   5.031   0.063  0.3695 -0.4986 -0.0226
 1283TIP3    H1 3855   1.445   5.122   0.088  0.7639 -0.3662 -0.2820
 1283TIP3    H2 3856   1.552   5.016   0.078  1.1892  0.2838 -3.6234
 1284TIP3   OH2 3857   5.681   4.155   1.273  0.2056 -0.2501  0.4089
 1284TIP3    H1 3858   5.730   4.088   1.321  0.5076  0.7495  1.5262
 1284TIP3    H2 3859   5.615   4.105   1.225  1.1419 -1.4556  0.3059
 1285TIP3   OH2 3860   1.260   4.665   1.717 -0.5210  0.3490 -0.0348
 1285TIP3    H1 3861   1.248   4.575   1.746 -1.8956  0.8265  0.9940
 1285TIP3    H2 3862   1.334   4.661   1.656 -0.0114 -1.3148  0.6421
 1286TIP3   OH2 3863   3.714   2.033   5.163 -0.4146 -0.1871  0.5205
 1286TIP3    H1 3864   3.759   1.959   5.121 -0.9298 -0.2554  0.0806
 1286TIP3    H2 3865   3.621   2.017   5.145 -0.7978 -1.0187  2.9497
 1287TIP3   OH2 3866   6.339   4.804   2.405 -0.4028 -0.1464  0.1659
 1287TIP3    H1 3867   6.324   4.898   2.415  0.2993 -0.0196  0.1142
 1287TIP3    H2 3868   6.295   4.781   2.323 -1.0892  0.0091  0.4861
 1288TIP3   OH2 3869   5.202   3.653   3.165  0.2212  0.4609 -0.7990
 1288TIP3    H1 3870   5.255   3.597   3.109  0.7994  1.7985 -1.6283
 1288TIP3    H2 3871   5.146   3.702   3.104 -1.3802 -0.3086  0.0018
 1289TIP3   OH2 3872   0.148   3.144   2.994  0.3052 -0.7218  0.2118
 1289TIP3    H1 3873   0.177   3.202   2.924 -0.7364 -1.5527 -0.9546
 1289TIP3    H2 3874   0.156   3.056   2.957 -0.3936 -1.1695  1.0867
 1290TIP3   OH2 3875   2.668   2.091   1.995 -0.7797 -0.3505  0.5700
 1290TIP3    H1 3876   2.656   1.996   2.002 -0.3987 -0.8065 -3.0569
 1290TIP3    H2 3877   2.731   2.112   2.064 -0.7364 -2.7549  1.3678
 1291TIP3   OH2 3878   5.837   2.473   3.058 -0.1246  0.2084  0.2645
 1291TIP3    H1 3879   5.749   2.451   3.090  0.8322 -1.7443  1.8261
 1291TIP3    H2 3880   5.884   2.503   3.135  0.5085  1.5684 -0.6222
 1292TIP3   OH2 3881   3.410   3.143   3.406 -0.0192  0.8893  0.2166
 1292TIP3    H1 3882   3.431   3.191   3.326 -0.2286 -2.1547 -1.8363
 1292TIP3    H2 3883   3.493   3.106   3.435 -0.3194  0.0275  0.0070
 1293TIP3   OH2 3884   0.784   1.137   1.597 -0.1995  0.7125  0.0986
 1293TIP3    H1 3885   0.824   1.055   1.569  1.2307  1.7699 -1.1437
 1293TIP3    H2 3886   0.840   1.168   1.668  0.2722  1.4038 -0.5562
 1294TIP3   OH2 3887   4.028   4.721   1.213  0.1923  0.4474  0.5504
 1294TIP3    H1 3888   3.986   4.777   1.279  0.9818  0.8006  0.7650
 1294TIP3    H2 3889   4.040   4.779   1.137  1.7253  0.8107  1.0467
 1295TIP3   OH2 3890   5.179   2.799   3.922 -0.4370  0.0250  0.0871
 1295TIP3    H1 3891   5.217   2.833   4.004  0.5013 -0.6509 -0.0438
 1295TIP3    H2 3892   5.212   2.858   3.855 -1.8198  1.0289  0.2640
 1296TIP3   OH2 3893   1.380   2.053   4.614  0.0138 -0.8136  0.1787
 1296TIP3    H1 3894   1.296   2.058   4.659 -0.2449  0.9320 -0.3987
 1296TIP3    H2 3895   1.425   2.133   4.639  1.1937 -1.3560 -0.1439
 1297TIP3   OH2 3896   4.865   0.375   4.941 -0.2871 -0.0484  0.5458
 1297TIP3    H1 3897   4.843   0.282   4.939  0.0214 -0.2016  2.3011
 1297TIP3    H2 3898   4.908   0.387   5.026  0.1432  1.5972  0.1257
 1298TIP3   OH2 3899   4.679   4.025   4.275 -0.0179  0.2184  0.5352
 1298TIP3    H1 3900   4.622   4.095   4.244  0.2986 -0.3112 -1.3726
 1298TIP3    H2 3901   4.620   3.956   4.303 -0.4478 -0.8970 -2.7440
 1299TIP3   OH2 3902   0.782   5.878   2.909  0.0183 -0.5125 -0.1869
 1299TIP3    H1 3903   0.824   5.883   2.995  0.0522  0.8357 -0.2646
 1299TIP3    H2 3904   0.766   5.969   2.884 -0.5731 -0.9039 -1.3321
 1300TIP3   OH2 3905   5.563   3.004   5.130  0.0487 -0.1880  0.5934
 1300TIP3    H1 3906   5.488   3.037   5.081  0.1974  0.1553  0.5996
 1300TIP3    H2 3907   5.600   2.935   5.075 -1.0326 -1.2567  1.1556
 1301TIP3   OH2 3908   5.552   4.089   1.851  0.1007 -0.5956 -0.2589
 1301TIP3    H1 3909   5.613   4.018   1.830  0.3937 -0.3731 -0.1579
 1301TIP3    H2 3910   5.577   4.117   1.939 -0.9514 -1.3459  0.3084
 1302TIP3   OH2 3911   3.307   0.194   0.250  0.6529  0.1632 -0.5804
 1302TIP3    H1 3912   3.388   0.145   0.241  0.8570  0.4280 -0.1715
 1302TIP3    H2 3913   3.327   0.265   0.311  0.2136  0.4392 -0.7474
 1303TIP3   OH2 3914   3.193   0.636   0.522 -0.1081 -0.2707  0.6216
 1303TIP3    H1 3915   3.142   0.713   0.499 -1.5115 -1.1575  0.6578
 1303TIP3    H2 3916   3.283   0.660   0.500 -0.6500  0.9839 -0.3967
 1304TIP3   OH2 3917   0.879   5.320   4.926 -0.1635 -0.5221 -0.0675
 1304TIP3    H1 3918   0.824   5.304   5.002  1.0498  0.0704  0.9807
 1304TIP3    H2 3919   0.965   5.342   4.963  0.4074 -0.0225 -1.6099
 1305TIP3   OH2 3920   1.519   2.655   0.351  0.1534 -0.1765 -0.1661
 1305TIP3    H1 3921   1.447   2.601   0.384 -0.3789  0.2316 -0.6306
 1305TIP3    H2 3922   1.588   2.592   0.330  1.4474 -0.3589  3.7613
 1306TIP3   OH2 3923   0.707   4.864   0.807 -0.3510  0.3882  0.0896
 1306TIP3    H1 3924   0.655   4.808   0.750  0.3553 -1.5164  1.2271
 1306TIP3    H2 3925   0.645   4.900   0.870 -0.4297 -1.5500  1.1899
 1307TIP3   OH2 3926   4.498   4.878   4.235  0.0814  0.2777  0.6978
 1307TIP3    H1 3927   4.471   4.928   4.313 -0.2524  0.1917  0.6388
 1307TIP3    H2 3928   4.486   4.939   4.163 -1.4473 -0.2480  0.4779
 1308TIP3   OH2 3929   0.105   4.269   4.700 -1.0704  0.2898  0.4020
 1308TIP3    H1 3930   0.122   4.178   4.724  1.1498  0.6733  0.5298
 1308TIP3    H2 3931   0.140   4.321   4.773  0.4824  1.2925 -0.9793
 1309TIP3   OH2 3932   5.567   5.227   2.978 -0.4610  0.3207 -0.4099
 1309TIP3    H1 3933   5.594   5.283   2.905  0.8628  0.3386  0.0661
 1309TIP3    H2 3934   5.564   5.139   2.941 -1.4375  0.5371 -0.8803
 1310TIP3   OH2 3935   3.890   5.932   3.736  0.1185 -0.0441 -0.1385
 1310TIP3    H1 3936   3.834   6.009   3.729  1.4808  0.8835 -1.8274
 1310TIP3    H2 3937   3.932   5.941   3.822  1.8408  2.3692 -1.0828
 1311TIP3   OH2 3938   3.748   1.137   1.415 -0.3967  0.0840  0.0228
 1311TIP3    H1 3939   3.745   1.213   1.356 -0.7066  0.1902  0.1739
 1311TIP3    H2 3940   3.754   1.176   1.503 -0.3102 -0.0699  0.0842
 1312TIP3   OH2 3941   0.181   0.892   4.956  0.0650  0.1909 -0.1851
 1312TIP3    H1 3942   0.093   0.863   4.931 -0.1386 -2.5581  3.0095
 1312TIP3    H2 3943   0.239   0.834   4.907  0.1762  1.6541 -1.8852
 1313TIP3   OH2 3944   2.134   2.363   3.822  0.7163 -0.4927  0.1005
 1313TIP3    H1 3945   2.164   2.346   3.733 -0.5420 -0.4585 -0.3486
 1313TIP3    H2 3946   2.115   2.276   3.858 -0.0791 -0.4282 -0.1483
 1314TIP3   OH2 3947   6.036   4.533   1.029  0.3465  0.1491  0.5967
 1314TIP3    H1 3948   6.100   4.573   1.088 -0.4060  0.3813  1.2743
 1314TIP3    H2 3949   5.956   4.528   1.081  0.1118 -1.2061  0.1536
 1315TIP3   OH2 3950   2.171   1.366   1.460 -0.2575  0.3166 -0.6592
 1315TIP3    H1 3951   2.265   1.367   1.438  0.0927  3.4574  0.5390
 1315TIP3    H2 3952   2.127   1.388   1.378  0.0015 -1.1847 -1.2317
 1316TIP3   OH2 3953   4.620   1.553   1.323 -0.1499  0.1517 -0.2558
 1316TIP3    H1 3954   4.602   1.625   1.262 -0.4153  0.9402  0.7342
 1316TIP3    H2 3955   4.576   1.579   1.404 -0.5885 -1.3260 -0.0000
 1317TIP3   OH2 3956   4.426   0.427   0.974  0.1582  0.2921  0.0482
 1317TIP3    H1 3957   4.432   0.371   1.052 -0.5286  0.0672 -0.0467
 1317TIP3    H2 3958   4.456   0.513   1.004  0.6970  0.0060  0.3431
 1318TIP3   OH2 3959   5.518   2.452   0.440  0.2125  0.3810  0.1593
 1318TIP3    H1 3960   5.566   2.507   0.378  0.1213 -0.1377 -0.3934
 1318TIP3    H2 3961   5.561   2.466   0.524  1.4263 -0.1627 -0.3410
 1319TIP3   OH2 3962   3.873   1.314   4.990 -0.8194  0.1370  0.5003
 1319TIP3    H1 3963   3.965   1.290   4.991 -0.8805 -0.0790  1.7712
 1319TIP3    H2 3964   3.826   1.231   4.998 -1.1152  0.3156  0.6445
 1320TIP3   OH2 3965   0.355   2.906   4.991  0.0581 -0.4547 -0.3803
 1320TIP3    H1 3966   0.340   2.838   5.057  1.2095 -0.7594 -0.4080
 1320TIP3    H2 3967   0.312   2.873   4.912 -0.4778 -0.5508 -0.0499
 1321TIP3   OH2 3968   2.401   3.354   4.262 -0.2776 -0.4420 -0.2402
 1321TIP3    H1 3969   2.487   3.396   4.257  0.0710 -1.2618 -1.6077
 1321TIP3    H2 3970   2.339   3.426   4.249  0.2428 -0.0294 -0.4845
 1322TIP3   OH2 3971   5.261   0.097   3.484  0.4013 -0.4662  0.3617
 1322TIP3    H1 3972   5.255   0.090   3.389  2.6001  1.3817 -0.0002
 1322TIP3    H2 3973   5.220   0.017   3.517 -0.8754 -0.9040 -2.0975
 1323TIP3   OH2 3974   3.129   2.519   1.007 -0.3021 -0.1768 -0.2194
 1323TIP3    H1 3975   3.186   2.447   1.035  0.5575  0.5378 -0.0891
 1323TIP3    H2 3976   3.064   2.526   1.077  0.4545  0.0856  0.4770
 1324TIP3   OH2 3977   3.290   4.882   4.130  0.1875 -0.1000 -0.2001
 1324TIP3    H1 3978   3.201   4.909   4.152  0.2833 -0.7564  1.0632
 1324TIP3    H2 3979   3.343   4.961   4.142 -0.0751  0.0478 -0.0026
 1325TIP3   OH2 3980   6.170   5.359   1.187 -0.6544 -0.0694  0.0062
 1325TIP3    H1 3981   6.119   5.396   1.259  1.8671 -1.0251  2.4717
 1325TIP3    H2 3982   6.261   5.364   1.217  0.6130  0.0437 -3.4354
 1326TIP3   OH2 3983   0.869   3.568   0.846  0.3512  0.1167  0.1057
 1326TIP3    H1 3984   0.821   3.487   0.828 -0.5912  0.7955 -0.5095
 1326TIP3    H2 3985   0.904   3.556   0.934 -0.2819 -0.7251  0.2573
 1327TIP3   OH2 3986   4.175   0.901   4.848  0.0112  0.3114 -0.3917
 1327TIP3    H1 3987   4.258   0.935   4.814 -0.6877  1.8517 -0.6014
 1327TIP3    H2 3988   4.191   0.889   4.942  1.1388 -1.5294 -0.7574
 1328TIP3   OH2 3989   1.547   0.676   0.958  0.8488 -0.7113  0.1380
 1328TIP3    H1 3990   1.542   0.753   0.901 -0.5726 -1.3811 -0.7092
 1328TIP3    H2 3991   1.455   0.651   0.973  1.1359 -0.1996  3.2910
 1329TIP3   OH2 3992   5.964   2.823   3.962  0.1483 -0.0371 -0.0107
 1329TIP3    H1 3993   5.898   2.888   3.988  0.9461  0.5806  0.5311
 1329TIP3    H2 3994   6.005   2.797   4.045  1.1884  0.2592 -0.4198
 1330TIP3   OH2 3995   5.280   2.360   3.571 -0.5011 -0.1333 -0.7178
 1330TIP3    H1 3996   5.192   2.360   3.534 -0.4841 -0.3038 -0.7632
 1330TIP3    H2 3997   5.279   2.430   3.636 -0.2252  0.8578 -1.7417
 1331TIP3   OH2 3998   5.613   5.621   2.103 -0.0394  0.0268 -0.2302
 1331TIP3    H1 3999   5.696   5.660   2.078 -1.3920  3.5793  0.2694
 1331TIP3    H2 4000   5.557   5.695   2.126 -3.5015 -2.1377 -0.9118
 1332TIP3   OH2 4001   0.782   4.181   2.984  0.1881  0.8142  0.7155
 1332TIP3    H1 4002   0.865   4.200   2.942 -0.3877  1.4611 -0.1681
 1332TIP3    H2 4003   0.733   4.131   2.919 -1.4904  3.5376 -0.2464
 1333TIP3   OH2 4004   5.086   1.708   3.979 -0.0375  0.0615  0.2018
 1333TIP3    H1 4005   5.111   1.675   4.066  0.0889 -1.4959 -0.3810
 1333TIP3    H2 4006   5.135   1.790   3.969 -0.8257  0.7824  1.9806
 1334TIP3   OH2 4007   5.029   3.431   1.758  0.2854  0.0084  0.0656
 1334TIP3    H1 4008   5.043   3.525   1.740 -0.4359  0.3058  0.9900
 1334TIP3    H2 4009   5.115   3.392   1.744  0.5134  0.7402 -0.7149
 1335TIP3   OH2 4010   3.439   3.450   2.293  0.0522 -0.6888  0.3884
 1335TIP3    H1 4011   3.374   3.487   2.233  2.8068 -0.8311 -3.0261
 1335TIP3    H2 4012   3.399   3.367   2.322 -1.8974 -0.0373 -0.2498
 1336TIP3   OH2 4013   2.709   1.305   3.922  0.0850  0.0421  0.2386
 1336TIP3    H1 4014   2.731   1.356   3.845  0.6870 -1.1111 -0.3738
 1336TIP3    H2 4015   2.780   1.322   3.984  1.0759 -1.1990 -0.5321
 1337TIP3   OH2 4016   5.615   0.833   1.158 -0.5299  0.0801  0.8482
 1337TIP3    H1 4017   5.559   0.839   1.080 -1.7491  0.0996  1.6913
 1337TIP3    H2 4018   5.626   0.924   1.187 -1.7808 -0.0504  1.8307
 1338TIP3   OH2 4019   4.435   0.947   5.089 -0.3625 -0.1542 -0.4759
 1338TIP3    H1 4020   4.486   0.868   5.073  0.8062  0.4542  0.0822
 1338TIP3    H2 4021   4.395   0.933   5.175  0.5936  0.2192  0.0442
 1339TIP3   OH2 4022   3.336   3.512   2.621  0.1411  0.3200  0.5764
 1339TIP3    H1 4023   3.357   3.478   2.534 -1.0650  3.3775 -1.0776
 1339TIP3    H2 4024   3.406   3.575   2.639 -0.6561  1.1400  0.8877
 1340TIP3   OH2 4025   5.931   0.194   2.272 -0.0669  0.0707 -0.1342
 1340TIP3    H1 4026   5.888   0.250   2.337  1.0089 -0.7976  1.4060
 1340TIP3    H2 4027   6.021   0.228   2.267  0.1567 -0.5378 -0.3506
 1341TIP3   OH2 4028   1.866   4.455   1.290  0.2920  0.0706  0.7361
 1341TIP3    H1 4029   1.808   4.381   1.274  0.0876  0.3213  0.3076
 1341TIP3    H2 4030   1.842   4.519   1.223  0.8532  0.2967  0.7494
 1342TIP3   OH2 4031   0.901   4.313   2.020  0.0684  0.5265 -0.2493
 1342TIP3    H1 4032   0.806   4.312   2.003  0.2091 -0.3978 -1.0666
 1342TIP3    H2 4033   0.935   4.380   1.961  0.1379 -0.4314 -1.3381
 1343TIP3   OH2 4034   0.831   5.920   1.267  0.5421  0.3560  0.0589
 1343TIP3    H1 4035   0.796   5.886   1.184  0.5023 -0.8169  0.5469
 1343TIP3    H2 4036   0.776   5.997   1.285 -0.6983 -0.4638 -0.0572
 1344TIP3   OH2 4037   0.740   3.355   4.357 -0.3547 -0.7011  0.5866
 1344TIP3    H1 4038   0.729   3.375   4.264  1.6774  0.8787  0.6037
 1344TIP3    H2 4039   0.706   3.433   4.402  0.1526 -0.7548  1.0776
 1345TIP3   OH2 4040   3.361   1.032   2.633  0.0026 -0.3006 -0.3811
 1345TIP3    H1 4041   3.289   1.003   2.577  1.4636  0.3191 -2.7289
 1345TIP3    H2 4042   3.416   0.954   2.644 -0.8496 -0.7253  1.2567
 1346TIP3   OH2 4043   0.210   4.599   0.261  0.4719 -0.1242 -0.0177
 1346TIP3    H1 4044   0.175   4.677   0.217 -0.1841 -0.7321 -0.5904
 1346TIP3    H2 4045   0.261   4.634   0.334 -0.5965  0.8110  0.3108
 1347TIP3   OH2 4046   4.206   0.940   2.543  0.1131 -0.1115 -0.5310
 1347TIP3    H1 4047   4.111   0.938   2.528 -0.1004  1.0909  0.4441
 1347TIP3    H2 4048   4.215   0.922   2.636  0.7338  1.0405 -0.3496
 1348TIP3   OH2 4049   6.067   5.174   2.723  0.5005  0.3780  0.3461
 1348TIP3    H1 4050   5.998   5.202   2.782  0.3248  0.4589  0.1048
 1348TIP3    H2 4051   6.113   5.254   2.699  0.4413  0.3730  0.2119
 1349TIP3   OH2 4052   0.893   4.027   4.750 -0.5279  0.7397  0.1019
 1349TIP3    H1 4053   0.933   4.106   4.786 -0.6740  1.0507 -0.4136
 1349TIP3    H2 4054   0.800   4.047   4.745 -0.5163  0.6855 -0.4042
 1350TIP3   OH2 4055   6.210   1.122   0.272 -0.1924  0.2468 -0.1234
 1350TIP3    H1 4056   6.171   1.050   0.323  0.5927  0.8310  1.3675
 1350TIP3    H2 4057   6.209   1.197   0.332 -0.6068  1.3783 -1.5115
 1351TIP3   OH2 4058   1.067   2.975   1.983  0.2697 -0.7316 -0.2334
 1351TIP3    H1 4059   1.135   2.923   2.026 -0.4102 -1.0783  0.4373
 1351TIP3    H2 4060   1.108   3.004   1.901  1.1949 -0.9982  0.1220
 1352TIP3   OH2 4061   0.658   5.888   5.128 -0.2140  0.0288 -0.3062
 1352TIP3    H1 4062   0.595   5.949   5.089 -1.2752 -2.1091 -2.1515
 1352TIP3    H2 4063   0.740   5.906   5.082  0.0709  1.4108  0.6521
 1353TIP3   OH2 4064   5.120   4.674   4.886 -0.0940 -0.0096 -0.8637
 1353TIP3    H1 4065   5.181   4.726   4.833 -0.7203  0.5409 -1.0528
 1353TIP3    H2 4066   5.081   4.613   4.824 -0.5926  0.4206 -0.9747
 1354TIP3   OH2 4067   4.643   2.680   3.140 -0.3520  0.2832 -0.2422
 1354TIP3    H1 4068   4.567   2.739   3.136 -0.3980  0.1873 -0.8797
 1354TIP3    H2 4069   4.623   2.620   3.212 -1.1903 -0.1559 -0.8257
 1355TIP3   OH2 4070   5.944   2.354   4.497 -0.2411 -0.3330  0.0823
 1355TIP3    H1 4071   5.849   2.358   4.481  0.0893  2.2353 -1.8408
 1355TIP3    H2 4072   5.957   2.405   4.577 -0.3156  1.1650 -0.8338
 1356TIP3   OH2 4073   2.236   0.599   3.264 -0.1293  0.3959  0.8434
 1356TIP3    H1 4074   2.247   0.607   3.358  0.9582 -0.3134  0.7855
 1356TIP3    H2 4075   2.220   0.689   3.234  0.2305  0.7196  1.6099
 1357TIP3   OH2 4076   0.292   1.746   3.297 -0.1091 -0.3639  0.2560
 1357TIP3    H1 4077   0.359   1.814   3.304  0.2348 -0.7745  1.1053
 1357TIP3    H2 4078   0.310   1.687   3.370  1.0611 -2.6390 -1.7291
 1358TIP3   OH2 4079   0.913   2.224   4.101 -0.4161  0.0862 -0.0440
 1358TIP3    H1 4080   0.880   2.234   4.190  1.2416  2.0390  0.4394
 1358TIP3    H2 4081   1.005   2.251   4.107 -0.4549  0.9414 -2.4612
 1359TIP3   OH2 4082   6.246   1.977   0.513 -0.3848  0.3592  0.1917
 1359TIP3    H1 4083   6.206   2.046   0.460 -1.2921 -0.0476  0.3200
 1359TIP3    H2 4084   6.178   1.909   0.518  0.1272 -0.1104  0.8868
 1360TIP3   OH2 4085   0.622   3.805   4.928 -0.2418  0.0136 -0.1753
 1360TIP3    H1 4086   0.559   3.866   4.965 -0.0409 -0.4288  0.9327
 1360TIP3    H2 4087   0.624   3.731   4.990 -0.0388 -0.8411 -1.1715
 1361TIP3   OH2 4088   1.435   2.379   5.075  0.1545  0.2995 -0.2358
 1361TIP3    H1 4089   1.349   2.391   5.114  0.9775  0.3494  1.6451
 1361TIP3    H2 4090   1.440   2.285   5.056  0.1191  0.0974  0.7396
 1362TIP3   OH2 4091   0.370   0.466   0.164 -0.1292 -0.2910  0.0518
 1362TIP3    H1 4092   0.349   0.373   0.174 -2.9937  0.4279  1.9778
 1362TIP3    H2 4093   0.387   0.477   0.071 -3.2550 -2.1843 -0.8940
 1363TIP3   OH2 4094   2.564   3.211   3.155 -0.0313 -0.4603 -0.0977
 1363TIP3    H1 4095   2.526   3.201   3.067 -0.1741 -0.6473 -0.0156
 1363TIP3    H2 4096   2.555   3.304   3.174  2.3393  0.1061 -1.3344
 1364TIP3   OH2 4097   6.079   5.505   4.120 -0.3360 -0.3890 -0.0381
 1364TIP3    H1 4098   6.087   5.599   4.102 -2.1016  0.0548  1.2629
 1364TIP3    H2 4099   6.160   5.467   4.084  0.2109  1.5408 -0.9947
 1365TIP3   OH2 4100   0.176   5.411   1.653 -0.3570  0.2293 -0.0307
 1365TIP3    H1 4101   0.190   5.455   1.736  1.8635  0.3021 -0.3769
 1365TIP3    H2 4102   0.095   5.448   1.618  0.3519  2.5277  0.6490
 1366TIP3   OH2 4103   0.451   0.348   3.027 -0.2848 -0.4964 -0.1808
 1366TIP3    H1 4104   0.382   0.298   3.070 -0.1920 -0.3067  0.1932
 1366TIP3    H2 4105   0.427   0.440   3.042 -1.7400 -0.3230 -2.8374
 1367TIP3   OH2 4106   1.356   4.655   0.180 -0.0458  0.0758 -0.3394
 1367TIP3    H1 4107   1.415   4.643   0.254  0.7593  2.3110 -0.5613
 1367TIP3    H2 4108   1.398   4.606   0.108 -0.2962 -1.2184  0.3621
 1368TIP3   OH2 4109   6.297   3.194   0.675  0.2703  0.2508  0.4094
 1368TIP3    H1 4110   6.335   3.278   0.702 -1.2884  0.6091  1.5888
 1368TIP3    H2 4111   6.332   3.131   0.738  2.2471 -0.2392 -1.0704
 1369TIP3   OH2 4112   6.183   2.947   0.766  0.6363 -0.0957 -0.0555
 1369TIP3    H1 4113   6.125   2.983   0.700  1.2413  0.1773 -0.4479
 1369TIP3    H2 4114   6.135   2.956   0.848  0.7492  1.6041 -0.1406
 1370TIP3   OH2 4115   6.238   5.255   3.195 -0.0572 -0.0090  0.0208
 1370TIP3    H1 4116   6.227   5.287   3.284 -1.5729  0.4265 -0.2884
 1370TIP3    H2 4117   6.222   5.332   3.140  1.2553 -0.1754 -0.6317
 1371TIP3   OH2 4118   6.193   5.155   2.260  0.3612  0.4020 -0.1384
 1371TIP3    H1 4119   6.101   5.152   2.286 -0.1717  0.9655 -1.8312
 1371TIP3    H2 4120   6.241   5.152   2.342 -1.1935  1.3048  0.8592
 1372TIP3   OH2 4121   3.291   5.292   0.425 -0.4559  0.2390  0.0254
 1372TIP3    H1 4122   3.224   5.234   0.388 -1.4944  0.2669  1.7537
 1372TIP3    H2 4123   3.372   5.263   0.384 -1.1426 -1.5470 -0.1771
 1373TIP3   OH2 4124   4.597   1.972   1.763 -0.3386  0.5963 -0.1709
 1373TIP3    H1 4125   4.557   1.913   1.827 -1.6642  0.7705 -0.8007
 1373TIP3    H2 4126   4.674   2.007   1.808 -1.2645  0.7692  1.3680
 1374TIP3   OH2 4127   0.105   1.417   3.564 -0.8018  0.0464 -0.0732
 1374TIP3    H1 4128   0.032   1.455   3.612 -0.3078  0.6088  0.2510
 1374TIP3    H2 4129   0.133   1.486   3.504 -0.1518  0.0589  0.2324
 1375TIP3   OH2 4130   1.924   5.504   2.661  0.0648  0.0018  0.0872
 1375TIP3    H1 4131   1.844   5.504   2.608  0.5817  0.1557 -0.7229
 1375TIP3    H2 4132   1.930   5.593   2.695  1.5262  1.0108 -2.4858
 1376TIP3   OH2 4133   4.338   1.138   3.608  0.4220  0.2382  0.5805
 1376TIP3    H1 4134   4.371   1.114   3.521 -0.5962  0.7087  0.0388
 1376TIP3    H2 4135   4.252   1.175   3.591  0.4956  0.9852  1.7443
 1377TIP3   OH2 4136   4.901   3.963   4.137  0.0528  0.0927  0.2158
 1377TIP3    H1 4137   4.958   3.931   4.207 -0.4216 -2.1637 -0.3588
 1377TIP3    H2 4138   4.822   3.993   4.183  0.2781 -0.1290  0.7554
 1378TIP3   OH2 4139   5.026   1.755   2.703  0.6892 -0.4074  0.2914
 1378TIP3    H1 4140   5.116   1.739   2.732  0.9617 -0.6402 -0.6358
 1378TIP3    H2 4141   4.972   1.733   2.779  1.5024  1.5684  1.5161
 1379TIP3   OH2 4142   4.502   3.642   1.061 -0.2424 -0.2461 -0.0705
 1379TIP3    H1 4143   4.577   3.702   1.065 -0.0429 -0.4610 -0.5129
 1379TIP3    H2 4144   4.427   3.696   1.085  0.3278 -0.5596  2.7185
 1380TIP3   OH2 4145   4.739   3.793   1.415 -0.9622  0.0094  0.0871
 1380TIP3    H1 4146   4.807   3.808   1.349 -0.7031  2.4797  0.8443
 1380TIP3    H2 4147   4.672   3.744   1.368  0.4574 -0.8248 -1.2017
 1381TIP3   OH2 4148   6.019   4.807   4.580 -0.0077 -0.3033  0.1134
 1381TIP3    H1 4149   6.066   4.858   4.646  0.0866 -0.2225 -0.0159
 1381TIP3    H2 4150   6.022   4.717   4.612  3.4976 -1.0123 -1.6619
 1382TIP3   OH2 4151   1.615   1.676   2.745 -0.4181  0.3610  0.2202
 1382TIP3    H1 4152   1.597   1.717   2.830  1.5088 -0.0301  0.8634
 1382TIP3    H2 4153   1.532   1.635   2.720 -1.8478  2.8508  0.5186
 1383TIP3   OH2 4154   3.323   1.621   0.582 -0.2687 -0.0184  0.3596
 1383TIP3    H1 4155   3.262   1.551   0.603 -1.0693  0.5346 -0.0514
 1383TIP3    H2 4156   3.404   1.577   0.558 -0.9181 -0.8135 -0.4012
 1384TIP3   OH2 4157   4.849   5.809   1.249  0.5044 -0.3491 -0.1481
 1384TIP3    H1 4158   4.885   5.895   1.269  0.1652  0.1279 -1.4523
 1384TIP3    H2 4159   4.762   5.827   1.212 -0.4346 -1.3804  1.4128
 1385TIP3   OH2 4160   3.585   1.761   4.118 -0.2118 -0.1168 -0.6046
 1385TIP3    H1 4161   3.512   1.730   4.065 -0.4117 -0.9068  0.1168
 1385TIP3    H2 4162   3.544   1.796   4.197  0.0983  0.8910 -0.8721
 1386TIP3   OH2 4163   2.776   0.572   0.991 -0.6129  0.2793  0.4223
 1386TIP3    H1 4164   2.736   0.501   1.042  0.5211 -0.5232  0.2255
 1386TIP3    H2 4165   2.758   0.548   0.900 -0.1586  0.1882  0.3538
 1387TIP3   OH2 4166   2.494   0.646   2.393  0.2306 -0.0092  0.1303
 1387TIP3    H1 4167   2.500   0.572   2.454  2.1655  0.0962  0.1444
 1387TIP3    H2 4168   2.476   0.722   2.448 -0.4994 -0.2786  0.2683
 1388TIP3   OH2 4169   4.310   5.904   2.220 -0.3496 -0.2545 -0.1313
 1388TIP3    H1 4170   4.274   5.817   2.204  0.0104 -0.4225 -0.0316
 1388TIP3    H2 4171   4.340   5.934   2.134  0.0367 -0.4590 -0.0679
 1389TIP3   OH2 4172   3.614   2.525   0.878  0.0165 -0.6046 -0.4369
 1389TIP3    H1 4173   3.579   2.527   0.790 -2.6792 -0.1780  0.5603
 1389TIP3    H2 4174   3.610   2.432   0.903 -0.2682 -0.5747 -0.3730
 1390TIP3   OH2 4175   2.453   5.107   3.718 -0.2772 -0.8844 -0.0249
 1390TIP3    H1 4176   2.505   5.185   3.702 -0.2040 -0.4899  1.8303
 1390TIP3    H2 4177   2.367   5.126   3.679 -0.1387 -0.0373  0.0743
 1391TIP3   OH2 4178   4.956   0.254   3.045 -0.3867  0.3592 -0.8916
 1391TIP3    H1 4179   4.948   0.162   3.069  1.5469 -0.0927 -1.8092
 1391TIP3    H2 4180   4.961   0.300   3.129 -3.3636 -0.0581 -0.3567
 1392TIP3   OH2 4181   2.001   5.607   3.855 -0.1900 -0.6354  0.1954
 1392TIP3    H1 4182   2.047   5.598   3.772 -0.2999 -0.3206  0.0968
 1392TIP3    H2 4183   2.036   5.688   3.892 -1.8528  0.5219 -0.6537
 1393TIP3   OH2 4184   1.703   0.138   1.034  0.4119 -0.5409  0.5581
 1393TIP3    H1 4185   1.702   0.207   0.968  0.5446  0.6411  1.7456
 1393TIP3    H2 4186   1.795   0.124   1.053  0.3622 -0.6571  0.7202
 1394TIP3   OH2 4187   6.278   5.554   4.705 -0.3816 -0.4299  0.3069
 1394TIP3    H1 4188   6.303   5.468   4.673 -3.2163 -1.3080  0.1450
 1394TIP3    H2 4189   6.301   5.554   4.798  0.0214 -1.2095  0.2082
 1395TIP3   OH2 4190   0.651   2.166   2.948  0.3908 -0.3645 -0.2328
 1395TIP3    H1 4191   0.739   2.153   2.984  0.3570 -0.5848 -0.2293
 1395TIP3    H2 4192   0.640   2.261   2.946 -0.4459 -0.3106  2.4081
 1396TIP3   OH2 4193   0.911   5.817   1.521  0.0613  0.9652  0.2623
 1396TIP3    H1 4194   0.893   5.833   1.428 -0.7707 -0.5493  0.1294
 1396TIP3    H2 4195   0.857   5.741   1.543  0.1443  1.3745  2.0299
 1397TIP3   OH2 4196   2.707   5.486   0.124  0.1650  0.1482 -0.0237
 1397TIP3    H1 4197   2.797   5.510   0.149  0.3648 -2.0440  1.7040
 1397TIP3    H2 4198   2.656   5.504   0.203 -0.1165 -2.3844  0.4550
 1398TIP3   OH2 4199   5.063   3.835   2.995  0.0621  0.3222 -0.0110
 1398TIP3    H1 4200   5.031   3.778   2.925  0.7155 -0.4671  0.3064
 1398TIP3    H2 4201   5.096   3.913   2.950  2.3276 -1.0039 -0.8363
 1399TIP3   OH2 4202  -0.011   1.402   1.161 -0.2838  0.0116 -0.5477
 1399TIP3    H1 4203  -0.050   1.416   1.247  1.0596  1.4086 -0.1248
 1399TIP3    H2 4204   0.083   1.391   1.179  0.1546  1.2360 -1.8912
 1400TIP3   OH2 4205   6.175   2.777   0.069  0.3233  0.3107 -0.0015
 1400TIP3    H1 4206   6.140   2.760   0.157 -3.1335 -2.5755 -1.6360
 1400TIP3    H2 4207   6.120   2.848   0.035  1.0447  0.7983 -0.1567
 1401TIP3   OH2 4208   3.793   0.376   0.289  0.1442  0.1397  0.5421
 1401TIP3    H1 4209   3.810   0.430   0.212  0.6892  1.2515  1.4197
 1401TIP3    H2 4210   3.844   0.417   0.359 -1.3395 -0.0701  1.8010
 1402TIP3   OH2 4211   1.253   0.558   3.121 -0.7109 -0.1879  0.5594
 1402TIP3    H1 4212   1.223   0.597   3.203 -3.4516  0.5333 -0.6752
 1402TIP3    H2 4213   1.173   0.532   3.076  0.7477 -1.3963 -1.5263
 1403TIP3   OH2 4214   1.123   1.890   2.593  0.1618 -0.1793 -0.1037
 1403TIP3    H1 4215   1.063   1.910   2.521  0.4363  1.7421  0.1665
 1403TIP3    H2 4216   1.066   1.851   2.660 -0.3896 -0.3936 -0.6834
 1404TIP3   OH2 4217   4.813   3.204   4.575  0.2382  0.0186  0.0839
 1404TIP3    H1 4218   4.736   3.238   4.621 -0.2499 -0.4329 -0.3824
 1404TIP3    H2 4219   4.807   3.109   4.586 -0.3686 -0.1667 -1.6438
 1405TIP3   OH2 4220   2.618   3.496   4.214  0.0810 -0.5245 -0.3493
 1405TIP3    H1 4221   2.617   3.558   4.141 -1.3776 -0.6600 -0.4709
 1405TIP3    H2 4222   2.665   3.542   4.283 -1.6026  1.0760 -0.1823
 1406TIP3   OH2 4223   5.101   0.281   2.814 -0.0748 -0.2919  0.6662
 1406TIP3    H1 4224   5.087   0.283   2.908 -0.5710 -0.6778  0.6007
 1406TIP3    H2 4225   5.178   0.336   2.800  0.0501 -0.3045  1.3041
 1407TIP3   OH2 4226   4.010   2.704   5.022  0.3021  0.1303  0.5596
 1407TIP3    H1 4227   4.079   2.688   5.086  0.7055 -0.2433  0.0392
 1407TIP3    H2 4228   3.929   2.691   5.070  0.5999 -0.0425  1.0217
 1408TIP3   OH2 4229   5.851   0.406   0.928 -0.2719  0.5267 -0.5938
 1408TIP3    H1 4230   5.793   0.330   0.924  0.9850 -0.3957 -1.8917
 1408TIP3    H2 4231   5.890   0.402   1.016  0.4569 -0.8630 -0.9526
 1409TIP3   OH2 4232   3.363   1.418   3.090 -0.0560  0.3155 -0.3410
 1409TIP3    H1 4233   3.333   1.471   3.015 -2.1751  0.8487  0.8078
 1409TIP3    H2 4234   3.450   1.453   3.110 -0.1906  1.3774 -1.4459
 1410TIP3   OH2 4235   0.749   5.333   2.374  0.8973 -0.3326 -0.3975
 1410TIP3    H1 4236   0.664   5.289   2.376  0.8922 -0.4137 -1.5793
 1410TIP3    H2 4237   0.747   5.392   2.449 -0.3556 -0.0744 -0.6080
 1411TIP3   OH2 4238   1.634   1.597   0.384  0.0265  0.5470  0.5016
 1411TIP3    H1 4239   1.573   1.524   0.370  1.3231 -0.2677 -1.2345
 1411TIP3    H2 4240   1.596   1.669   0.333  0.1095  0.2739  0.0462
 1412TIP3   OH2 4241   3.585   2.023   1.108  0.1435  0.8750 -0.3675
 1412TIP3    H1 4242   3.543   1.954   1.056  2.2554 -1.1767  0.4528
 1412TIP3    H2 4243   3.676   1.994   1.117  0.9942  3.5517  0.5000
 1413TIP3   OH2 4244   1.640   0.109   1.944  0.4144 -0.1768  0.0455
 1413TIP3    H1 4245   1.558   0.157   1.931 -0.8388 -2.2547 -0.2633
 1413TIP3    H2 4246   1.703   0.175   1.971 -0.9541  1.7667 -1.2676
 1414TIP3   OH2 4247   1.435   3.812   0.565 -0.1588  0.8251  0.2784
 1414TIP3    H1 4248   1.507   3.842   0.509  0.0093 -0.5930 -0.3156
 1414TIP3    H2 4249   1.379   3.763   0.506 -1.1467  1.1457  0.9321
 1415TIP3   OH2 4250   4.292   3.791   3.364  0.0167  0.1705 -0.2644
 1415TIP3    H1 4251   4.291   3.726   3.294 -1.8973  0.1535 -0.2787
 1415TIP3    H2 4252   4.254   3.869   3.324 -2.0785 -0.1432  0.9644
 1416TIP3   OH2 4253   4.133   2.211   2.739 -0.1072 -0.1165 -0.0804
 1416TIP3    H1 4254   4.194   2.139   2.722 -1.0736 -0.9101 -0.3025
 1416TIP3    H2 4255   4.061   2.170   2.786 -0.9500  0.6000 -0.7269
 1417TIP3   OH2 4256   2.845   3.375  -0.012  0.2021  0.1747 -0.4304
 1417TIP3    H1 4257   2.752   3.362  -0.030 -0.1940  1.4505  0.5851
 1417TIP3    H2 4258   2.865   3.313   0.058  0.6097 -1.4440 -1.9118
 1418TIP3   OH2 4259   5.714   1.475   4.505  0.4024  0.3194 -0.1984
 1418TIP3    H1 4260   5.695   1.381   4.499 -0.0346  0.4566 -1.2821
 1418TIP3    H2 4261   5.629   1.517   4.494  0.4836  0.8356  1.0892
 1419TIP3   OH2 4262  -0.005   5.848   3.450 -0.5415 -0.4318 -0.1102
 1419TIP3    H1 4263   0.001   5.809   3.363  1.7102  0.2991 -0.3518
 1419TIP3    H2 4264   0.086   5.857   3.479 -1.1918  0.2596  1.9113
 1420TIP3   OH2 4265   2.028   5.501   3.109  0.7427  0.0252 -0.1155
 1420TIP3    H1 4266   2.071   5.558   3.173  2.1557 -0.2871 -0.7399
 1420TIP3    H2 4267   1.988   5.431   3.161 -0.2729  1.0942  0.5916
 1421TIP3   OH2 4268   2.974   4.755   0.543  0.1289  0.1501 -0.2319
 1421TIP3    H1 4269   3.068   4.746   0.555 -0.1975 -0.7140  2.3269
 1421TIP3    H2 4270   2.938   4.757   0.632 -2.4265 -1.6272 -1.0810
 1422TIP3   OH2 4271   2.897   2.261   0.309  0.6955 -0.1607 -0.0625
 1422TIP3    H1 4272   2.968   2.204   0.279 -0.1616 -1.1854 -0.2145
 1422TIP3    H2 4273   2.829   2.200   0.339  0.0738  0.8027  0.5318
 1423TIP3   OH2 4274   3.649   0.207   0.435 -0.0169  0.2385  0.0195
 1423TIP3    H1 4275   3.623   0.151   0.362 -0.5276  0.8333 -0.2583
 1423TIP3    H2 4276   3.709   0.271   0.396  0.0778  0.2699  0.2155
 1424TIP3   OH2 4277   3.161   0.968   2.458  0.1959 -0.2847 -0.2681
 1424TIP3    H1 4278   3.219   0.960   2.382 -1.8536  1.0611 -2.1163
 1424TIP3    H2 4279   3.086   0.913   2.436 -0.7661  0.7200  0.3789
 1425TIP3   OH2 4280   1.341   3.327   4.067  0.2594 -0.4162  0.5002
 1425TIP3    H1 4281   1.366   3.317   4.159 -0.3187  0.4261  0.7675
 1425TIP3    H2 4282   1.247   3.315   4.067  0.2136 -0.0698  0.0755
 1426TIP3   OH2 4283   1.966   4.194   0.995  0.3147  0.3306  0.3888
 1426TIP3    H1 4284   2.000   4.105   0.984 -0.6538  0.0229 -0.3388
 1426TIP3    H2 4285   2.012   4.245   0.929 -0.3232 -0.0042 -0.3364
 1427TIP3   OH2 4286   0.992   4.904   1.852  0.1877 -0.3220 -0.2616
 1427TIP3    H1 4287   0.930   4.840   1.817 -0.1968  0.1243 -0.4085
 1427TIP3    H2 4288   0.942   4.951   1.920  0.1353  0.5175 -0.8611
 1428TIP3   OH2 4289   2.282   4.522   0.529  0.1637  0.4020 -0.5683
 1428TIP3    H1 4290   2.272   4.567   0.613  0.7595  0.1216 -0.3451
 1428TIP3    H2 4291   2.192   4.508   0.499 -0.0423  1.2212 -0.3678
 1429TIP3   OH2 4292   3.608   0.143   2.778 -0.1163  0.3186  0.7427
 1429TIP3    H1 4293   3.654   0.203   2.837 -0.4123  0.7056  0.5856
 1429TIP3    H2 4294   3.678   0.100   2.728  0.1142  0.2529  1.1214
 1430TIP3   OH2 4295   1.191   5.714   0.081 -0.0013  0.1970  0.5241
 1430TIP3    H1 4296   1.270   5.743   0.127 -0.1261  0.8074  0.3655
 1430TIP3    H2 4297   1.164   5.635   0.128  0.6600  0.0284  0.6254
 1431TIP3   OH2 4298   0.492   5.936   4.888 -0.3365 -0.0341  0.2032
 1431TIP3    H1 4299   0.422   5.992   4.853 -0.0975 -0.3443 -0.7994
 1431TIP3    H2 4300   0.459   5.847   4.876  0.1957 -0.1786 -0.1852
 1432TIP3   OH2 4301   3.093   5.277   0.831  0.0640 -0.4181  0.6550
 1432TIP3    H1 4302   3.050   5.236   0.756 -0.1959 -0.6966  0.9523
 1432TIP3    H2 4303   3.036   5.256   0.905  0.3470 -0.1916  0.9369
 1433TIP3   OH2 4304   3.195   1.756   3.708 -0.2946 -0.3935 -0.7649
 1433TIP3    H1 4305   3.153   1.810   3.775  1.8413 -0.1495  0.4682
 1433TIP3    H2 4306   3.129   1.746   3.640 -1.5586  1.8076  0.0496
 1434TIP3   OH2 4307   2.340   0.967   1.567 -0.4732  0.0832 -0.1526
 1434TIP3    H1 4308   2.332   1.012   1.651 -0.3456  1.9012 -1.0794
 1434TIP3    H2 4309   2.428   0.988   1.536  0.0377 -1.7717 -0.1223
 1435TIP3   OH2 4310   2.239   2.889   2.207  0.3889  0.1710 -0.4499
 1435TIP3    H1 4311   2.281   2.803   2.208 -0.8869 -0.4898  0.7803
 1435TIP3    H2 4312   2.310   2.950   2.224  1.6610 -0.4036 -3.1896
 1436TIP3   OH2 4313   4.196   5.631   0.835  0.5391 -0.0843  0.0346
 1436TIP3    H1 4314   4.146   5.561   0.794  1.6883 -0.8445 -0.0944
 1436TIP3    H2 4315   4.153   5.712   0.805 -0.6123 -0.7087 -0.0440
 1437TIP3   OH2 4316   2.546   2.808   2.731  0.1019 -0.2787  0.1187
 1437TIP3    H1 4317   2.471   2.816   2.672 -0.5394  3.3930  1.1306
 1437TIP3    H2 4318   2.614   2.863   2.691  1.5660 -1.8797  0.2763
 1438TIP3   OH2 4319   1.509   3.875   3.042 -0.2908 -0.5232 -0.3998
 1438TIP3    H1 4320   1.467   3.791   3.062 -0.8399  0.0137  0.7610
 1438TIP3    H2 4321   1.576   3.853   2.977 -1.8322 -1.5270 -1.7274
 1439TIP3   OH2 4322   6.096   3.110   1.020  0.1991  0.3016  0.1176
 1439TIP3    H1 4323   6.132   3.125   1.107 -1.9687 -2.4319  1.6628
 1439TIP3    H2 4324   6.003   3.130   1.029  0.4304  3.3592 -2.6450
 1440TIP3   OH2 4325   2.250   1.069   2.989 -0.7747 -0.0032 -0.0322
 1440TIP3    H1 4326   2.264   1.046   3.081  0.0378 -0.4660 -0.2558
 1440TIP3    H2 4327   2.272   1.162   2.984 -0.1407 -0.1351  0.1245
 1441TIP3   OH2 4328   0.537   1.946   2.699 -0.1606  0.4221 -0.1989
 1441TIP3    H1 4329   0.613   1.948   2.758 -0.3801 -2.2437  0.3359
 1441TIP3    H2 4330   0.476   2.009   2.737  0.9376  1.0335  0.6189
 1442TIP3   OH2 4331   3.858   5.298   0.466  0.3633  0.1648 -0.2399
 1442TIP3    H1 4332   3.802   5.374   0.486 -0.1341 -0.4755  0.8811
 1442TIP3    H2 4333   3.947   5.331   0.478  0.1359  0.4162  0.8991
 1443TIP3   OH2 4334   5.017   2.730   4.572  0.2610 -0.0085 -0.3318
 1443TIP3    H1 4335   5.038   2.733   4.665 -0.0403 -0.7762 -0.2308
 1443TIP3    H2 4336   4.959   2.654   4.563  1.9675 -1.2669 -1.4544
 1444TIP3   OH2 4337   4.841   4.727   3.433 -0.3106  0.4916  0.1122
 1444TIP3    H1 4338   4.841   4.637   3.401  0.5769 -0.1905  1.9173
 1444TIP3    H2 4339   4.931   4.757   3.422 -0.8224  1.6026 -1.5186
 1445TIP3   OH2 4340   4.955   2.964   2.845  0.2733  0.4210  0.5161
 1445TIP3    H1 4341   4.875   2.949   2.894 -0.9173  0.4158 -1.3142
 1445TIP3    H2 4342   4.953   2.898   2.775  0.7418  1.7835 -0.8531
 1446TIP3   OH2 4343   4.497   3.311   1.274  0.0002 -0.1658 -0.0229
 1446TIP3    H1 4344   4.419   3.359   1.247  0.6747  1.5732  0.9686
 1446TIP3    H2 4345   4.469   3.262   1.351 -0.3839 -0.4285 -0.3245
 1447TIP3   OH2 4346   2.486   4.370   0.118  0.5406 -0.2643  0.2159
 1447TIP3    H1 4347   2.442   4.450   0.146  0.6556 -0.0441 -0.2285
 1447TIP3    H2 4348   2.435   4.299   0.158 -1.5009 -0.1292 -1.9435
 1448TIP3   OH2 4349   1.942   1.272   0.596 -0.5631  0.3586  0.1846
 1448TIP3    H1 4350   1.929   1.209   0.525 -1.1296  0.1280  0.4874
 1448TIP3    H2 4351   1.925   1.357   0.556 -0.3141  0.2802 -0.0951
 1449TIP3   OH2 4352   6.088   2.786   1.242 -0.2738 -0.5437  0.2072
 1449TIP3    H1 4353   6.025   2.733   1.291  0.6469 -0.6640  1.2941
 1449TIP3    H2 4354   6.053   2.875   1.245 -1.3709 -0.9167 -0.8643
 1450TIP3   OH2 4355   5.052   2.354   3.991 -0.4878  0.4076 -0.1762
 1450TIP3    H1 4356   5.114   2.424   4.009 -1.0799  1.0447 -0.5485
 1450TIP3    H2 4357   5.083   2.280   4.043  1.1843  0.3703 -1.1555
 1451TIP3   OH2 4358   5.850   0.253   0.506  0.5837  0.5662  0.2713
 1451TIP3    H1 4359   5.874   0.204   0.427  0.4008 -0.5428  0.8914
 1451TIP3    H2 4360   5.875   0.196   0.578 -1.6262  0.4378  0.9866
 1452TIP3   OH2 4361   3.762   5.416   1.145 -0.4026  0.2007 -0.5112
 1452TIP3    H1 4362   3.712   5.352   1.195 -2.3921  0.5426 -1.9432
 1452TIP3    H2 4363   3.770   5.492   1.202  0.0011 -0.4805  0.3570
 1453TIP3   OH2 4364   3.341   0.013   2.193 -0.9274 -0.8384 -0.1707
 1453TIP3    H1 4365   3.310   0.103   2.181  0.1279 -0.4826 -0.3300
 1453TIP3    H2 4366   3.340  -0.024   2.105  1.1032 -0.1371 -0.5314
 1454TIP3   OH2 4367   2.364   4.060   1.001  0.5156 -0.6834  0.1351
 1454TIP3    H1 4368   2.403   4.115   1.069 -2.0072 -1.0714  2.0468
 1454TIP3    H2 4369   2.437   4.038   0.943  2.4204  1.1890  1.6488
 1455TIP3   OH2 4370   0.867   3.753   3.513  0.6146  0.2305 -0.0798
 1455TIP3    H1 4371   0.822   3.747   3.429  1.0311  2.6669 -0.5326
 1455TIP3    H2 4372   0.960   3.745   3.492  0.7084  0.6351  0.1617
 1456TIP3   OH2 4373   1.474   3.762   3.960 -0.3242  0.6009 -0.3155
 1456TIP3    H1 4374   1.410   3.692   3.948 -0.2459  0.6278 -0.9761
 1456TIP3    H2 4375   1.423   3.838   3.987 -0.3582  0.1840  0.8071
 1457TIP3   OH2 4376   5.129   5.058   2.170  0.1891 -0.0967 -0.3852
 1457TIP3    H1 4377   5.142   5.020   2.257  1.9490  0.2046 -0.4678
 1457TIP3    H2 4378   5.189   5.133   2.167 -0.7782  0.6706 -1.4124
 1458TIP3   OH2 4379   4.387   0.510   5.115 -0.4731  0.2065 -0.4458
 1458TIP3    H1 4380   4.467   0.556   5.092  0.1549 -0.6295 -0.0170
 1458TIP3    H2 4381   4.395   0.495   5.210 -0.4519 -1.1208 -0.6368
 1459TIP3   OH2 4382   2.959   3.271   5.095  1.1100 -0.6997 -0.2784
 1459TIP3    H1 4383   2.966   3.176   5.102  2.1886 -0.7212 -1.2896
 1459TIP3    H2 4384   2.915   3.286   5.011  0.2471 -0.2984  0.2236
 1460TIP3   OH2 4385   3.093   3.252   0.560  0.4617  0.6479  0.0181
 1460TIP3    H1 4386   3.129   3.305   0.631 -0.2679  1.6019 -0.3156
 1460TIP3    H2 4387   3.114   3.300   0.480 -1.3908  1.1644 -0.2043
 1461TIP3   OH2 4388   4.384   4.127   3.337  0.3899  0.1173  0.6731
 1461TIP3    H1 4389   4.289   4.111   3.335  0.4267 -0.5436  2.3919
 1461TIP3    H2 4390   4.392   4.222   3.325 -0.2751 -0.1230 -2.3578
 1462TIP3   OH2 4391   4.882   1.604   3.317  0.0129  0.2282 -0.1711
 1462TIP3    H1 4392   4.840   1.548   3.251 -1.2175 -1.7578  2.1176
 1462TIP3    H2 4393   4.941   1.545   3.365  0.1738  1.3543  1.0727
 1463TIP3   OH2 4394   2.021   3.225   0.519  0.0889 -0.2152  0.1107
 1463TIP3    H1 4395   2.115   3.204   0.515  0.2130  0.5416 -2.4774
 1463TIP3    H2 4396   1.977   3.141   0.510  0.4979 -0.5302  0.9418
 1464TIP3   OH2 4397   4.289   2.918   4.314  0.1430 -0.0661 -0.1878
 1464TIP3    H1 4398   4.236   2.842   4.339  0.0828  0.1757  0.4164
 1464TIP3    H2 4399   4.378   2.896   4.342 -0.0288  0.4561  0.8021
 1465TIP3   OH2 4400   2.115   0.011   0.092 -0.0787 -0.5252 -0.0983
 1465TIP3    H1 4401   2.136  -0.024   0.005 -2.2319 -0.5566 -0.6614
 1465TIP3    H2 4402   2.021   0.028   0.089 -0.8547 -3.1342  3.1458
 1466TIP3   OH2 4403   1.235   3.858   5.060 -0.0500 -0.5567 -0.2419
 1466TIP3    H1 4404   1.177   3.841   4.985  0.8505  1.0478 -1.3568
 1466TIP3    H2 4405   1.286   3.777   5.069 -0.3577 -0.8691 -1.2036
 1467TIP3   OH2 4406   0.265   3.500   3.626  0.5954 -0.4732 -0.1768
 1467TIP3    H1 4407   0.270   3.476   3.534  0.4249 -0.4473 -0.1924
 1467TIP3    H2 4408   0.256   3.417   3.673 -1.2330 -0.3828 -0.3123
 1468TIP3   OH2 4409   3.002   2.781   4.971  0.7224 -1.0703 -0.0137
 1468TIP3    H1 4410   3.038   2.721   5.036  0.2188 -0.9096  0.4167
 1468TIP3    H2 4411   2.955   2.725   4.910  1.2451 -1.2268 -0.2804
 1469TIP3   OH2 4412   3.092   5.161   4.881 -0.4094  0.0009  0.4977
 1469TIP3    H1 4413   3.134   5.150   4.795 -0.7836  0.9398  0.1782
 1469TIP3    H2 4414   3.015   5.214   4.863  1.0831  2.8615  1.7763
 1470TIP3   OH2 4415  -0.000   4.884   4.085 -0.5243 -0.1406  0.3522
 1470TIP3    H1 4416  -0.007   4.831   4.006 -1.0256  0.0909  0.2378
 1470TIP3    H2 4417   0.049   4.962   4.058 -2.7923  1.1237 -0.3706
 1471TIP3   OH2 4418   4.245   4.185   2.369  0.1436  0.3153  0.5072
 1471TIP3    H1 4419   4.314   4.231   2.416  1.2624 -1.1803  0.4310
 1471TIP3    H2 4420   4.204   4.129   2.435  1.1710 -1.1759 -0.0512
 1472TIP3   OH2 4421   5.799   2.511   1.644  0.5124  0.3058 -0.1413
 1472TIP3    H1 4422   5.813   2.541   1.734 -1.1320  1.4186 -0.2097
 1472TIP3    H2 4423   5.768   2.421   1.654  2.9210 -0.5550  0.2119
 1473TIP3   OH2 4424   1.103   1.530   4.416 -0.2111 -0.0509 -0.0229
 1473TIP3    H1 4425   1.095   1.606   4.474  1.1841  1.4475 -1.6619
 1473TIP3    H2 4426   1.112   1.568   4.328  0.0721 -2.1463 -0.9535
 1474TIP3   OH2 4427   2.008   1.707   4.052 -0.0421  0.5804 -0.2418
 1474TIP3    H1 4428   2.094   1.667   4.037  0.3020  1.6572 -1.3524
 1474TIP3    H2 4429   1.957   1.685   3.975 -0.6278  0.3086  0.2190
 1475TIP3   OH2 4430   0.431   1.511   0.995  0.2285  0.1484  0.2425
 1475TIP3    H1 4431   0.412   1.420   0.972 -1.5270  0.8645 -1.3196
 1475TIP3    H2 4432   0.508   1.533   0.942  0.4167 -0.3007  0.3240
 1476TIP3   OH2 4433   4.444   3.099   1.452  0.9616  0.0834 -0.2042
 1476TIP3    H1 4434   4.476   3.114   1.541  0.8178 -0.0253 -0.1335
 1476TIP3    H2 4435   4.484   3.016   1.426  0.7165 -0.0659 -0.1058
 1477TIP3   OH2 4436   1.168   5.822   4.813 -0.0343  0.3054  0.0741
 1477TIP3    H1 4437   1.257   5.817   4.778 -0.0073 -2.2536  0.3475
 1477TIP3    H2 4438   1.113   5.836   4.736  0.4404 -0.2175 -0.3677
 1478TIP3   OH2 4439   2.955   1.087   4.978  0.4624 -0.8514  0.1499
 1478TIP3    H1 4440   3.018   1.152   5.009  0.5901 -1.1071  0.4292
 1478TIP3    H2 4441   3.003   1.005   4.980  0.7938 -0.7384 -1.6647
 1479TIP3   OH2 4442   1.894   4.942   0.820 -1.0069 -0.5242  0.1013
 1479TIP3    H1 4443   1.901   4.989   0.903  0.7497 -1.1091  0.3312
 1479TIP3    H2 4444   1.840   4.865   0.841 -1.8994  0.1384  0.2901
 1480TIP3   OH2 4445   1.493   1.447   1.490  0.5198  0.1417 -0.3279
 1480TIP3    H1 4446   1.525   1.465   1.579  1.3727 -1.0319 -0.3662
 1480TIP3    H2 4447   1.413   1.499   1.482  0.8091  0.8126  0.8736
 1481TIP3   OH2 4448   3.621   3.982   0.546 -0.5005 -0.2706  0.1013
 1481TIP3    H1 4449   3.593   4.028   0.625 -0.3091 -1.9607  1.1930
 1481TIP3    H2 4450   3.566   3.904   0.543  2.2327 -2.3721  0.8933
 1482TIP3   OH2 4451   0.303   0.770   0.930  0.2631  0.1670  0.4055
 1482TIP3    H1 4452   0.271   0.860   0.934 -0.5340 -0.1396  1.4751
 1482TIP3    H2 4453   0.257   0.731   0.856 -1.6610 -0.1679  1.7185
 1483TIP3   OH2 4454   1.405   2.095   3.332 -0.0414  0.1742  0.1922
 1483TIP3    H1 4455   1.423   2.110   3.239 -2.1821  2.3722 -0.0019
 1483TIP3    H2 4456   1.458   2.161   3.377 -0.7892  0.7335  0.2867
 1484TIP3   OH2 4457   0.772   4.815   3.691 -0.1887  0.2290 -0.1355
 1484TIP3    H1 4458   0.799   4.831   3.782  1.2043  0.6976 -0.5914
 1484TIP3    H2 4459   0.797   4.724   3.675  0.4673  0.4311 -0.3190
 1485TIP3   OH2 4460   4.061   1.580   1.659  0.0279  0.3121  0.4202
 1485TIP3    H1 4461   4.088   1.655   1.606 -0.2701  0.1346  0.0144
 1485TIP3    H2 4462   4.006   1.617   1.728 -1.3626  0.3182 -0.6405
 1486TIP3   OH2 4463   3.367   2.984   4.729 -0.0244  0.1956  0.2739
 1486TIP3    H1 4464   3.421   3.061   4.747  0.2943 -0.1813  0.9661
 1486TIP3    H2 4465   3.287   2.999   4.779  1.0014 -1.0147  2.4252
 1487TIP3   OH2 4466   5.052   3.080   0.296 -0.3153  0.1486 -0.0728
 1487TIP3    H1 4467   5.086   3.034   0.220  0.1993  0.0255  0.2258
 1487TIP3    H2 4468   5.093   3.036   0.371 -3.7451 -2.3308  0.5520
 1488TIP3   OH2 4469   2.117   4.629   0.192 -0.2992  0.2960  0.2620
 1488TIP3    H1 4470   2.074   4.545   0.211 -0.7333  0.6385  0.7941
 1488TIP3    H2 4471   2.047   4.686   0.161 -0.1753  0.7515  0.8010
 1489TIP3   OH2 4472   1.474   4.872   1.318 -0.7257 -0.3764  0.2252
 1489TIP3    H1 4473   1.464   4.954   1.271 -0.7827  0.2077  1.2275
 1489TIP3    H2 4474   1.566   4.848   1.306 -0.2496  0.7716  1.3893
 1490TIP3   OH2 4475   0.305   3.152   2.199  0.0336  0.0403  0.2930
 1490TIP3    H1 4476   0.249   3.086   2.158 -0.0037  0.6112 -0.5959
 1490TIP3    H2 4477   0.348   3.196   2.126  1.4610 -0.2022  0.9371
 1491TIP3   OH2 4478   4.604   3.779   3.897 -0.3431 -0.0604  0.2371
 1491TIP3    H1 4479   4.565   3.699   3.861 -1.1760  0.1590  0.6346
 1491TIP3    H2 4480   4.695   3.777   3.865 -0.7741 -0.3795 -1.0272
 1492TIP3   OH2 4481   6.190   3.513   3.087 -0.3086 -0.0303  0.3406
 1492TIP3    H1 4482   6.193   3.537   2.994 -0.6542 -1.9018 -0.2119
 1492TIP3    H2 4483   6.097   3.521   3.110 -0.2519  0.2440  0.4792
 1493TIP3   OH2 4484   5.761   3.794   0.857 -0.1106  0.5266  0.2342
 1493TIP3    H1 4485   5.684   3.810   0.912 -1.0953  0.7065 -1.1408
 1493TIP3    H2 4486   5.794   3.882   0.836 -0.5267  0.5076 -0.5199
 1494TIP3   OH2 4487   5.020   0.938   0.446 -0.5283 -0.2190  0.4709
 1494TIP3    H1 4488   5.084   0.869   0.466 -0.3847  0.1624  1.4083
 1494TIP3    H2 4489   5.033   0.957   0.353  1.4544  0.5515  0.8482
 1495TIP3   OH2 4490   1.658   0.951   2.509  0.7318 -0.3512  0.6963
 1495TIP3    H1 4491   1.576   1.000   2.499  1.9022  1.2806 -2.1718
 1495TIP3    H2 4492   1.659   0.925   2.601 -0.8246  3.6457  2.0928
 1496TIP3   OH2 4493   3.178   1.752   0.294 -0.3698  0.0120 -0.3051
 1496TIP3    H1 4494   3.161   1.782   0.204  0.7518  2.2445  0.1609
 1496TIP3    H2 4495   3.144   1.823   0.349  0.4972 -0.5411  0.9670
 1497TIP3   OH2 4496   2.462   3.066   1.124  0.4471 -0.1015 -0.1974
 1497TIP3    H1 4497   2.541   3.032   1.081  0.2945  0.2261 -0.7568
 1497TIP3    H2 4498   2.406   3.093   1.051 -0.9724 -2.0054  0.0889
 1498TIP3   OH2 4499   2.922   3.970   3.306 -0.7482  0.1207 -0.5412
 1498TIP3    H1 4500   2.876   3.988   3.388  0.1717  0.4666 -0.0823
 1498TIP3    H2 4501   3.000   4.026   3.309  0.7619 -1.8716 -0.3731
 1499TIP3   OH2 4502   2.304   0.983   3.242  0.1798 -0.4504  0.5738
 1499TIP3    H1 4503   2.371   1.012   3.303  0.1240  0.6817  0.1313
 1499TIP3    H2 4504   2.226   0.972   3.295  0.3655 -0.3910  0.8616
 1500TIP3   OH2 4505   2.181   2.479   1.004  0.1130  0.0497 -0.0794
 1500TIP3    H1 4506   2.276   2.490   1.012  0.2729 -0.4216 -1.2689
 1500TIP3    H2 4507   2.165   2.391   1.038  0.0189  0.3455  0.6601
 1501TIP3   OH2 4508   6.012   2.202   0.449  0.4456 -0.4987 -0.3395
 1501TIP3    H1 4509   6.073   2.240   0.385 -0.1567  0.3688 -0.4145
 1501TIP3    H2 4510   5.925   2.220   0.413  0.1130 -0.4558  0.4619
 1502TIP3   OH2 4511   4.305   2.183   0.491 -0.0291  0.3520 -0.1422
 1502TIP3    H1 4512   4.326   2.155   0.580 -3.7241  1.7625  1.3728
 1502TIP3    H2 4513   4.320   2.278   0.492  1.5961  0.1628 -1.6690
 1503TIP3   OH2 4514   2.840   4.442   3.580  0.5742  0.0057 -0.1420
 1503TIP3    H1 4515   2.864   4.495   3.503  0.2043 -0.1525 -0.3683
 1503TIP3    H2 4516   2.757   4.402   3.556  0.7146 -0.4560  0.1451
 1504TIP3   OH2 4517   4.397   5.702   4.358 -0.1532  0.3128  0.4244
 1504TIP3    H1 4518   4.471   5.683   4.415  1.0328  0.7128 -0.9397
 1504TIP3    H2 4519   4.410   5.792   4.329  0.2308 -0.3866 -1.7951
 1505TIP3   OH2 4520   2.496   5.818   4.707 -0.1854  0.2170 -0.6319
 1505TIP3    H1 4521   2.473   5.725   4.708 -0.2265  0.2152 -1.5342
 1505TIP3    H2 4522   2.455   5.853   4.787  0.3439 -0.6516  0.0424
 1506TIP3   OH2 4523   2.078   3.997   3.062  0.2311  0.2771 -0.0243
 1506TIP3    H1 4524   2.164   4.016   3.102 -0.2683 -0.7154  1.6201
 1506TIP3    H2 4525   2.100   3.962   2.975  1.4098  1.4884 -0.2611
 1507TIP3   OH2 4526   5.413   5.394   1.390 -0.7420 -0.2896  0.0955
 1507TIP3    H1 4527   5.323   5.362   1.397 -0.3034 -1.6118 -0.0358
 1507TIP3    H2 4528   5.411   5.480   1.431 -1.7870 -0.8501  1.2913
 1508TIP3   OH2 4529   5.960   1.414   2.165  0.2637  0.0082 -0.2566
 1508TIP3    H1 4530   6.014   1.469   2.222  1.0418  0.6547 -1.5692
 1508TIP3    H2 4531   5.918   1.476   2.106 -0.4911 -0.6543 -0.4213
 1509TIP3   OH2 4532   6.207   0.833   2.317 -0.4354  0.0584  0.0648
 1509TIP3    H1 4533   6.226   0.836   2.411 -0.0598  1.1891 -0.0362
 1509TIP3    H2 4534   6.112   0.848   2.312 -0.7196 -1.4558  0.3257
 1510TIP3   OH2 4535   6.035   3.266   1.698 -0.1395  0.0665 -0.5862
 1510TIP3    H1 4536   5.971   3.337   1.700 -0.2480 -0.0393  0.3489
 1510TIP3    H2 4537   6.016   3.215   1.777  2.8885  1.6043  1.2941
 1511TIP3   OH2 4538   1.049   4.686   1.336  0.0097  0.0476  0.0437
 1511TIP3    H1 4539   1.019   4.717   1.250 -1.1729 -0.9930  0.0535
 1511TIP3    H2 4540   1.067   4.593   1.322 -1.0326 -0.3333  1.1323
 1512TIP3   OH2 4541   2.509   4.775   0.792 -0.4084  0.0484 -0.2557
 1512TIP3    H1 4542   2.581   4.826   0.755  0.7257 -2.1300 -1.1640
 1512TIP3    H2 4543   2.443   4.773   0.723  0.9659 -2.4934 -1.6267
 1513TIP3   OH2 4544   3.095   3.774   3.590  0.1584  0.3132 -0.0836
 1513TIP3    H1 4545   3.078   3.760   3.683 -1.4068 -0.1534 -0.4060
 1513TIP3    H2 4546   3.010   3.759   3.547  0.9360  0.0749 -1.6364
 1514TIP3   OH2 4547   5.333   3.426   4.695 -0.2145 -0.0529  0.1442
 1514TIP3    H1 4548   5.294   3.500   4.649 -0.1952 -0.4010 -0.4355
 1514TIP3    H2 4549   5.346   3.359   4.628 -0.2092 -0.5774  0.6583
 1515TIP3   OH2 4550   4.955   0.864   2.681 -0.1358  0.3296 -0.3471
 1515TIP3    H1 4551   4.910   0.931   2.733  1.5458  0.5565  0.8966
 1515TIP3    H2 4552   4.902   0.857   2.601 -3.2477 -0.5193  1.5795
 1516TIP3   OH2 4553   3.945   3.551   0.767 -0.5555  0.4636 -0.2487
 1516TIP3    H1 4554   3.882   3.592   0.708 -2.5104  0.1442  1.5295
 1516TIP3    H2 4555   4.029   3.560   0.722 -1.7171  1.6629 -2.3084
 1517TIP3   OH2 4556   0.888   2.614   3.465  0.1496 -0.3154  0.0416
 1517TIP3    H1 4557   0.964   2.668   3.489 -0.3308  0.0511  0.7609
 1517TIP3    H2 4558   0.881   2.624   3.370 -1.4085  2.9006  0.3672
 1518TIP3   OH2 4559   0.640   5.206   1.934 -0.5076 -0.0107 -0.3462
 1518TIP3    H1 4560   0.714   5.205   1.996 -1.1312  0.6472  0.4256
 1518TIP3    H2 4561   0.592   5.125   1.955 -1.3714  0.7803  0.8714
 1519TIP3   OH2 4562   5.818   5.670   0.661 -0.4043  0.2069 -0.8794
 1519TIP3    H1 4563   5.873   5.710   0.593 -1.2694  0.8246 -1.2265
 1519TIP3    H2 4564   5.836   5.576   0.652  0.1312  0.3472 -1.3969
 1520TIP3   OH2 4565   0.046   0.940   0.927 -0.0811  0.5110  0.3003
 1520TIP3    H1 4566   0.003   0.856   0.913 -1.9007  1.0774  2.0748
 1520TIP3    H2 4567  -0.026   1.000   0.947  1.1474  2.5616 -1.1059
 1521TIP3   OH2 4568   3.504   4.189   4.273 -0.4456  0.0839  0.1297
 1521TIP3    H1 4569   3.594   4.158   4.271  0.1775  1.6170  1.6298
 1521TIP3    H2 4570   3.493   4.240   4.193  0.3336  0.6380  0.3679
 1522TIP3   OH2 4571   4.103   5.885   0.763 -0.0989  0.2608  0.2911
 1522TIP3    H1 4572   4.172   5.946   0.738  0.5260 -1.5213 -2.8256
 1522TIP3    H2 4573   4.038   5.892   0.694 -1.2357 -0.8185  1.2002
 1523TIP3   OH2 4574   5.165   3.161   2.804  0.5462 -0.3614 -0.1434
 1523TIP3    H1 4575   5.102   3.091   2.818 -0.7510  0.8500  0.3811
 1523TIP3    H2 4576   5.244   3.117   2.771 -0.3022 -2.0034 -0.0799
 1524TIP3   OH2 4577   2.156   1.282   0.129 -0.5637 -0.1752 -0.5437
 1524TIP3    H1 4578   2.167   1.196   0.089  0.3654 -0.0877 -0.4839
 1524TIP3    H2 4579   2.064   1.305   0.111 -1.0202 -1.4617  0.0395
 1525TIP3   OH2 4580   5.607   4.418   4.974  0.1287  0.6150  0.6396
 1525TIP3    H1 4581   5.643   4.506   4.981 -0.8786  1.0074  1.2682
 1525TIP3    H2 4582   5.525   4.430   4.925  0.2986 -0.0720  0.1826
 1526TIP3   OH2 4583   0.836   5.114   2.090  0.3203 -0.7666 -0.4138
 1526TIP3    H1 4584   0.821   5.020   2.092  0.2775 -0.7510  0.2443
 1526TIP3    H2 4585   0.834   5.141   2.182 -1.1422  0.1025 -0.6627
 1527TIP3   OH2 4586   4.352   3.877   2.345  0.2822  0.1406  0.4200
 1527TIP3    H1 4587   4.400   3.888   2.427  0.2368 -0.7468  0.5793
 1527TIP3    H2 4588   4.264   3.912   2.363  0.3928  0.3179  0.6164
 1528TIP3   OH2 4589   3.678   4.849   0.697 -0.5157  0.3640 -0.0590
 1528TIP3    H1 4590   3.600   4.902   0.715  1.4280  3.4948 -0.0778
 1528TIP3    H2 4591   3.742   4.911   0.662  2.2500 -1.8895  0.6021
 1529TIP3   OH2 4592   4.671   0.580   1.026 -0.6622 -0.0951  0.5392
 1529TIP3    H1 4593   4.715   0.656   0.988  0.3702 -1.3629 -0.9147
 1529TIP3    H2 4594   4.704   0.506   0.976 -2.3585 -1.4168  1.2910
 1530TIP3   OH2 4595   4.582   5.834   3.767 -0.0846  0.0567 -0.1932
 1530TIP3    H1 4596   4.487   5.832   3.774 -0.0502  2.0787  1.7166
 1530TIP3    H2 4597   4.613   5.841   3.858  2.0426 -2.8608 -0.5230
 1531TIP3   OH2 4598   4.378   2.437   0.478  0.2638 -0.2356  0.2496
 1531TIP3    H1 4599   4.294   2.461   0.439  0.3185  1.9006  1.2673
 1531TIP3    H2 4600   4.441   2.498   0.440  1.2736 -1.4670 -0.1077
 1532TIP3   OH2 4601   1.127   0.324   4.807 -0.0257  0.2340  0.3410
 1532TIP3    H1 4602   1.076   0.311   4.887  0.8039  0.8866  1.0093
 1532TIP3    H2 4603   1.066   0.364   4.745 -1.0638 -1.5556  0.1461
 1533TIP3   OH2 4604   4.140   4.875   1.015 -0.7068 -0.4595 -0.4978
 1533TIP3    H1 4605   4.120   4.845   0.926 -1.0395 -1.4133 -0.1088
 1533TIP3    H2 4606   4.104   4.964   1.019 -1.6089 -0.7929 -0.9884
 1534TIP3   OH2 4607   0.349   0.817   1.259  0.5746  0.7448  0.0378
 1534TIP3    H1 4608   0.337   0.785   1.170 -0.6618  2.1895 -0.3660
 1534TIP3    H2 4609   0.300   0.899   1.261  0.4967  0.6884  2.0833
 1535TIP3   OH2 4610   5.887   0.164   0.048 -0.2295  0.7597 -0.0383
 1535TIP3    H1 4611   5.825   0.236   0.056 -0.9892 -0.0132  1.2898
 1535TIP3    H2 4612   5.962   0.190   0.101 -1.2956 -0.1954  2.0645
 1536TIP3   OH2 4613   2.177   1.815   4.968  0.0404 -0.1598 -0.4737
 1536TIP3    H1 4614   2.237   1.742   4.984 -1.7273 -1.5230  0.2960
 1536TIP3    H2 4615   2.125   1.787   4.893  0.6760  1.2430 -1.4880
 1537TIP3   OH2 4616   3.250   1.833   4.884  0.1281 -0.4984  0.0041
 1537TIP3    H1 4617   3.301   1.902   4.926  0.5271 -1.4829  1.1994
 1537TIP3    H2 4618   3.314   1.782   4.835  0.0071 -0.6496  0.0023
 1538TIP3   OH2 4619   2.839   1.469   0.447 -0.5244  0.3626  0.4140
 1538TIP3    H1 4620   2.793   1.423   0.377  1.8395 -1.2392 -0.1920
 1538TIP3    H2 4621   2.859   1.402   0.512 -0.4725  1.3305  1.4253
 1539TIP3   OH2 4622   1.016   4.689   2.925 -0.0230  0.0327 -0.2369
 1539TIP3    H1 4623   1.003   4.620   2.990 -1.1597  0.7275  0.3122
 1539TIP3    H2 4624   1.066   4.757   2.970  1.8883 -0.7753 -1.0460
 1540TIP3   OH2 4625   4.105   3.890   2.813  0.1625  0.0740  0.0390
 1540TIP3    H1 4626   4.174   3.829   2.838 -0.5313 -0.6727  0.1674
 1540TIP3    H2 4627   4.033   3.834   2.783 -0.9325  0.7634  1.2937
 1541TIP3   OH2 4628   1.053   4.237   2.960  0.2340  0.8219  0.0870
 1541TIP3    H1 4629   1.119   4.203   2.898 -0.4401 -0.1857 -0.0995
 1541TIP3    H2 4630   1.092   4.318   2.993  1.6153  0.2151  0.0516
 1542TIP3   OH2 4631   5.208   2.557   1.044 -0.2934 -0.1629 -0.0686
 1542TIP3    H1 4632   5.134   2.506   1.077 -0.3145  0.7596  1.3788
 1542TIP3    H2 4633   5.167   2.632   1.001 -0.2941  2.0412  3.4435
 1543TIP3   OH2 4634   2.201   5.890   1.696 -0.0424 -0.4555  0.0937
 1543TIP3    H1 4635   2.278   5.849   1.657 -0.5998 -0.8192 -0.6395
 1543TIP3    H2 4636   2.230   5.918   1.783  1.2317  0.4469 -0.6008
 1544TIP3   OH2 4637   3.073   3.598   2.604 -0.4468  0.1038 -0.4397
 1544TIP3    H1 4638   3.163   3.568   2.596 -0.0428  0.6006  1.7412
 1544TIP3    H2 4639   3.057   3.604   2.698 -3.2485 -1.3845 -0.7176
 1545TIP3   OH2 4640   2.103   1.906   0.732 -0.1129  0.0336  0.1129
 1545TIP3    H1 4641   2.115   1.893   0.826 -0.6723 -1.5094 -0.0103
 1545TIP3    H2 4642   2.041   1.838   0.706  0.1934  0.3139 -1.4139
 1546TIP3   OH2 4643   4.582   3.544   1.391  0.3804 -0.3875 -0.3402
 1546TIP3    H1 4644   4.530   3.475   1.350  1.5220 -0.0075 -2.6023
 1546TIP3    H2 4645   4.625   3.502   1.465 -0.6588 -1.5186 -0.3692
 1547TIP3   OH2 4646   6.122   2.440   1.259  0.5463 -0.2503 -0.4159
 1547TIP3    H1 4647   6.040   2.447   1.309  0.7297  1.0865 -0.2766
 1547TIP3    H2 4648   6.096   2.393   1.179 -0.2519 -0.2733 -0.1586
 1548TIP3   OH2 4649   2.362   3.856   3.316  0.0850  0.2083  0.3741
 1548TIP3    H1 4650   2.319   3.778   3.279 -1.1144  0.9131  0.2350
 1548TIP3    H2 4651   2.408   3.895   3.242  0.9831 -0.5360  0.5170
 1549TIP3   OH2 4652   0.820   5.037   1.008 -0.2050  0.3627 -0.1377
 1549TIP3    H1 4653   0.830   4.978   0.933 -2.2429  0.8638 -0.8852
 1549TIP3    H2 4654   0.896   5.095   1.004  0.4362 -0.5129 -0.9748
 1550TIP3   OH2 4655   4.849   2.528   0.428 -0.0398 -0.0774  0.0202
 1550TIP3    H1 4656   4.895   2.609   0.410  0.0600  0.0837  0.9279
 1550TIP3    H2 4657   4.883   2.466   0.364 -2.6188  1.4163 -3.0628
 1551TIP3   OH2 4658   5.324   2.391   0.257 -0.3390 -0.3764  0.0045
 1551TIP3    H1 4659   5.299   2.302   0.233 -2.7754  0.1601  0.2777
 1551TIP3    H2 4660   5.399   2.380   0.316  0.3538 -2.1326 -1.1167
 1552TIP3   OH2 4661   5.962   4.522   3.567  0.0988  0.3530  0.0990
 1552TIP3    H1 4662   5.982   4.593   3.506 -0.9243  1.3136  0.8550
 1552TIP3    H2 4663   5.867   4.522   3.573 -0.0503 -2.0699 -1.0023
 1553TIP3   OH2 4664   5.779   2.863   3.356  0.5997 -0.9266  0.3301
 1553TIP3    H1 4665   5.825   2.947   3.367 -0.4598 -0.2973  0.0427
 1553TIP3    H2 4666   5.844   2.797   3.383  1.5964 -0.0520  0.1384
 1554TIP3   OH2 4667   2.032   5.264   1.636  0.0220 -0.5027 -0.0995
 1554TIP3    H1 4668   2.067   5.218   1.712 -0.6545 -0.0273  0.5276
 1554TIP3    H2 4669   2.027   5.198   1.567  2.0648 -0.5875 -0.2091
 1555TIP3   OH2 4670   4.940   2.719   4.121 -0.0864 -0.2726  0.6890
 1555TIP3    H1 4671   4.894   2.647   4.164 -2.3929  1.2879  1.0513
 1555TIP3    H2 4672   4.961   2.780   4.192 -0.9070  0.7912  0.0501
 1556TIP3   OH2 4673   6.213   4.933   2.681  0.2737 -0.3104  0.0117
 1556TIP3    H1 4674   6.139   4.982   2.715  0.1180 -1.5889  1.6431
 1556TIP3    H2 4675   6.249   4.988   2.611  0.1268  2.1326  1.7316
 1557TIP3   OH2 4676   4.587   1.915   2.125  0.6445  0.4562 -0.0069
 1557TIP3    H1 4677   4.682   1.907   2.115  0.7585  1.4092  0.1721
 1557TIP3    H2 4678   4.572   2.009   2.137 -0.3793  0.3912 -0.5944
 1558TIP3   OH2 4679   0.753   4.456   4.757 -0.2870  0.2639 -0.3262
 1558TIP3    H1 4680   0.658   4.459   4.772 -0.3693 -0.0704 -0.7577
 1558TIP3    H2 4681   0.789   4.427   4.841 -0.6960 -1.0263 -0.5753
 1559TIP3   OH2 4682   2.253   4.492   4.908  0.5139 -0.1217  0.5778
 1559TIP3    H1 4683   2.338   4.536   4.907  0.8359 -0.7415 -0.1268
 1559TIP3    H2 4684   2.260   4.429   4.980 -0.0713  1.1753  1.8174
 1560TIP3   OH2 4685   2.723   0.566   0.721 -0.2364 -0.2362 -0.3869
 1560TIP3    H1 4686   2.772   0.648   0.715  0.0072 -0.3769 -0.3164
 1560TIP3    H2 4687   2.660   0.571   0.649  0.1938 -0.2658 -0.7676
 1561TIP3   OH2 4688   3.961   0.010   0.095  0.2925 -0.2552 -0.1269
 1561TIP3    H1 4689   3.982   0.040   0.184  0.0157 -0.9170  0.1687
 1561TIP3    H2 4690   3.919   0.086   0.054  2.7507  0.9439 -0.5750
 1562TIP3   OH2 4691   0.352   5.053   1.465 -0.1689 -0.3153 -0.2949
 1562TIP3    H1 4692   0.296   5.041   1.541 -0.7266 -1.1311 -0.8163
 1562TIP3    H2 4693   0.322   4.987   1.403  0.2202  0.3977 -1.2597
 1563TIP3   OH2 4694   4.375   0.378   4.435  0.5439  0.0351 -0.0816
 1563TIP3    H1 4695   4.371   0.420   4.349  0.7143 -1.1698 -0.7084
 1563TIP3    H2 4696   4.373   0.284   4.415  1.4008 -0.2763  1.1892
 1564TIP3   OH2 4697   0.884   3.340   2.254 -0.2457 -0.2553 -0.2711
 1564TIP3    H1 4698   0.800   3.385   2.255  0.6478  1.4936 -0.0820
 1564TIP3    H2 4699   0.876   3.274   2.185 -2.5736 -1.8005  1.3315
 1565TIP3   OH2 4700   5.170   5.417   4.821  0.0644  0.0769  0.1323
 1565TIP3    H1 4701   5.095   5.362   4.802  0.9103 -1.1389  0.2110
 1565TIP3    H2 4702   5.178   5.473   4.743 -1.7604  1.2664  0.7327
 1566TIP3   OH2 4703   1.350   5.711   4.313 -0.0702  0.8657  0.2635
 1566TIP3    H1 4704   1.313   5.786   4.268 -0.5055 -0.0878 -1.0156
 1566TIP3    H2 4705   1.351   5.641   4.248  0.8939 -0.0768  1.2367
 1567TIP3   OH2 4706   5.153   0.256   2.050 -0.3403 -0.0792 -0.2868
 1567TIP3    H1 4707   5.138   0.328   2.111  0.5187 -0.8733  0.8938
 1567TIP3    H2 4708   5.247   0.260   2.030  0.3344 -2.4331  1.9134
 1568TIP3   OH2 4709   3.381   5.464   0.810 -0.6012 -0.0245  0.2415
 1568TIP3    H1 4710   3.348   5.429   0.893  0.1737  0.0930  0.6034
 1568TIP3    H2 4711   3.400   5.556   0.828  0.8302 -0.3192  0.3099
 1569TIP3   OH2 4712   5.207   0.980   3.529 -0.2002 -0.3594  0.2391
 1569TIP3    H1 4713   5.194   1.065   3.487 -1.1809 -1.6335 -2.1789
 1569TIP3    H2 4714   5.273   0.997   3.597 -1.5270  2.6376  0.9502
 1570TIP3   OH2 4715   1.190   3.773   1.130 -0.6266 -0.1035 -0.0179
 1570TIP3    H1 4716   1.123   3.817   1.183 -0.8507 -0.6123  0.1272
 1570TIP3    H2 4717   1.197   3.827   1.052 -0.8194  0.2529  0.2077
 1571TIP3   OH2 4718   1.008   4.701   1.629  0.0765  0.8629  0.5071
 1571TIP3    H1 4719   1.005   4.692   1.534 -0.3144  0.8441  0.5203
 1571TIP3    H2 4720   1.101   4.702   1.650  0.1789  1.8448  0.0309
 1572TIP3   OH2 4721   5.550   0.325   2.214 -0.1803 -0.3643 -0.1711
 1572TIP3    H1 4722   5.495   0.342   2.137  0.6540  0.4419 -0.6101
 1572TIP3    H2 4723   5.492   0.340   2.288 -0.7329 -0.1855 -0.6257
 1573TIP3   OH2 4724   5.343   3.192   4.528  0.2091 -0.3077  0.1987
 1573TIP3    H1 4725   5.399   3.129   4.483  0.3678 -0.0652  0.0529
 1573TIP3    H2 4726   5.313   3.251   4.458 -2.8900 -2.3381 -0.3635
 1574TIP3   OH2 4727   1.643   3.582   3.495  0.0052  0.9818 -0.2582
 1574TIP3    H1 4728   1.674   3.494   3.473 -3.5066 -0.4542 -0.0421
 1574TIP3    H2 4729   1.635   3.581   3.590 -2.0594  0.6992 -0.3952
 1575TIP3   OH2 4730   3.211   1.643   1.355  0.0115  0.5763 -0.0262
 1575TIP3    H1 4731   3.243   1.732   1.342  0.0658  0.4536 -0.8056
 1575TIP3    H2 4732   3.236   1.597   1.274  3.3115 -1.1345  1.7538
 1576TIP3   OH2 4733   5.786   5.093   3.951  0.4348 -0.0440 -0.0465
 1576TIP3    H1 4734   5.797   5.160   4.019 -1.2419 -0.5669  0.8101
 1576TIP3    H2 4735   5.850   5.025   3.975  1.4391  0.7770 -0.3357
 1577TIP3   OH2 4736   3.556   0.089   4.942  0.8625  0.3211 -0.2994
 1577TIP3    H1 4737   3.497   0.161   4.920  1.6537  0.9268 -0.4880
 1577TIP3    H2 4738   3.516   0.047   5.018  0.2738  0.8196 -0.3309
 1578TIP3   OH2 4739   6.149   3.708   3.459 -0.2176  0.3822 -0.0805
 1578TIP3    H1 4740   6.147   3.800   3.483  0.2792  0.3069  0.2670
 1578TIP3    H2 4741   6.084   3.667   3.517  0.3698  0.3381  0.5594
 1579TIP3   OH2 4742   0.096   2.762   4.906 -0.3200  0.0931 -0.1507
 1579TIP3    H1 4743   0.045   2.842   4.917  1.7393  1.2903  1.2705
 1579TIP3    H2 4744   0.123   2.738   4.994  1.9985 -0.1556 -0.8581
 1580TIP3   OH2 4745   3.115   3.119   4.584 -0.0666 -0.4408  0.1034
 1580TIP3    H1 4746   3.183   3.174   4.546 -0.1703 -0.7022 -0.4691
 1580TIP3    H2 4747   3.091   3.059   4.514 -1.5394  0.2409 -0.0116
 1581TIP3   OH2 4748   3.773   5.397   4.333 -0.0261  0.0512 -0.1385
 1581TIP3    H1 4749   3.793   5.457   4.261 -1.8423 -0.2303 -0.9451
 1581TIP3    H2 4750   3.783   5.309   4.294 -0.6074 -0.1068  0.0612
 1582TIP3   OH2 4751   2.882   5.072   2.703  0.4521 -0.1763 -0.2198
 1582TIP3    H1 4752   2.871   4.986   2.743  0.2543 -0.8834 -1.7463
 1582TIP3    H2 4753   2.958   5.062   2.646  0.4974  0.6945 -0.3226
 1583TIP3   OH2 4754   0.899   2.151   0.107 -0.0343  0.4105  0.4564
 1583TIP3    H1 4755   0.811   2.187   0.103 -0.6568 -1.0596 -3.3661
 1583TIP3    H2 4756   0.897   2.088   0.179 -2.0336  0.5320  0.5569
 1584TIP3   OH2 4757   1.087   2.927   0.005 -0.7592 -0.0649 -0.0154
 1584TIP3    H1 4758   0.993   2.931   0.020 -0.2611  1.3409  3.6353
 1584TIP3    H2 4759   1.121   2.875   0.078  1.4201  0.7629 -0.3748
 1585TIP3   OH2 4760   5.305   2.234   1.975 -0.1451 -0.0691 -0.2349
 1585TIP3    H1 4761   5.362   2.190   1.912  1.8788  0.9641  0.7908
 1585TIP3    H2 4762   5.229   2.261   1.923  0.7185 -0.6348 -1.8822
 1586TIP3   OH2 4763   5.040   0.372   4.065 -0.0365  0.3815 -0.2745
 1586TIP3    H1 4764   5.064   0.399   3.977 -1.1856  1.8454 -0.1742
 1586TIP3    H2 4765   4.946   0.386   4.070 -0.4516 -2.1638  0.3613
 1587TIP3   OH2 4766   3.309   1.754   4.535  0.2924  0.0880 -0.2561
 1587TIP3    H1 4767   3.299   1.807   4.456 -0.7143  1.1341  0.5301
 1587TIP3    H2 4768   3.243   1.685   4.527 -0.1583  0.4959 -0.1036
 1588TIP3   OH2 4769   4.413   4.597   1.057  1.3410 -0.4515 -0.5738
 1588TIP3    H1 4770   4.389   4.606   1.149  0.1914 -0.6773 -0.8326
 1588TIP3    H2 4771   4.493   4.647   1.048  0.6769  0.8023  0.2358
 1589TIP3   OH2 4772   0.854   5.149   3.970 -0.0834  0.3040  0.3705
 1589TIP3    H1 4773   0.780   5.093   3.996 -0.6402  0.1002 -1.4990
 1589TIP3    H2 4774   0.930   5.091   3.976 -0.6567 -0.7790 -1.5879
 1590TIP3   OH2 4775   0.076   1.758   3.123 -0.1367  0.0057 -0.3924
 1590TIP3    H1 4776   0.074   1.702   3.045  1.1184  0.2610 -0.6283
 1590TIP3    H2 4777   0.162   1.741   3.162  0.0541  1.3963 -0.1798
 1591TIP3   OH2 4778   1.303   5.601   1.840  0.0051  0.0886 -0.0002
 1591TIP3    H1 4779   1.394   5.594   1.868 -0.3266  0.9710  1.3569
 1591TIP3    H2 4780   1.257   5.534   1.890  0.1124 -1.4795 -1.8552
 1592TIP3   OH2 4781   1.438   3.331   0.886  0.2751 -0.7939 -0.0741
 1592TIP3    H1 4782   1.427   3.372   0.800  3.0505  0.2081 -0.0618
 1592TIP3    H2 4783   1.391   3.388   0.946  1.0833  0.3876 -0.5297
 1593TIP3   OH2 4784   1.715   5.830   1.717  0.1521 -0.7715 -0.7624
 1593TIP3    H1 4785   1.749   5.764   1.656  0.9250  1.4740 -2.9022
 1593TIP3    H2 4786   1.648   5.876   1.667  1.5386  1.8392 -0.3613
 1594TIP3   OH2 4787   0.117   3.111   0.462  0.0537 -0.4106 -0.0481
 1594TIP3    H1 4788   0.098   3.170   0.389  3.8290  2.2059  0.7502
 1594TIP3    H2 4789   0.065   3.146   0.534 -1.0798 -0.8699 -0.6197
 1595TIP3   OH2 4790   0.706   4.963   4.131 -0.3782 -0.1105  0.1231
 1595TIP3    H1 4791   0.697   4.985   4.223 -1.0165  0.3015 -0.0274
 1595TIP3    H2 4792   0.627   4.912   4.110 -1.3193  1.5746 -0.6766
 1596TIP3   OH2 4793   2.440   2.917   2.503 -0.5077  0.6257  0.2146
 1596TIP3    H1 4794   2.482   2.998   2.474 -0.8785  1.1822  1.1665
 1596TIP3    H2 4795   2.379   2.946   2.572  0.3066 -0.6210  1.4918
 1597TIP3   OH2 4796   0.458   5.711   2.918  0.2707 -0.8066 -0.4392
 1597TIP3    H1 4797   0.419   5.623   2.924  0.3450 -0.8105  0.0756
 1597TIP3    H2 4798   0.486   5.730   3.008 -0.0058 -0.1367 -0.4940
 1598TIP3   OH2 4799   0.214   1.566   4.761 -0.0417 -0.3766 -0.3408
 1598TIP3    H1 4800   0.166   1.539   4.683  1.0147 -0.4324 -0.9967
 1598TIP3    H2 4801   0.246   1.484   4.799  0.3188 -0.2815 -0.4357
 1599TIP3   OH2 4802   6.028   3.718   1.629  0.2595 -0.0590 -0.6688
 1599TIP3    H1 4803   6.089   3.676   1.568  0.7028  0.7623 -0.8073
 1599TIP3    H2 4804   5.973   3.773   1.573  0.7030  0.7419 -0.3376
 1600TIP3   OH2 4805   5.044   1.226   4.592 -0.0912  0.3293  0.6081
 1600TIP3    H1 4806   5.005   1.292   4.650  0.3711  1.4701 -0.3323
 1600TIP3    H2 4807   4.970   1.171   4.565 -0.5296  0.6031  1.2261
 1601TIP3   OH2 4808   6.114   1.805   3.354  0.3268  0.2625  0.3504
 1601TIP3    H1 4809   6.104   1.725   3.303  1.1250  0.7512 -0.5934
 1601TIP3    H2 4810   6.154   1.868   3.294  1.5694  0.7748  1.6478
 1602TIP3   OH2 4811   5.727   3.770   3.997  0.2956 -0.1807 -0.0206
 1602TIP3    H1 4812   5.800   3.711   4.012  0.4771  0.1637  0.4814
 1602TIP3    H2 4813   5.681   3.774   4.081 -0.0586 -0.0736 -0.2169
 1603TIP3   OH2 4814   0.174   4.423   0.029  0.2942 -0.0219  0.8149
 1603TIP3    H1 4815   0.171   4.464   0.116  0.4258 -0.2795  0.9450
 1603TIP3    H2 4816   0.189   4.330   0.048 -3.0568 -0.7002  0.6675
 1604TIP3   OH2 4817   5.284   4.548   1.511  0.2556  0.2712  0.1773
 1604TIP3    H1 4818   5.253   4.527   1.599 -0.4973  0.3979 -0.0441
 1604TIP3    H2 4819   5.341   4.474   1.487 -0.0865 -0.1054  0.5035
 1605TIP3   OH2 4820   3.015   3.309   2.385 -0.2385  0.0187  0.3472
 1605TIP3    H1 4821   3.006   3.219   2.354 -0.7415  0.8103 -2.0586
 1605TIP3    H2 4822   2.944   3.321   2.447 -1.3066 -0.7432 -0.6845
 1606TIP3   OH2 4823   0.301   1.300   0.628 -0.1368  0.9564 -0.0241
 1606TIP3    H1 4824   0.315   1.231   0.693 -3.4602 -0.2773 -0.4395
 1606TIP3    H2 4825   0.327   1.259   0.545 -1.9901  0.1424 -0.2539
 1607TIP3   OH2 4826   4.957   1.828   3.477  0.3065 -0.3191 -0.4860
 1607TIP3    H1 4827   4.944   1.796   3.566 -1.3288 -0.9683 -0.9219
 1607TIP3    H2 4828   4.938   1.753   3.421 -0.6998  0.5992 -1.4294
 1608TIP3   OH2 4829   2.599   3.870   3.485 -0.5054  0.1049 -0.1296
 1608TIP3    H1 4830   2.555   3.919   3.555 -0.3137  2.7540 -1.7497
 1608TIP3    H2 4831   2.529   3.845   3.425 -0.1732  2.1230 -1.4241
 1609TIP3   OH2 4832   5.033   2.048   2.982 -0.1294 -0.4860  0.9484
 1609TIP3    H1 4833   4.981   1.992   3.041  0.3459 -0.4273  1.4352
 1609TIP3    H2 4834   5.111   1.996   2.963 -1.1309 -1.3246 -1.2283
 1610TIP3   OH2 4835   6.037   1.687   0.490  0.0219  0.3089 -0.0815
 1610TIP3    H1 4836   6.018   1.665   0.582  0.0272 -0.6697 -0.3069
 1610TIP3    H2 4837   6.116   1.638   0.469  0.5789  1.2748 -0.3432
 1611TIP3   OH2 4838   0.054   2.380   1.043 -0.1460 -0.0222  0.1484
 1611TIP3    H1 4839  -0.002   2.312   1.080 -0.3591 -0.2340 -0.5374
 1611TIP3    H2 4840  -0.005   2.430   0.986  0.1558  0.3244  0.1419
 1612TIP3   OH2 4841   1.706   3.976   2.301  0.3514 -0.4210 -0.1190
 1612TIP3    H1 4842   1.708   4.034   2.377 -0.1207  0.9219 -1.0934
 1612TIP3    H2 4843   1.614   3.949   2.295  0.6134 -1.5130  0.4772
 1613TIP3   OH2 4844   3.161   3.490   4.092 -0.1018  0.1321 -0.4976
 1613TIP3    H1 4845   3.167   3.491   3.996 -3.1257  0.6478 -0.7736
 1613TIP3    H2 4846   3.247   3.519   4.121  1.1052 -0.5720 -3.0090
 1614TIP3   OH2 4847   2.698   1.451   1.443  0.1121  0.2342  0.0507
 1614TIP3    H1 4848   2.761   1.519   1.419  1.3621 -0.0594  2.2950
 1614TIP3    H2 4849   2.688   1.459   1.537 -2.2561 -0.6063 -0.0648
 1615TIP3   OH2 4850   4.566   5.513   5.045  0.0855  0.0848 -0.4301
 1615TIP3    H1 4851   4.523   5.549   5.122 -0.0059 -0.6421 -0.1393
 1615TIP3    H2 4852   4.616   5.438   5.077  0.3180 -0.0216 -1.0172
 1616TIP3   OH2 4853   2.090   3.870   5.116 -0.2022  0.4647  0.2855
 1616TIP3    H1 4854   2.125   3.866   5.205  1.8325 -1.9007 -0.4910
 1616TIP3    H2 4855   1.995   3.867   5.128 -0.0739  2.3176  2.3841
 1617TIP3   OH2 4856   4.594   2.153   1.141  0.0078 -0.1538  0.0684
 1617TIP3    H1 4857   4.498   2.153   1.149 -0.0739 -0.5044 -0.7165
 1617TIP3    H2 4858   4.613   2.226   1.082  0.0550 -1.1527 -1.2059
 1618TIP3   OH2 4859   5.102   5.585   0.760 -0.1632 -0.4116  0.1067
 1618TIP3    H1 4860   5.059   5.601   0.844  1.5067  1.6914  0.6503
 1618TIP3    H2 4861   5.057   5.642   0.698  0.0009 -0.3549  0.0400
 1619TIP3   OH2 4862   3.160   1.535   1.810 -0.5859  0.0754  0.6867
 1619TIP3    H1 4863   3.238   1.551   1.864 -0.0136  1.0343 -0.3705
 1619TIP3    H2 4864   3.095   1.500   1.871  0.9741 -1.7431  1.4259
 1620TIP3   OH2 4865   5.243   4.804   2.086 -0.8609 -0.0251  0.0103
 1620TIP3    H1 4866   5.270   4.894   2.100  0.3793 -0.5413  1.2427
 1620TIP3    H2 4867   5.190   4.782   2.163 -0.5500 -0.5522  0.0831
 1621TIP3   OH2 4868   2.385   0.760   0.865 -0.1918  0.3417 -0.1817
 1621TIP3    H1 4869   2.326   0.834   0.876  1.3352  1.8135 -1.3904
 1621TIP3    H2 4870   2.343   0.705   0.799 -1.4985 -0.0936  0.9754
 1622TIP3   OH2 4871   1.755   0.132   3.962 -0.6625  0.4100  0.2950
 1622TIP3    H1 4872   1.736   0.161   3.873  1.0183 -0.2730 -0.3342
 1622TIP3    H2 4873   1.801   0.048   3.950  0.4581  0.7761  1.7512
 1623TIP3   OH2 4874   1.195   1.084   4.433 -0.2740  0.1047 -0.2311
 1623TIP3    H1 4875   1.128   1.144   4.401 -0.9205 -0.5810 -0.2192
 1623TIP3    H2 4876   1.182   1.004   4.381  0.4495 -0.0826 -0.1326
 1624TIP3   OH2 4877   2.973   4.904   4.909  0.1949 -0.3187 -0.2772
 1624TIP3    H1 4878   2.991   4.882   4.818 -1.0710  2.4000 -1.3085
 1624TIP3    H2 4879   2.983   4.999   4.913 -0.1064 -0.3177  2.3638
 1625TIP3   OH2 4880   2.856   1.991   3.177  0.1232 -0.0061  0.4787
 1625TIP3    H1 4881   2.819   1.936   3.247 -0.4367 -1.5821 -0.9832
 1625TIP3    H2 4882   2.826   1.950   3.096  0.4850  1.9541 -0.7153
 1626TIP3   OH2 4883   5.443   0.201   3.652  0.4037  0.0782  0.5484
 1626TIP3    H1 4884   5.383   0.149   3.598  1.6755  1.1984 -2.1505
 1626TIP3    H2 4885   5.521   0.147   3.661  0.3991  0.1115  0.7896
 1627TIP3   OH2 4886   0.700   4.399   0.749 -0.2453  0.0711 -0.5222
 1627TIP3    H1 4887   0.719   4.480   0.796  0.6734  0.4665 -1.5299
 1627TIP3    H2 4888   0.606   4.386   0.760 -0.0059 -0.0237  1.6638
 1628TIP3   OH2 4889   3.415   1.412   0.899  0.4705  0.0009  0.7193
 1628TIP3    H1 4890   3.484   1.479   0.904 -0.5178  1.3669 -1.8435
 1628TIP3    H2 4891   3.449   1.347   0.837  0.3124 -0.4503  1.1017
 1629TIP3   OH2 4892   0.444   2.807   1.370 -0.4359 -0.0020 -0.3045
 1629TIP3    H1 4893   0.529   2.776   1.402 -0.4204 -0.7293 -1.0078
 1629TIP3    H2 4894   0.400   2.727   1.338 -1.9314  0.1459  1.2417
 1630TIP3   OH2 4895   1.391   3.594   1.033 -0.5408 -0.0963 -0.2240
 1630TIP3    H1 4896   1.341   3.638   1.103 -0.6297 -1.3662  0.5458
 1630TIP3    H2 4897   1.407   3.663   0.969 -0.4716  1.1254  1.0410
 1631TIP3   OH2 4898   0.851   5.162   5.174  0.1279 -0.3573 -0.4818
 1631TIP3    H1 4899   0.924   5.209   5.214  0.0459 -1.3686  0.9354
 1631TIP3    H2 4900   0.883   5.139   5.086  1.1604 -0.0076 -0.2182
 1632TIP3   OH2 4901   0.317   1.212   1.624 -0.0783  0.0552  0.7302
 1632TIP3    H1 4902   0.297   1.249   1.538  0.7871 -1.3767 -0.1253
 1632TIP3    H2 4903   0.412   1.214   1.630 -0.0333 -1.4715  0.8770
 1633TIP3   OH2 4904   4.765   5.033   3.005 -0.0290  0.9548  0.1847
 1633TIP3    H1 4905   4.802   5.038   2.916  0.5581 -0.3106  0.3420
 1633TIP3    H2 4906   4.762   5.124   3.034  1.3151  1.2619 -0.5294
 1634TIP3   OH2 4907   4.928   5.144   0.985  0.1113  0.6222 -0.1784
 1634TIP3    H1 4908   4.944   5.220   0.930  0.4322  1.1094  0.5818
 1634TIP3    H2 4909   4.856   5.098   0.941  1.8057 -0.2468 -2.2487
 1635TIP3   OH2 4910   0.132   4.274   3.888  0.2278  0.0808  0.3106
 1635TIP3    H1 4911   0.130   4.284   3.793 -1.0552 -0.3627  0.2752
 1635TIP3    H2 4912   0.092   4.354   3.922 -1.1649 -0.6176  0.3825
 1636TIP3   OH2 4913   3.673   4.364   4.977  0.2616 -0.0921  0.0612
 1636TIP3    H1 4914   3.639   4.378   4.889 -0.2766 -2.6588 -0.2354
 1636TIP3    H2 4915   3.716   4.446   5.000 -0.6886  1.0851 -2.0680
 1637TIP3   OH2 4916   2.663   3.953   4.060  0.8157 -0.0948 -0.3007
 1637TIP3    H1 4917   2.687   3.940   4.152  0.8672 -0.6830 -0.3941
 1637TIP3    H2 4918   2.721   4.024   4.031  0.1127  0.7959  0.3795
 1638TIP3   OH2 4919   3.272   3.406   1.529 -0.2888  0.6136  0.1743
 1638TIP3    H1 4920   3.333   3.432   1.599 -2.1332  1.8640  1.4289
 1638TIP3    H2 4921   3.323   3.416   1.449  0.8022  3.0461  1.0359
 1639TIP3   OH2 4922   3.761   1.580   0.221 -0.4934 -0.0087  0.5136
 1639TIP3    H1 4923   3.780   1.550   0.132 -0.9707 -0.0830  0.4353
 1639TIP3    H2 4924   3.665   1.581   0.227 -0.4676 -0.0872  1.0530
 1640TIP3   OH2 4925   3.022   5.740   2.762  0.0410 -0.2907  0.5012
 1640TIP3    H1 4926   3.115   5.750   2.741 -0.5834 -1.2212 -3.5810
 1640TIP3    H2 4927   2.992   5.829   2.779  1.3180  0.2582  0.0363
 1641TIP3   OH2 4928   4.217   2.246   0.844 -0.1523  0.2030  0.4401
 1641TIP3    H1 4929   4.220   2.330   0.798  0.4317 -0.5197 -0.9175
 1641TIP3    H2 4930   4.151   2.195   0.797 -0.6274 -0.0400  1.3579
 1642TIP3   OH2 4931   0.959   5.859   0.080  0.3254  0.3235 -0.3597
 1642TIP3    H1 4932   0.970   5.900  -0.006  1.4118 -0.7496 -0.7590
 1642TIP3    H2 4933   1.046   5.825   0.101 -0.4755 -1.5911  0.0311
 1643TIP3   OH2 4934   2.444   5.576   4.363  0.0589  0.8684 -0.6308
 1643TIP3    H1 4935   2.494   5.495   4.373 -2.1855 -0.4225  1.2888
 1643TIP3    H2 4936   2.476   5.634   4.432 -1.2088 -0.0893  0.8288
 1644TIP3   OH2 4937   5.446   5.424   2.222 -0.1071  0.6370 -0.4060
 1644TIP3    H1 4938   5.503   5.370   2.168  0.1752  0.2902  0.2190
 1644TIP3    H2 4939   5.483   5.512   2.217  1.4106  0.1498  1.1618
 1645TIP3   OH2 4940   5.718   0.776   4.363 -0.0017 -0.1577 -0.2182
 1645TIP3    H1 4941   5.705   0.688   4.328 -1.6603 -0.9223  2.0565
 1645TIP3    H2 4942   5.711   0.834   4.287  1.0735 -1.9403 -1.7560
 1646TIP3   OH2 4943   0.861   1.247   2.502 -0.5074 -0.1504 -0.2080
 1646TIP3    H1 4944   0.777   1.241   2.546 -0.3277  0.7802  0.2856
 1646TIP3    H2 4945   0.852   1.321   2.442  0.6258  1.3848  1.4121
 1647TIP3   OH2 4946   1.447   4.009   2.449  0.7034  0.1419 -0.2471
 1647TIP3    H1 4947   1.517   4.041   2.506 -0.3216  0.0027  1.1300
 1647TIP3    H2 4948   1.381   3.973   2.509 -0.8805  0.9131 -1.4592
 1648TIP3   OH2 4949   3.158   4.983   3.334 -0.4343  0.1972 -0.2255
 1648TIP3    H1 4950   3.093   5.022   3.276 -1.2818  0.8698  1.1257
 1648TIP3    H2 4951   3.112   4.910   3.376  0.4252 -0.8131 -0.9656
 1649TIP3   OH2 4952   5.504   3.777   4.491  0.0900  0.3636 -0.0224
 1649TIP3    H1 4953   5.559   3.798   4.567  0.3580 -1.0015  0.1896
 1649TIP3    H2 4954   5.532   3.839   4.424  1.1080  0.4385  0.4468
 1650TIP3   OH2 4955   4.453   0.412   0.008 -0.2849 -0.0513 -0.1120
 1650TIP3    H1 4956   4.449   0.341  -0.056 -0.3230 -0.3479  0.2166
 1650TIP3    H2 4957   4.401   0.381   0.082 -0.9870  0.6540 -0.2946
 1651TIP3   OH2 4958   0.075   0.366   4.433 -0.1627 -0.0136  0.5403
 1651TIP3    H1 4959   0.034   0.340   4.515 -1.2196  0.9184  0.3244
 1651TIP3    H2 4960   0.093   0.283   4.388 -1.7529 -0.4664  0.6849
 1652TIP3   OH2 4961   3.549   0.478   0.266 -0.0500 -0.3168 -0.7691
 1652TIP3    H1 4962   3.639   0.445   0.268 -0.6013 -1.9038 -0.7522
 1652TIP3    H2 4963   3.502   0.423   0.328 -0.7780  1.3895  0.2534
 1653TIP3   OH2 4964   2.878   3.687   0.239  0.5118  0.3334 -0.3758
 1653TIP3    H1 4965   2.918   3.678   0.326 -1.6579 -2.4489  0.4865
 1653TIP3    H2 4966   2.910   3.611   0.190 -0.3112  0.4349 -1.0971
 1654TIP3   OH2 4967   4.088   4.527   3.768  0.5658 -0.1255 -0.4967
 1654TIP3    H1 4968   4.080   4.616   3.803  1.2351 -0.5450  0.7895
 1654TIP3    H2 4969   4.182   4.511   3.766  0.4105 -1.2576  0.4953
 1655TIP3   OH2 4970   5.214   4.095   0.656 -0.1452 -0.1291 -0.1283
 1655TIP3    H1 4971   5.183   4.048   0.733  0.2322 -1.8941 -1.0112
 1655TIP3    H2 4972   5.140   4.151   0.632 -0.5514 -0.1150  1.0436
 1656TIP3   OH2 4973   1.825   0.752   4.938 -0.3851  0.2913  0.6689
 1656TIP3    H1 4974   1.754   0.706   4.983 -0.0095  1.0582  2.1335
 1656TIP3    H2 4975   1.800   0.752   4.846 -1.2110 -1.3208  0.8654
 1657TIP3   OH2 4976   4.945   2.693   3.832  0.3526  0.6140  0.0072
 1657TIP3    H1 4977   5.015   2.714   3.893  0.5705 -1.0594  0.3943
 1657TIP3    H2 4978   4.868   2.740   3.866  0.2937 -0.8228  2.0205
 1658TIP3   OH2 4979   0.610   3.425   1.237  0.2618  0.2858  0.6277
 1658TIP3    H1 4980   0.671   3.352   1.224  0.5687  0.1926  2.4378
 1658TIP3    H2 4981   0.656   3.501   1.202  1.7121  0.3233  2.4897
 1659TIP3   OH2 4982   5.712   0.413   1.873  0.1164  0.8383 -0.3878
 1659TIP3    H1 4983   5.727   0.357   1.949  1.1368  0.0727 -1.1278
 1659TIP3    H2 4984   5.794   0.410   1.824  0.8005  4.2091  0.2986
 1660TIP3   OH2 4985   3.185   4.163   1.383  0.4405  0.1106 -0.1112
 1660TIP3    H1 4986   3.117   4.161   1.315 -1.3110 -0.4039  1.5453
 1660TIP3    H2 4987   3.175   4.248   1.425 -0.8512 -0.8551  1.6655
 1661TIP3   OH2 4988   4.441   4.419   0.638 -0.4723 -0.4792  0.1723
 1661TIP3    H1 4989   4.478   4.383   0.719  0.9679 -0.1741 -0.3092
 1661TIP3    H2 4990   4.518   4.438   0.583 -1.3455  0.5270 -0.7583
 1662TIP3   OH2 4991   2.596   3.459   1.893 -0.1998 -1.0245 -0.0982
 1662TIP3    H1 4992   2.675   3.514   1.902 -0.7445  0.4393 -3.0835
 1662TIP3    H2 4993   2.623   3.388   1.835 -0.4848 -1.9016  0.8170
 1663TIP3   OH2 4994   4.137   3.409   0.160  0.7069  0.0170  0.2382
 1663TIP3    H1 4995   4.200   3.369   0.101 -0.1235 -0.9142 -0.0573
 1663TIP3    H2 4996   4.190   3.452   0.227  1.6505 -0.3935 -0.2274
 1664TIP3   OH2 4997   0.942   2.726   2.848  0.3672  0.3086 -0.1057
 1664TIP3    H1 4998   0.874   2.761   2.790  0.7498 -0.3286 -0.9560
 1664TIP3    H2 4999   0.904   2.646   2.884  0.4843  0.1970 -0.2270
 1665TIP3   OH2 5000   0.926   2.621   1.913 -0.0000 -0.5195  0.3873
 1665TIP3    H1 5001   0.883   2.552   1.862 -1.2217  1.2618 -1.1215
 1665TIP3    H2 5002   1.003   2.644   1.862 -0.5328  0.3944 -0.0234
 1666TIP3   OH2 5003   1.534   4.362   2.264  0.4571  0.1614 -0.3965
 1666TIP3    H1 5004   1.540   4.456   2.248  0.2834  0.1275 -0.6655
 1666TIP3    H2 5005   1.538   4.353   2.359  0.4614  0.4425 -0.3711
 1667TIP3   OH2 5006   2.862   1.086   0.382  0.2589  0.2854 -0.5262
 1667TIP3    H1 5007   2.808   1.071   0.304 -2.2840  0.0198  1.1593
 1667TIP3    H2 5008   2.799   1.097   0.453  2.4374  1.7828  1.3202
 1668TIP3   OH2 5009   0.605   1.337   1.735 -0.1054 -0.4990  0.3142
 1668TIP3    H1 5010   0.593   1.294   1.819  0.3307 -3.2255 -0.9140
 1668TIP3    H2 5011   0.662   1.278   1.686 -0.8034  0.7147 -2.1082
 1669TIP3   OH2 5012   0.829   0.120   2.030  0.2638 -0.1600  0.1653
 1669TIP3    H1 5013   0.795   0.105   1.942 -2.2821 -2.3772  1.3800
 1669TIP3    H2 5014   0.903   0.180   2.017 -2.4812  3.0005 -3.0006
 1670TIP3   OH2 5015   1.587   2.280   3.419 -0.3463 -0.1280 -0.2168
 1670TIP3    H1 5016   1.571   2.374   3.418  0.3540  0.0362  1.5435
 1670TIP3    H2 5017   1.664   2.268   3.363  0.1880  0.4739  0.3822
 1671TIP3   OH2 5018   4.501   2.269   2.444 -0.5107  0.0328  0.7527
 1671TIP3    H1 5019   4.530   2.183   2.474  0.3065 -0.3555 -1.0441
 1671TIP3    H2 5020   4.572   2.301   2.389 -2.2888  0.2119 -1.6227
 1672TIP3   OH2 5021   3.548   4.199   0.226 -0.2343  0.3432  0.2019
 1672TIP3    H1 5022   3.588   4.124   0.183 -1.3397 -0.5449  0.6676
 1672TIP3    H2 5023   3.577   4.274   0.175 -0.7031 -0.5879 -1.5029
 1673TIP3   OH2 5024   4.138   2.508   2.815 -0.7358  0.3164 -0.2809
 1673TIP3    H1 5025   4.190   2.540   2.742 -1.7458  0.1636 -1.0856
 1673TIP3    H2 5026   4.137   2.413   2.804 -1.1941  0.3177 -0.2857
 1674TIP3   OH2 5027   3.184   1.127   0.600 -0.2390 -0.0345  0.4778
 1674TIP3    H1 5028   3.144   1.040   0.595 -0.5070 -0.0177  1.8320
 1674TIP3    H2 5029   3.173   1.165   0.513 -2.6988 -0.2457  0.6458
 1675TIP3   OH2 5030   1.677   5.383   4.172  0.4392 -0.3365 -0.3727
 1675TIP3    H1 5031   1.751   5.401   4.113  1.3482  3.8649  1.7258
 1675TIP3    H2 5032   1.714   5.387   4.260 -1.8584 -0.6946  0.6917
 1676TIP3   OH2 5033   4.117   4.498   3.122 -0.5891  0.1175 -0.2770
 1676TIP3    H1 5034   4.044   4.535   3.171  1.3406  0.8985  2.2719
 1676TIP3    H2 5035   4.183   4.568   3.120  0.1893 -0.6103 -2.2935
 1677TIP3   OH2 5036   0.213   5.197   4.852 -0.2174  0.1885 -0.3561
 1677TIP3    H1 5037   0.266   5.270   4.883  2.6029 -0.3507 -3.3269
 1677TIP3    H2 5038   0.244   5.121   4.903  0.5123  0.2114 -0.7599
 1678TIP3   OH2 5039   4.868   1.923   3.178 -0.4127 -0.0202  0.0982
 1678TIP3    H1 5040   4.784   1.891   3.210 -0.8727  0.6132 -0.4300
 1678TIP3    H2 5041   4.898   1.984   3.246 -0.9215  0.5903 -0.2118
 1679TIP3   OH2 5042   6.111   3.872   1.845 -0.1263 -0.3304 -0.0437
 1679TIP3    H1 5043   6.066   3.814   1.784 -0.2944  0.4443 -0.6672
 1679TIP3    H2 5044   6.197   3.833   1.858 -1.5369 -2.9639  2.7008
 1680TIP3   OH2 5045   2.015   1.273   1.706  0.2660 -0.7962 -0.1361
 1680TIP3    H1 5046   2.092   1.317   1.668 -0.8288  0.2272 -1.2515
 1680TIP3    H2 5047   1.956   1.260   1.632 -0.8310 -1.1611  0.7808
 1681TIP3   OH2 5048   1.067   3.451   2.765  0.1313 -0.1177 -0.3379
 1681TIP3    H1 5049   0.992   3.475   2.711 -1.0699 -1.2105  0.7700
 1681TIP3    H2 5050   1.107   3.377   2.719 -0.6569 -0.7932  0.0358
 1682TIP3   OH2 5051   5.146   1.310   3.094  0.0164  0.1233 -0.1682
 1682TIP3    H1 5052   5.185   1.376   3.151  0.1382 -1.1677  1.2837
 1682TIP3    H2 5053   5.168   1.226   3.135 -4.3173 -0.7392  0.8176
 1683TIP3   OH2 5054   1.806   2.506   1.520 -0.2198 -0.5364  0.3196
 1683TIP3    H1 5055   1.819   2.421   1.563  0.0905 -0.5172  0.2668
 1683TIP3    H2 5056   1.785   2.484   1.429  0.9797 -0.5334  0.0311
 1684TIP3   OH2 5057   3.984   4.734   2.342 -0.6660  0.2822  0.4460
 1684TIP3    H1 5058   3.990   4.712   2.435  1.8711 -2.0671 -0.1450
 1684TIP3    H2 5059   3.930   4.664   2.304 -0.6022  0.4909 -0.0411
 1685TIP3   OH2 5060   1.515   4.750   0.613  0.6365 -0.0777  0.0498
 1685TIP3    H1 5061   1.528   4.783   0.524 -0.3033 -1.9820 -0.8507
 1685TIP3    H2 5062   1.419   4.750   0.624  0.5920 -2.3280  0.0267
 1686TIP3   OH2 5063   1.070   0.820   2.477  0.3261 -0.2409  0.1047
 1686TIP3    H1 5064   1.013   0.814   2.554  0.3965  0.2344  0.1976
 1686TIP3    H2 5065   1.060   0.911   2.448 -0.9242 -0.8026 -1.3847
 1687TIP3   OH2 5066   6.235   3.485   1.264  0.4793 -0.0331 -0.1106
 1687TIP3    H1 5067   6.226   3.489   1.359  0.2695  0.8590 -0.1622
 1687TIP3    H2 5068   6.242   3.391   1.244  0.4761 -0.2250  0.7743
 1688TIP3   OH2 5069   1.887   0.078   3.426 -0.6845 -0.6728 -0.3371
 1688TIP3    H1 5070   1.850  -0.009   3.411  0.1212 -0.9538 -0.7720
 1688TIP3    H2 5071   1.982   0.063   3.425 -0.5391  0.2406 -0.5991
 1689TIP3   OH2 5072   3.972   0.318   3.629 -0.8770 -1.0607 -0.2028
 1689TIP3    H1 5073   3.890   0.268   3.624 -2.0562  0.2521  2.8227
 1689TIP3    H2 5074   3.974   0.349   3.720  0.4766  3.0529 -1.4162
 1690TIP3   OH2 5075   0.137   1.901   1.603  0.1481  0.2848  0.2180
 1690TIP3    H1 5076   0.211   1.956   1.577  1.4053 -1.1781  0.5759
 1690TIP3    H2 5077   0.170   1.812   1.596 -1.6005 -0.4086  0.4059
 1691TIP3   OH2 5078   4.275   1.937   2.438 -0.3249 -0.4980  0.1527
 1691TIP3    H1 5079   4.356   1.896   2.407  1.4469  2.8858 -0.1205
 1691TIP3    H2 5080   4.290   1.953   2.531 -0.7929 -0.0712  0.1553
 1692TIP3   OH2 5081   2.729   1.436   2.650  0.4990 -0.6130  0.3135
 1692TIP3    H1 5082   2.744   1.454   2.557  2.0605  0.0128  0.6550
 1692TIP3    H2 5083   2.644   1.475   2.669  0.0825 -0.8956 -0.8870
 1693TIP3   OH2 5084   1.701   4.779   4.079  0.2311  0.9289  0.0315
 1693TIP3    H1 5085   1.771   4.841   4.058  1.1698  0.4587  1.5737
 1693TIP3    H2 5086   1.690   4.787   4.174  1.2872 -2.1501  0.5079
 1694TIP3   OH2 5087   0.176   2.745   4.637  0.6129  0.4290 -0.5091
 1694TIP3    H1 5088   0.211   2.834   4.640 -1.0339  1.0973  0.0109
 1694TIP3    H2 5089   0.127   2.736   4.719  0.3556 -0.7726 -0.7850
 1695TIP3   OH2 5090   5.906   2.931   2.775 -0.1532 -0.3712  0.4908
 1695TIP3    H1 5091   5.876   2.840   2.784 -1.7123  0.1113  0.2836
 1695TIP3    H2 5092   5.980   2.937   2.836  1.4272 -2.3788 -1.0815
 1696TIP3   OH2 5093   2.659   4.101   2.379 -0.4856  0.2381  0.2314
 1696TIP3    H1 5094   2.647   4.151   2.298 -0.7999 -1.4291 -0.8022
 1696TIP3    H2 5095   2.618   4.155   2.446  0.0133  1.7946 -0.6523
 1697TIP3   OH2 5096   5.744   5.954   3.736 -0.0524  0.3682 -0.0732
 1697TIP3    H1 5097   5.670   6.013   3.751  1.1094  2.0331 -0.6516
 1697TIP3    H2 5098   5.723   5.910   3.654 -0.6455  0.4453  0.0337
 1698TIP3   OH2 5099   1.180   1.438   1.188 -0.2185 -0.1199  0.2502
 1698TIP3    H1 5100   1.146   1.350   1.179  0.4435 -0.4885  1.1740
 1698TIP3    H2 5101   1.275   1.428   1.179 -0.2467  0.7438 -1.3076
 1699TIP3   OH2 5102   5.361   4.897   0.603 -0.1144  0.2720 -0.6224
 1699TIP3    H1 5103   5.421   4.845   0.656 -2.2012 -0.9019  0.7162
 1699TIP3    H2 5104   5.283   4.842   0.593 -1.8526  2.5349 -0.3892
 1700TIP3   OH2 5105   2.442   4.826   1.409 -0.5374  0.1223 -0.1076
 1700TIP3    H1 5106   2.383   4.800   1.479 -0.1351 -0.8765 -0.1142
 1700TIP3    H2 5107   2.393   4.889   1.357 -1.3678 -0.2308  0.2367
 1701TIP3   OH2 5108   5.854   4.061   0.844  0.5453  0.4275 -0.5096
 1701TIP3    H1 5109   5.896   4.131   0.893 -3.5884  0.8994  2.9275
 1701TIP3    H2 5110   5.829   4.102   0.761  0.1711  2.3911  0.5077
 1702TIP3   OH2 5111   3.570   3.103   2.155 -0.2460  0.1634  0.1212
 1702TIP3    H1 5112   3.609   3.109   2.242  0.9361  0.3023 -0.3893
 1702TIP3    H2 5113   3.479   3.129   2.167  0.6577  3.6129  0.7712
 1703TIP3   OH2 5114   5.745   3.499   1.547  0.0567 -0.5512 -0.1960
 1703TIP3    H1 5115   5.731   3.459   1.460 -0.5987  1.1270 -0.8968
 1703TIP3    H2 5116   5.836   3.479   1.567 -0.2820 -2.5884 -0.3829
 1704TIP3   OH2 5117   2.805   2.019   4.702  0.7033 -0.3519  0.0480
 1704TIP3    H1 5118   2.869   2.087   4.725  0.1826 -0.1871  1.0825
 1704TIP3    H2 5119   2.855   1.938   4.705  1.3090 -0.0391 -1.0996
 1705TIP3   OH2 5120   5.632   5.868   0.731 -0.0997  0.4397  0.6960
 1705TIP3    H1 5121   5.638   5.907   0.818  0.4312 -0.3671  1.0374
 1705TIP3    H2 5122   5.701   5.802   0.730 -0.9072 -0.4118  0.0972
 1706TIP3   OH2 5123   5.711   2.449   1.194  0.0285 -0.0219 -0.6656
 1706TIP3    H1 5124   5.745   2.375   1.245  0.3568  0.0427 -0.7870
 1706TIP3    H2 5125   5.746   2.434   1.106  0.0186  0.2287 -0.7110
 1707TIP3   OH2 5126   1.631   4.536   4.349  0.4409 -0.9400  0.3622
 1707TIP3    H1 5127   1.555   4.494   4.310  0.9641 -1.4028 -0.1771
 1707TIP3    H2 5128   1.635   4.501   4.438 -1.7619  1.4062  1.5164
 1708TIP3   OH2 5129   1.689   2.019   3.802  0.0843  0.1269  0.2193
 1708TIP3    H1 5130   1.634   1.955   3.848 -1.2736  1.0445 -0.0436
 1708TIP3    H2 5131   1.682   1.995   3.709 -2.5206  2.0413 -0.2005
 1709TIP3   OH2 5132   0.158   1.058   1.244 -0.2674 -0.3879  0.0977
 1709TIP3    H1 5133   0.122   1.069   1.156  0.0548 -0.3835 -0.0348
 1709TIP3    H2 5134   0.083   1.068   1.302 -0.1871  1.6759 -0.0568
 1710TIP3   OH2 5135   3.232   1.399   2.276  0.0520 -0.4183  0.2698
 1710TIP3    H1 5136   3.178   1.338   2.325 -2.6112  0.1367 -1.7192
 1710TIP3    H2 5137   3.222   1.482   2.322  1.8039 -0.9073  1.6457
 1711TIP3   OH2 5138   2.355   0.665   0.134 -0.0860 -0.3043  0.1544
 1711TIP3    H1 5139   2.344   0.579   0.174 -1.7486  0.9176  2.5174
 1711TIP3    H2 5140   2.266   0.699   0.124  0.5754  1.9127  1.1578
 1712TIP3   OH2 5141   3.190   0.757   3.621  0.2799 -0.2688 -0.4585
 1712TIP3    H1 5142   3.181   0.852   3.610  0.9020 -0.2214 -0.6270
 1712TIP3    H2 5143   3.111   0.720   3.582 -0.8516  0.2614  1.2294
 1713TIP3   OH2 5144   5.501   4.084   4.458 -0.0271  0.0067  0.2989
 1713TIP3    H1 5145   5.535   4.034   4.384  0.8163 -0.9792  1.3230
 1713TIP3    H2 5146   5.476   4.169   4.420  0.5460 -0.4118 -1.0710
 1714TIP3   OH2 5147   2.548   0.838   2.224 -0.4483 -0.3007  0.6803
 1714TIP3    H1 5148   2.465   0.881   2.204 -0.2736  1.4710  3.2156
 1714TIP3    H2 5149   2.527   0.777   2.296  0.4756  0.5252  1.6880
 1715TIP3   OH2 5150   2.062   2.487   4.220 -0.4283 -0.2555 -0.0242
 1715TIP3    H1 5151   2.011   2.520   4.146 -0.7019 -1.7273 -0.5278
 1715TIP3    H2 5152   2.149   2.525   4.207 -0.6015 -0.1152 -0.8442
 1716TIP3   OH2 5153   4.558   4.126   4.780  0.1212  0.4166 -0.0897
 1716TIP3    H1 5154   4.572   4.035   4.804  1.2703  0.4880 -0.4456
 1716TIP3    H2 5155   4.501   4.161   4.849  0.2415 -0.3804  0.4189
 1717TIP3   OH2 5156   1.272   0.937   0.579 -0.4889 -0.1989 -0.2446
 1717TIP3    H1 5157   1.209   0.988   0.528 -0.4785 -0.8826 -0.9681
 1717TIP3    H2 5158   1.219   0.875   0.629 -0.3787 -1.2309 -1.3677
 1718TIP3   OH2 5159   6.195   4.802   1.879 -0.6994  0.3776  0.0590
 1718TIP3    H1 5160   6.141   4.736   1.923 -0.4012 -1.3860 -1.9969
 1718TIP3    H2 5161   6.189   4.779   1.786  0.5329  2.4711 -0.6028
 1719TIP3   OH2 5162   0.014   1.099   3.720  0.4112  0.1643 -0.1005
 1719TIP3    H1 5163   0.032   1.007   3.740  0.0075 -0.1166 -1.0014
 1719TIP3    H2 5164   0.097   1.144   3.738  0.3944 -0.2415  1.0717
 1720TIP3   OH2 5165   4.068   5.605   0.223  0.0674 -0.1422  0.6134
 1720TIP3    H1 5166   4.130   5.663   0.179 -0.3680 -0.0262  0.1494
 1720TIP3    H2 5167   4.108   5.588   0.309  0.1359  0.9351  0.8008
 1721TIP3   OH2 5168   2.109   3.961   0.948 -0.2489 -0.2447 -0.4485
 1721TIP3    H1 5169   2.123   4.002   0.862 -1.2340  0.6913 -0.1818
 1721TIP3    H2 5170   2.193   3.972   0.993  1.1431 -3.0018 -2.1444
 1722TIP3   OH2 5171   4.581   0.262   3.086 -0.3664  0.5439 -0.5758
 1722TIP3    H1 5172   4.619   0.203   3.151  0.8500  0.3927 -1.3799
 1722TIP3    H2 5173   4.637   0.340   3.089  0.0239  0.3412 -1.7492
 1723TIP3   OH2 5174   0.537   1.710   0.308  0.0104  0.0062 -0.0968
 1723TIP3    H1 5175   0.492   1.794   0.302 -0.5504 -0.2023  0.7987
 1723TIP3    H2 5176   0.501   1.670   0.388  1.5916 -0.3029  0.5042
 1724TIP3   OH2 5177   6.095   1.489   0.997  0.7870 -0.4949 -0.6406
 1724TIP3    H1 5178   6.161   1.430   1.032  3.0840  1.8780 -0.6779
 1724TIP3    H2 5179   6.081   1.554   1.066  2.0045  1.6506 -2.2936
 1725TIP3   OH2 5180   0.496   3.918   0.138  0.2256 -0.2400  0.3441
 1725TIP3    H1 5181   0.459   3.926   0.050  1.0766 -1.5231 -0.1500
 1725TIP3    H2 5182   0.573   3.975   0.137  2.3943 -2.9917 -0.9992
 1726TIP3   OH2 5183   5.783   2.013   1.431  0.2883  0.3346 -0.2803
 1726TIP3    H1 5184   5.712   1.957   1.400  0.3972 -0.4335  0.8297
 1726TIP3    H2 5185   5.860   1.956   1.433  0.4148  0.5221  0.7913
 1727TIP3   OH2 5186   0.618   0.531   2.526  0.3217 -0.3030  0.0370
 1727TIP3    H1 5187   0.609   0.442   2.559 -0.8480 -0.6720 -1.1933
 1727TIP3    H2 5188   0.697   0.529   2.473 -1.0139 -1.3271 -2.0346
 1728TIP3   OH2 5189   5.801   5.080   1.164 -0.4633 -0.0911  0.6757
 1728TIP3    H1 5190   5.714   5.116   1.184 -0.8111 -1.1437  1.1109
 1728TIP3    H2 5191   5.789   4.985   1.166  0.6628 -0.2490  0.5639
 1729TIP3   OH2 5192   3.447   5.064   2.930  0.1571  0.2898  0.2297
 1729TIP3    H1 5193   3.424   4.987   2.981 -0.3625 -0.1957 -0.7210
 1729TIP3    H2 5194   3.541   5.053   2.911  0.0993 -0.0887  0.1473
 1730TIP3   OH2 5195   2.567   4.933   3.019  0.3181 -0.3029  0.0361
 1730TIP3    H1 5196   2.581   5.018   3.062  0.1963 -0.5506  0.5769
 1730TIP3    H2 5197   2.476   4.936   2.989  0.3484 -0.1961 -0.0435
 1731TIP3   OH2 5198   1.948   0.727   3.320  0.6472  0.1986 -0.2664
 1731TIP3    H1 5199   1.918   0.641   3.293 -0.9313  0.5365  0.2582
 1731TIP3    H2 5200   1.964   0.774   3.238 -1.9009  0.5007 -0.6677
 1732TIP3   OH2 5201   2.886   5.767   2.251 -0.1490 -0.2008  0.2174
 1732TIP3    H1 5202   2.854   5.851   2.283 -1.1960 -0.5624  0.1907
 1732TIP3    H2 5203   2.860   5.704   2.318  1.1805 -0.4313  0.5372
 1733TIP3   OH2 5204   4.253   4.127   0.811 -0.1312 -0.2709 -0.0402
 1733TIP3    H1 5205   4.197   4.204   0.822 -0.8662 -0.6120 -1.2210
 1733TIP3    H2 5206   4.267   4.095   0.900 -1.5418  0.0312  0.3207
 1734TIP3   OH2 5207   1.538   0.558   3.661  0.1640 -0.1716 -0.4443
 1734TIP3    H1 5208   1.507   0.505   3.734 -2.6351  0.4387 -1.0694
 1734TIP3    H2 5209   1.606   0.613   3.698 -0.5604 -0.5079  1.4816
 1735TIP3   OH2 5210   1.956   2.588   1.807  0.5727 -0.0274 -0.2538
 1735TIP3    H1 5211   2.040   2.542   1.806  1.0560  0.8006 -1.8636
 1735TIP3    H2 5212   1.892   2.523   1.777  0.7066 -0.5224  0.5158
 1736TIP3   OH2 5213   5.298   4.509   4.055  0.4239  0.3413 -0.2353
 1736TIP3    H1 5214   5.208   4.505   4.023  1.3438 -0.6737 -2.9892
 1736TIP3    H2 5215   5.331   4.593   4.025  1.1602 -0.4225 -1.6595
 1737TIP3   OH2 5216   4.209   1.655   1.340 -0.3090 -0.0917 -0.2038
 1737TIP3    H1 5217   4.277   1.671   1.406 -0.4424 -0.5707  0.0590
 1737TIP3    H2 5218   4.177   1.742   1.316 -0.0301  0.1025  0.1275
 1738TIP3   OH2 5219   1.025   0.495   0.976  0.1740 -0.3710 -0.1302
 1738TIP3    H1 5220   1.004   0.448   1.057 -1.9076 -0.0595 -0.4316
 1738TIP3    H2 5221   1.012   0.429   0.907 -2.0788  0.3665 -0.4958
 1739TIP3   OH2 5222   2.631   1.154   1.708  0.1772 -0.2051  0.2842
 1739TIP3    H1 5223   2.612   1.131   1.617  0.4473  0.7396 -0.0146
 1739TIP3    H2 5224   2.724   1.135   1.718 -0.3560 -2.7484  1.1228
 1740TIP3   OH2 5225   3.882   0.296   2.858  0.6922  0.6271  0.1432
 1740TIP3    H1 5226   3.808   0.356   2.870 -0.1927 -0.2518 -0.7646
 1740TIP3    H2 5227   3.955   0.338   2.904 -0.9615  0.3002  3.3860
 1741TIP3   OH2 5228   1.933   4.794   4.482  0.1644  0.0180  0.8290
 1741TIP3    H1 5229   1.891   4.730   4.539  0.3788  0.4368  1.4707
 1741TIP3    H2 5230   1.865   4.861   4.467  1.1510  1.8822  3.6985
 1742TIP3   OH2 5231   5.351   2.023   3.571 -0.0974 -0.0044  0.0760
 1742TIP3    H1 5232   5.351   2.108   3.527  0.7199  0.4978  1.0019
 1742TIP3    H2 5233   5.316   1.963   3.506  0.9813  0.7207 -1.2365
 1743TIP3   OH2 5234   2.995   0.753   0.966  0.0401  0.0911  0.0993
 1743TIP3    H1 5235   3.070   0.709   1.005 -0.4294 -2.1526 -1.3671
 1743TIP3    H2 5236   2.920   0.696   0.986 -1.2240  1.9357  0.9597
 1744TIP3   OH2 5237   5.893   4.683   2.759  0.0270 -0.1346 -0.2517
 1744TIP3    H1 5238   5.965   4.647   2.810 -0.3553 -0.7262 -0.1216
 1744TIP3    H2 5239   5.829   4.612   2.755 -1.0691  0.7724  0.6428
 1745TIP3   OH2 5240   2.275   1.532   4.744  0.0078  0.9062  0.4111
 1745TIP3    H1 5241   2.216   1.598   4.707 -0.9624 -0.9464 -1.6428
 1745TIP3    H2 5242   2.350   1.532   4.685  0.2974  0.6177  0.7779
 1746TIP3   OH2 5243   4.459   4.427   3.357 -0.0844  0.5107  0.3020
 1746TIP3    H1 5244   4.461   4.435   3.262  0.3400  1.0660  0.3539
 1746TIP3    H2 5245   4.549   4.443   3.385 -0.5999  2.7251  0.9591
 1747TIP3   OH2 5246   4.512   2.940   3.211  0.2061  0.2891 -0.2196
 1747TIP3    H1 5247   4.451   2.929   3.138 -0.2758  2.2496 -0.1778
 1747TIP3    H2 5248   4.480   2.881   3.279  0.5644 -1.4464 -1.4903
 1748TIP3   OH2 5249   5.634   2.558   2.211 -0.0429 -0.0199 -0.0917
 1748TIP3    H1 5250   5.624   2.554   2.306 -2.0091 -0.2273 -0.2554
 1748TIP3    H2 5251   5.719   2.600   2.197  0.6174 -0.6551  1.7365
 1749TIP3   OH2 5252   0.178   4.602   3.758  0.3550  0.0567 -0.2276
 1749TIP3    H1 5253   0.247   4.655   3.719  0.5865  0.3935  0.6136
 1749TIP3    H2 5254   0.205   4.511   3.744  2.6512  0.1096  2.8497
 1750TIP3   OH2 5255   2.656   5.059   1.087  0.8986  0.1885 -0.1190
 1750TIP3    H1 5256   2.639   4.964   1.085  0.2580  0.3033 -0.4363
 1750TIP3    H2 5257   2.666   5.083   0.995  0.4796  0.5288 -0.0750
 1751TIP3   OH2 5258   6.119   2.482   1.545  0.4056  0.5699  0.4314
 1751TIP3    H1 5259   6.057   2.545   1.507 -0.0270 -0.5125 -0.7524
 1751TIP3    H2 5260   6.065   2.407   1.569  1.1173 -0.0045  0.2702
 1752TIP3   OH2 5261   3.353   5.512   0.088  0.3474  0.0102 -0.3025
 1752TIP3    H1 5262   3.413   5.460   0.141  2.3395  1.1333 -1.3263
 1752TIP3    H2 5263   3.365   5.602   0.120  0.2625  0.4415 -1.4360
 1753TIP3   OH2 5264   4.707   2.357   2.296 -0.3506  0.4393  0.0480
 1753TIP3    H1 5265   4.717   2.294   2.225  2.9447  1.7466 -0.8453
 1753TIP3    H2 5266   4.682   2.439   2.253  2.6645  1.4985  0.1055
 1754TIP3   OH2 5267   4.189   0.380   2.672 -0.2220  0.5108 -0.5330
 1754TIP3    H1 5268   4.233   0.297   2.658 -0.0616  0.5669 -0.3527
 1754TIP3    H2 5269   4.248   0.445   2.633  0.8283  0.8191  1.4310
 1755TIP3   OH2 5270   2.939   1.744   4.493  0.1089 -1.0738 -0.0510
 1755TIP3    H1 5271   3.001   1.677   4.465  1.3174 -0.0871  0.1649
 1755TIP3    H2 5272   2.935   1.734   4.588 -0.0764 -1.1363 -0.0648
 1756TIP3   OH2 5273   0.701   5.145   0.641  0.0022  0.3656  0.4765
 1756TIP3    H1 5274   0.651   5.223   0.666 -0.2409 -0.0104  1.1820
 1756TIP3    H2 5275   0.783   5.152   0.690 -0.1896 -0.0244  0.8626
 1757TIP3   OH2 5276   4.567   0.362   1.995 -0.5074  0.1838  0.3225
 1757TIP3    H1 5277   4.625   0.438   1.987  0.1043 -0.3992 -1.0051
 1757TIP3    H2 5278   4.493   0.381   1.938 -0.2714 -0.2818 -0.1483
 1758TIP3   OH2 5279   4.941   5.346   0.746 -0.3537  0.0806  0.6848
 1758TIP3    H1 5280   4.981   5.283   0.685 -1.3216  0.0986  0.0012
 1758TIP3    H2 5281   4.977   5.431   0.719 -1.0773  0.1401 -0.1477
 1759TIP3   OH2 5282   2.558   2.528   4.965 -0.0203  0.6600  0.4196
 1759TIP3    H1 5283   2.621   2.543   5.036  0.7152  1.4456 -0.3878
 1759TIP3    H2 5284   2.504   2.456   4.997  2.8889 -1.8895  0.1146
 1760TIP3   OH2 5285   1.613   4.329   3.699  0.7905  0.6153  0.5351
 1760TIP3    H1 5286   1.680   4.286   3.645 -2.4742  0.3278 -3.8271
 1760TIP3    H2 5287   1.632   4.422   3.690 -0.2025  0.6596 -2.2804
 1761TIP3   OH2 5288   5.038   0.287   4.419 -0.2282  0.3247 -0.1223
 1761TIP3    H1 5289   4.983   0.359   4.389  1.6498  1.3989 -1.1099
 1761TIP3    H2 5290   5.043   0.299   4.514  1.2817  2.4718 -0.4028
 1762TIP3   OH2 5291   1.511   1.075   1.832 -0.3106 -0.3947 -0.0533
 1762TIP3    H1 5292   1.467   0.990   1.833 -2.8672  0.8252 -1.2707
 1762TIP3    H2 5293   1.441   1.139   1.833  1.5632  1.8071  2.2400
 1763TIP3   OH2 5294   0.875   5.271   3.313  0.5636 -0.3833  0.0572
 1763TIP3    H1 5295   0.865   5.263   3.218 -1.5083 -0.0415  0.1931
 1763TIP3    H2 5296   0.969   5.280   3.326  1.0206 -1.7632 -1.8385
 1764TIP3   OH2 5297   1.886   2.439   3.587  0.7013  1.0245  0.1599
 1764TIP3    H1 5298   1.869   2.396   3.670 -1.3072  2.1116  0.3879
 1764TIP3    H2 5299   1.928   2.522   3.611 -0.5083  1.6569  0.2027
 1765TIP3   OH2 5300   5.742   1.723   1.102  0.2803  0.4245  0.1981
 1765TIP3    H1 5301   5.786   1.797   1.060 -1.1288  0.3421 -1.5288
 1765TIP3    H2 5302   5.736   1.656   1.034 -0.1764 -0.5706  1.1766
 1766TIP3   OH2 5303   0.136   4.025   4.842  0.1676  0.3972  0.1616
 1766TIP3    H1 5304   0.076   3.963   4.801  1.0094 -0.1374 -0.2928
 1766TIP3    H2 5305   0.217   3.975   4.855  0.8735  1.4065 -0.2475
 1767TIP3   OH2 5306   5.304   0.048   4.540 -0.0775  0.1883  0.0918
 1767TIP3    H1 5307   5.259   0.054   4.456  1.6024 -1.2018 -0.9706
 1767TIP3    H2 5308   5.323  -0.045   4.550  0.0033  0.3715  1.8972
 1768TIP3   OH2 5309   3.347   0.215   2.640 -0.1434 -0.2780  0.1965
 1768TIP3    H1 5310   3.425   0.197   2.692  0.7490  0.9773 -0.6262
 1768TIP3    H2 5311   3.285   0.145   2.663  1.3791 -1.5681  0.5439
 1769TIP3   OH2 5312   5.895   4.781   0.154  1.0331  0.3141  0.0092
 1769TIP3    H1 5313   5.955   4.776   0.080  1.1605 -2.6275  0.1768
 1769TIP3    H2 5314   5.813   4.814   0.116  1.7529  1.1167 -0.9135
 1770TIP3   OH2 5315   1.269   0.309   3.319 -0.1186 -0.0540 -0.1761
 1770TIP3    H1 5316   1.286   0.360   3.398 -0.3976  0.0319 -0.1725
 1770TIP3    H2 5317   1.244   0.373   3.253  1.1931  0.0012 -0.6545
 1771TIP3   OH2 5318   3.985   1.714   1.071  0.2396 -0.5687 -0.1154
 1771TIP3    H1 5319   3.955   1.669   0.992  0.8355 -0.4321 -0.4210
 1771TIP3    H2 5320   4.075   1.739   1.052 -0.8782  3.3578 -1.0916
 1772TIP3   OH2 5321   6.269   5.295   4.888 -0.0658 -0.4355 -0.4037
 1772TIP3    H1 5322   6.223   5.257   4.814  1.8971 -0.4372 -1.6989
 1772TIP3    H2 5323   6.342   5.235   4.904 -1.4175 -1.4329  2.7589
 1773TIP3   OH2 5324   6.301   5.002   1.184 -0.4714  0.4587 -0.1014
 1773TIP3    H1 5325   6.213   5.010   1.146 -0.4688 -0.4414 -0.3159
 1773TIP3    H2 5326   6.294   5.049   1.268 -1.4116 -0.3255  0.2832
 1774TIP3   OH2 5327   0.308   4.029   2.682 -0.2668  0.0604  0.0113
 1774TIP3    H1 5328   0.258   4.034   2.763 -1.3064  0.5005 -0.6259
 1774TIP3    H2 5329   0.399   4.047   2.707 -0.7868  1.5914  0.8787
 1775TIP3   OH2 5330   4.968   3.569   4.684  0.0210  0.0833  0.4475
 1775TIP3    H1 5331   5.062   3.582   4.671 -0.3897  1.1863 -1.9632
 1775TIP3    H2 5332   4.957   3.475   4.691  1.0250 -0.3889 -2.8113
 1776TIP3   OH2 5333   4.319   3.312   2.106 -0.1249  0.6062  0.3144
 1776TIP3    H1 5334   4.260   3.245   2.069 -0.7857  0.6166  1.2966
 1776TIP3    H2 5335   4.267   3.392   2.104 -0.6456  0.3804  2.2888
 1777TIP3   OH2 5336   0.367   4.691   3.580  0.0304 -0.4011  0.2362
 1777TIP3    H1 5337   0.289   4.738   3.553 -0.7932 -1.5682  0.5297
 1777TIP3    H2 5338   0.439   4.751   3.562 -0.9577  0.8270  0.2830
 1778TIP3   OH2 5339   0.664   5.618   5.173 -0.3324 -0.1055  0.2831
 1778TIP3    H1 5340   0.661   5.710   5.146 -1.3361 -0.6752 -1.7509
 1778TIP3    H2 5341   0.706   5.573   5.100 -0.1069 -1.3220  1.1267
 1779TIP3   OH2 5342   4.264   4.812   2.858  0.0919  0.3507 -0.3867
 1779TIP3    H1 5343   4.210   4.778   2.929 -0.1587  0.5473 -0.4792
 1779TIP3    H2 5344   4.238   4.904   2.851  0.0173  0.2982 -0.8203
 1780TIP3   OH2 5345   0.623   4.293   0.320 -0.2910  0.7172 -0.2683
 1780TIP3    H1 5346   0.534   4.259   0.315 -0.4912  1.2410 -0.4059
 1780TIP3    H2 5347   0.615   4.385   0.293  0.7631 -0.0223 -3.5687
 1781TIP3   OH2 5348   5.678   5.467   5.096  0.5472 -0.1003 -0.2466
 1781TIP3    H1 5349   5.600   5.455   5.042  0.1211 -1.3839  0.6157
 1781TIP3    H2 5350   5.748   5.486   5.033 -0.3077  0.3604 -1.0802
 1782TIP3   OH2 5351   0.996   0.852   0.550 -0.0723  0.1284  0.3395
 1782TIP3    H1 5352   1.014   0.761   0.573  1.5741  0.3371 -0.0091
 1782TIP3    H2 5353   1.012   0.901   0.630  1.5152  0.3731 -0.1000
 1783TIP3   OH2 5354   0.846   1.322   0.609 -0.2922  0.3183  0.2015
 1783TIP3    H1 5355   0.830   1.241   0.562  0.8602  0.0468  0.2403
 1783TIP3    H2 5356   0.772   1.379   0.586 -1.3506 -0.8767  0.5271
 1784TIP3   OH2 5357   4.439   3.050   0.276  0.3931 -0.1005  0.1110
 1784TIP3    H1 5358   4.520   3.022   0.234 -0.6383 -1.0146 -1.3583
 1784TIP3    H2 5359   4.373   2.988   0.246 -0.5126 -0.6365  2.8872
 1785TIP3   OH2 5360   6.097   2.156   0.813  0.1498  0.1027  0.1995
 1785TIP3    H1 5361   6.129   2.067   0.803  1.3446  0.5324  0.0343
 1785TIP3    H2 5362   6.163   2.211   0.771 -0.9470  1.0197 -0.4182
 1786TIP3   OH2 5363   2.374   3.299   3.880 -0.1364  0.6783 -0.2981
 1786TIP3    H1 5364   2.443   3.234   3.892  0.6457  1.6120  0.4360
 1786TIP3    H2 5365   2.294   3.255   3.910  0.0501 -0.5384 -1.5053
 1787TIP3   OH2 5366   0.107   0.160   0.047  0.7093  0.3885 -0.1300
 1787TIP3    H1 5367   0.032   0.117   0.088  0.2990  0.3329 -0.9066
 1787TIP3    H2 5368   0.132   0.100  -0.023  2.2810 -0.2014  0.8963
 1788TIP3   OH2 5369   3.168   4.192   2.394 -0.1229 -0.5847 -0.2374
 1788TIP3    H1 5370   3.232   4.138   2.440  1.0311  0.3753 -0.6286
 1788TIP3    H2 5371   3.209   4.210   2.310 -0.9602 -0.0165 -0.5338
 1789TIP3   OH2 5372   6.119   3.516   3.769 -0.0444 -0.8336  0.4869
 1789TIP3    H1 5373   6.211   3.494   3.784 -0.0314 -0.1038  1.5834
 1789TIP3    H2 5374   6.071   3.473   3.840 -0.2191  0.9945  1.5577
 1790TIP3   OH2 5375   4.131   3.095   2.703 -0.1589 -0.1580  0.1583
 1790TIP3    H1 5376   4.142   3.154   2.777  2.3883 -0.5033  0.1349
 1790TIP3    H2 5377   4.084   3.147   2.637  1.5932  1.7364  0.3056
 1791TIP3   OH2 5378   2.403   1.658   4.954  0.2243  0.2579 -0.2684
 1791TIP3    H1 5379   2.484   1.673   4.905  1.5145 -1.7122  1.1235
 1791TIP3    H2 5380   2.355   1.594   4.901 -0.6375  1.6813 -1.2655
 1792TIP3   OH2 5381   1.725   4.529   2.011  0.1802  0.5960 -0.1081
 1792TIP3    H1 5382   1.725   4.433   2.020  0.3996  0.4987 -0.9956
 1792TIP3    H2 5383   1.646   4.557   2.056 -0.7056 -0.1572 -1.1325
 1793TIP3   OH2 5384   0.636   5.732   3.754  0.4621  0.2153 -0.4985
 1793TIP3    H1 5385   0.604   5.642   3.746 -2.3813  1.0314  0.4191
 1793TIP3    H2 5386   0.604   5.776   3.675  2.4900  0.3238 -1.3254
 1794TIP3   OH2 5387   6.183   2.307   0.239 -0.0388  0.3577 -0.1160
 1794TIP3    H1 5388   6.146   2.231   0.193 -3.1761  2.4041 -1.3033
 1794TIP3    H2 5389   6.184   2.376   0.173  2.8801  1.4318  0.8880
 1795TIP3   OH2 5390   3.867   0.530   3.475 -0.2970 -0.3606 -0.3121
 1795TIP3    H1 5391   3.915   0.477   3.539  1.1502  2.5703  1.2225
 1795TIP3    H2 5392   3.930   0.596   3.447 -2.3182  1.2731 -1.2172
 1796TIP3   OH2 5393   5.019   1.486   1.740  0.7523 -0.1291  0.4458
 1796TIP3    H1 5394   4.986   1.454   1.824  1.4797 -0.4270  0.6247
 1796TIP3    H2 5395   4.981   1.427   1.675  0.2953  0.0208  0.5740
 1797TIP3   OH2 5396   1.793   5.146   1.309  0.0148 -0.4443 -0.2670
 1797TIP3    H1 5397   1.790   5.208   1.236 -1.2372 -0.0421  0.0999
 1797TIP3    H2 5398   1.714   5.165   1.360  0.1972 -1.5857  0.4809
 1798TIP3   OH2 5399   0.096   1.325   4.571  0.2586  0.1535 -0.2524
 1798TIP3    H1 5400   0.124   1.234   4.581  0.1059  0.0698 -0.5816
 1798TIP3    H2 5401   0.123   1.349   4.482 -1.5983 -0.2438 -0.9509
 1799TIP3   OH2 5402   5.749   0.618   5.046 -0.1538 -0.4528 -0.6649
 1799TIP3    H1 5403   5.695   0.678   5.098  1.3391 -0.5186  1.0694
 1799TIP3    H2 5404   5.814   0.673   5.004 -0.1485 -0.6223 -0.8823
 1800TIP3   OH2 5405   5.214   3.359   0.457 -0.2130 -0.2380  0.5933
 1800TIP3    H1 5406   5.240   3.298   0.526 -1.2840 -0.5666  0.7125
 1800TIP3    H2 5407   5.119   3.356   0.456 -0.3946  2.4228  1.5161
 1801TIP3   OH2 5408   4.018   0.657   2.627 -0.3450  0.0663  0.0511
 1801TIP3    H1 5409   4.108   0.641   2.654 -0.6444 -0.3022  0.8524
 1801TIP3    H2 5410   3.982   0.570   2.610 -1.2296 -0.0105  2.0073
 1802TIP3   OH2 5411   3.970   2.949   4.919  0.5728 -0.3414 -0.0940
 1802TIP3    H1 5412   3.965   2.853   4.922 -1.8635 -0.2529  0.3255
 1802TIP3    H2 5413   3.926   2.978   4.999 -1.3537  1.1455 -1.6053
 1803TIP3   OH2 5414   5.397   2.899   1.415 -0.3534  0.5122  0.0318
 1803TIP3    H1 5415   5.345   2.836   1.364 -0.5786  0.0963  0.7645
 1803TIP3    H2 5416   5.342   2.978   1.417 -1.4716 -0.2542  1.6801
 1804TIP3   OH2 5417   3.131   5.064   2.468  0.2807 -0.1377 -0.0263
 1804TIP3    H1 5418   3.191   5.127   2.508  1.4463 -1.0480 -0.2956
 1804TIP3    H2 5419   3.180   5.028   2.395 -0.9132 -0.3149 -0.7681
 1805TIP3   OH2 5420   2.550   1.604   4.238 -0.3973  0.0885  0.1018
 1805TIP3    H1 5421   2.457   1.622   4.225 -0.6971  0.0291  1.9321
 1805TIP3    H2 5422   2.591   1.690   4.238 -0.0908  0.0515 -2.6589
 1806TIP3   OH2 5423   1.427   5.539   3.401 -0.2248  0.9236  0.1676
 1806TIP3    H1 5424   1.463   5.516   3.315  0.0084 -1.2948  0.7763
 1806TIP3    H2 5425   1.359   5.473   3.416  0.1171  0.9313  1.9118
 1807TIP3   OH2 5426   5.064   4.328   4.412 -0.3708  0.4433 -0.0074
 1807TIP3    H1 5427   5.011   4.381   4.352 -0.8272 -0.4904 -0.4542
 1807TIP3    H2 5428   5.002   4.266   4.450 -0.2672  1.5431  2.1058
 1808TIP3   OH2 5429   3.806   2.472   2.347  0.0660 -0.5271 -0.1238
 1808TIP3    H1 5430   3.868   2.422   2.294  1.9286  2.0383 -0.5510
 1808TIP3    H2 5431   3.836   2.460   2.437  0.7066  0.0566 -0.2550
 1809TIP3   OH2 5432   4.738   3.075   2.296 -0.4856  0.3773 -0.3744
 1809TIP3    H1 5433   4.649   3.104   2.274 -1.2952  1.5959  3.6710
 1809TIP3    H2 5434   4.780   3.153   2.334  1.2292 -0.9310  0.5500
 1810TIP3   OH2 5435   4.590   1.305   2.566  0.2485  0.6738 -0.3426
 1810TIP3    H1 5436   4.527   1.355   2.516 -0.8213 -0.1447  0.1292
 1810TIP3    H2 5437   4.537   1.244   2.618  1.2051  1.9086  2.3124
 1811TIP3   OH2 5438   0.924   3.940   0.111 -1.0534 -0.3518 -0.0425
 1811TIP3    H1 5439   0.843   3.991   0.117  0.7611  2.7894 -0.0742
 1811TIP3    H2 5440   0.961   3.943   0.199  1.1252  2.2223 -0.9093
 1812TIP3   OH2 5441   5.205   0.740   0.432  0.3417  0.7349 -0.8094
 1812TIP3    H1 5442   5.197   0.680   0.358 -0.0893  0.4048 -0.5018
 1812TIP3    H2 5443   5.295   0.772   0.427  2.1920 -3.2786  1.5350
 1813TIP3   OH2 5444   1.099   5.329   1.480  0.1986  0.6822 -0.1457
 1813TIP3    H1 5445   1.112   5.384   1.557 -0.4301 -0.2164  0.6062
 1813TIP3    H2 5446   1.124   5.241   1.508 -2.3493 -0.1391 -0.1988
 1814TIP3   OH2 5447   3.108   1.242   3.871  0.0269  0.3689 -0.3820
 1814TIP3    H1 5448   3.148   1.228   3.957  0.0186 -0.4450 -0.5075
 1814TIP3    H2 5449   3.017   1.267   3.891 -0.6104 -1.9034 -0.1766
 1815TIP3   OH2 5450   5.242   2.746   0.151  0.7002 -0.5505  0.0209
 1815TIP3    H1 5451   5.209   2.836   0.145 -1.3438 -1.3485 -2.5186
 1815TIP3    H2 5452   5.315   2.743   0.090 -0.2226 -0.9670 -1.0844
 1816TIP3   OH2 5453   5.764   0.145   3.343  0.0898 -0.2229  0.0571
 1816TIP3    H1 5454   5.703   0.132   3.416 -0.9517  0.1167 -0.7258
 1816TIP3    H2 5455   5.832   0.079   3.357 -0.4105 -0.5582  1.0090
 1817TIP3   OH2 5456   6.069   1.187   1.551  0.2383  0.0245  0.3403
 1817TIP3    H1 5457   5.998   1.248   1.531  0.7891  0.2000 -1.2114
 1817TIP3    H2 5458   6.062   1.172   1.646 -0.3497  1.9349  0.6477
 1818TIP3   OH2 5459   0.487   1.945   0.479  0.0196  0.2109 -0.2756
 1818TIP3    H1 5460   0.505   2.004   0.406 -2.8982  0.6262 -0.7727
 1818TIP3    H2 5461   0.459   2.002   0.550  0.2905 -0.3881  0.3292
 1819TIP3   OH2 5462   2.662   3.295   2.274  0.4931 -0.3121  0.0869
 1819TIP3    H1 5463   2.757   3.286   2.271  1.1539  1.8581  5.0088
 1819TIP3    H2 5464   2.646   3.389   2.275 -1.7564 -0.6151 -0.4602
 1820TIP3   OH2 5465   3.394   5.821   2.239 -0.4742  0.3259 -0.6148
 1820TIP3    H1 5466   3.329   5.882   2.203 -0.9582 -0.0563 -0.4089
 1820TIP3    H2 5467   3.473   5.873   2.248 -1.0148  1.0666  0.0236
 1821TIP3   OH2 5468   2.989   3.688   2.088  0.2000 -0.2591  0.4103
 1821TIP3    H1 5469   3.044   3.644   2.153 -0.4766  0.4194  1.4581
 1821TIP3    H2 5470   2.915   3.722   2.137 -0.7179 -0.3716 -0.8438
 1822TIP3   OH2 5471   1.548   0.758   2.699 -0.4794  0.4837 -0.2632
 1822TIP3    H1 5472   1.493   0.687   2.665 -0.5080  0.5174 -0.2871
 1822TIP3    H2 5473   1.633   0.716   2.716 -0.3978  0.5150 -0.5889
 1823TIP3   OH2 5474   0.018   3.610   1.018 -0.0535 -0.0994 -0.0056
 1823TIP3    H1 5475   0.072   3.583   1.092  1.6036  0.9501 -0.7553
 1823TIP3    H2 5476  -0.022   3.692   1.047 -0.7437 -0.5436  0.3149
 1824TIP3   OH2 5477   1.751   3.787   3.956 -0.1000 -0.1877 -0.4571
 1824TIP3    H1 5478   1.660   3.765   3.974 -0.6008  1.6017 -0.6137
 1824TIP3    H2 5479   1.752   3.883   3.950  1.6007 -0.2272 -1.4918
 1825TIP3   OH2 5480   5.042   4.986   0.711  0.7465 -0.4341 -0.2548
 1825TIP3    H1 5481   5.057   4.923   0.640  0.0940 -0.2267 -0.5801
 1825TIP3    H2 5482   5.053   4.934   0.791  0.4787 -0.8985 -0.5173
 1826TIP3   OH2 5483   2.924   2.027   4.079 -0.3136  0.3651  0.7081
 1826TIP3    H1 5484   2.841   2.054   4.040 -0.2630  0.4843  0.6815
 1826TIP3    H2 5485   2.962   2.108   4.112 -0.5450  0.2118  1.3776
 1827TIP3   OH2 5486   3.613   0.855   3.202  0.6714  0.2844  0.1376
 1827TIP3    H1 5487   3.690   0.863   3.147  0.4304 -0.4082 -0.3281
 1827TIP3    H2 5488   3.568   0.939   3.194  0.4155  0.0597 -1.0928
 1828TIP3   OH2 5489   0.776   4.831   2.914  0.1844  0.0135  0.5180
 1828TIP3    H1 5490   0.871   4.816   2.914  0.0896 -0.5811  0.2416
 1828TIP3    H2 5491   0.745   4.791   2.833 -0.2475  0.5925  0.3909
 1829TIP3   OH2 5492   3.165   2.390   3.484 -0.1866  0.2899  0.0400
 1829TIP3    H1 5493   3.208   2.462   3.532 -1.1434  0.4112  0.7421
 1829TIP3    H2 5494   3.213   2.312   3.511  0.6869  0.6141 -0.5166
 1830TIP3   OH2 5495   4.757   0.035   0.434  0.7745  0.4269  0.3730
 1830TIP3    H1 5496   4.771   0.118   0.479  0.9648 -0.2004  1.5070
 1830TIP3    H2 5497   4.842  -0.009   0.437  0.4545 -0.1934  0.5829
 1831TIP3   OH2 5498   0.605   3.066   0.515 -0.1613  0.1942  0.0453
 1831TIP3    H1 5499   0.555   3.077   0.596 -1.7009  0.7359 -0.9270
 1831TIP3    H2 5500   0.637   3.154   0.495  1.7480 -0.2506  0.9690
 1832TIP3   OH2 5501   5.135   4.335   0.797  0.0092  0.3489  0.6574
 1832TIP3    H1 5502   5.087   4.418   0.794  0.4578  0.7220  2.4262
 1832TIP3    H2 5503   5.078   4.277   0.848 -0.6140 -0.6874 -1.1394
 1833TIP3   OH2 5504   1.012   5.951   2.388 -0.7393 -0.3106 -0.3320
 1833TIP3    H1 5505   1.016   5.858   2.408  1.0798 -0.1044  0.4717
 1833TIP3    H2 5506   1.069   5.962   2.312  0.8190  0.4101  0.8801
 1834TIP3   OH2 5507   0.247   1.667   0.751  0.6103  0.6271  0.2087
 1834TIP3    H1 5508   0.257   1.603   0.822  3.8689  0.2515 -0.4374
 1834TIP3    H2 5509   0.327   1.718   0.753  0.3665  1.2680 -2.5799
 1835TIP3   OH2 5510   3.458   2.405   1.836 -0.0720 -0.1164  0.4292
 1835TIP3    H1 5511   3.504   2.474   1.884  3.7337 -1.2090 -1.2209
 1835TIP3    H2 5512   3.465   2.328   1.892 -0.7801 -0.0835  0.5695
 1836TIP3   OH2 5513   2.736   2.964   2.598  0.0764 -0.6984 -0.0440
 1836TIP3    H1 5514   2.822   3.002   2.620 -0.0787 -0.1983 -0.2732
 1836TIP3    H2 5515   2.747   2.930   2.509 -1.0171  2.9002 -1.7461
 1837TIP3   OH2 5516   6.169   0.160   1.692 -0.5142 -0.2220  0.2840
 1837TIP3    H1 5517   6.173   0.099   1.618  2.3840 -0.3669  0.4658
 1837TIP3    H2 5518   6.229   0.230   1.669 -0.3936  0.2916  2.0119
 1838TIP3   OH2 5519   5.921   2.083   3.815 -0.0911  0.0100 -0.0433
 1838TIP3    H1 5520   5.851   2.064   3.878 -0.3596 -0.9281 -0.6039
 1838TIP3    H2 5521   5.893   2.039   3.735  0.6347  0.5247 -0.5907
 1839TIP3   OH2 5522   6.307   5.606   1.041 -0.3052 -0.0786  0.3781
 1839TIP3    H1 5523   6.271   5.518   1.050  0.7680 -0.5573  0.2142
 1839TIP3    H2 5524   6.244   5.663   1.085 -0.5940 -1.0403  1.2523
 1840TIP3   OH2 5525   0.328   1.568   3.517 -0.2734 -0.0728  0.2499
 1840TIP3    H1 5526   0.266   1.540   3.584 -0.7448 -1.7455 -0.8404
 1840TIP3    H2 5527   0.412   1.570   3.562 -0.9411  1.3855  1.5211
 1841TIP3   OH2 5528   2.730   1.442   1.714 -0.4437  0.0173 -0.3899
 1841TIP3    H1 5529   2.671   1.432   1.788  0.1333 -0.7630 -0.0179
 1841TIP3    H2 5530   2.810   1.397   1.741  0.0550  0.4088 -1.1743
 1842TIP3   OH2 5531   0.837   5.602   1.253  0.2120  0.0895 -0.0827
 1842TIP3    H1 5532   0.767   5.622   1.316  0.5044  0.3078  0.1738
 1842TIP3    H2 5533   0.834   5.507   1.244  1.9845 -0.3071  2.4169
 1843TIP3   OH2 5534   2.822   5.435   3.221 -0.7365  0.3658 -0.2347
 1843TIP3    H1 5535   2.795   5.382   3.296 -0.0225  0.0769 -0.1777
 1843TIP3    H2 5536   2.766   5.404   3.149  0.8103 -1.6898 -0.6377
 1844TIP3   OH2 5537   4.423   0.577   3.247  0.2461  0.4379 -0.8657
 1844TIP3    H1 5538   4.382   0.612   3.326  0.9919 -1.2450  0.3121
 1844TIP3    H2 5539   4.445   0.655   3.195 -2.7751  1.4844 -0.7713
 1845TIP3   OH2 5540   2.758   4.659   2.884 -0.1156 -0.2659  0.3086
 1845TIP3    H1 5541   2.846   4.630   2.860  0.7038  1.7073  0.7377
 1845TIP3    H2 5542   2.767   4.697   2.971 -1.8253 -1.8060  1.2210
 1846TIP3   OH2 5543   0.627   3.845   2.833  0.1257 -0.3286 -0.1098
 1846TIP3    H1 5544   0.712   3.832   2.792 -0.3026  0.6174 -1.3577
 1846TIP3    H2 5545   0.620   3.939   2.847 -0.6384 -0.4129  0.1517
 1847TIP3   OH2 5546   3.961   5.663   1.644  0.2217  0.2194  0.1287
 1847TIP3    H1 5547   3.891   5.672   1.709 -0.5182 -0.2535 -0.5899
 1847TIP3    H2 5548   4.023   5.602   1.684 -0.3078 -0.1930  0.3323
 1848TIP3   OH2 5549   1.496   4.213   0.086 -0.6281 -0.0916 -0.2163
 1848TIP3    H1 5550   1.538   4.133   0.055 -2.0878 -0.8200 -0.4298
 1848TIP3    H2 5551   1.444   4.243   0.012 -0.0667  1.0989 -0.1497
 1849TIP3   OH2 5552   1.880   2.641   0.604  0.4662  0.0353  0.3097
 1849TIP3    H1 5553   1.895   2.661   0.512 -1.9468 -1.2420 -0.4440
 1849TIP3    H2 5554   1.878   2.545   0.608  3.3133 -0.0735  2.2632
 1850TIP3   OH2 5555   6.076   2.680   3.493  0.5300  0.2102 -0.3318
 1850TIP3    H1 5556   6.049   2.673   3.585 -0.2434 -0.4006 -0.5914
 1850TIP3    H2 5557   6.161   2.637   3.490 -0.2500 -1.4278 -0.2184
 1851TIP3   OH2 5558   2.119   0.322   3.577  0.0676  0.0475  0.5431
 1851TIP3    H1 5559   2.043   0.350   3.526 -0.6615 -0.1831  1.4766
 1851TIP3    H2 5560   2.082   0.284   3.657  1.1813  0.4345  1.2684
 1852TIP3   OH2 5561   0.815   1.912   2.733 -0.4403 -0.2191  0.4973
 1852TIP3    H1 5562   0.852   1.871   2.811 -0.2309 -0.1803  0.4169
 1852TIP3    H2 5563   0.852   2.000   2.733 -0.2080 -0.3169  0.1897
 1853TIP3   OH2 5564   3.851   1.210   1.792 -0.0725  0.0939 -0.1430
 1853TIP3    H1 5565   3.861   1.120   1.762 -1.3528 -0.5117  1.1152
 1853TIP3    H2 5566   3.936   1.234   1.828  0.4497 -0.3862 -1.0343
 1854TIP3   OH2 5567   1.031   5.559   2.873  0.2766  0.2431  0.3091
 1854TIP3    H1 5568   1.065   5.610   2.800  2.4677 -1.4370  0.0428
 1854TIP3    H2 5569   1.018   5.471   2.837 -1.1386  0.0019  1.3179
 1855TIP3   OH2 5570   4.776   1.501   0.506  0.6818  0.0436 -0.4106
 1855TIP3    H1 5571   4.851   1.496   0.447 -0.0504 -0.1978 -1.3498
 1855TIP3    H2 5572   4.774   1.593   0.534  1.1076  0.1364 -0.6759
 1856TIP3   OH2 5573   5.660   3.337   2.125  0.0457  0.3366 -0.0617
 1856TIP3    H1 5574   5.629   3.327   2.035  1.7227  2.7579 -1.0126
 1856TIP3    H2 5575   5.669   3.248   2.158 -2.3602 -0.5847 -1.6139
 1857TIP3   OH2 5576   1.523   3.538   1.644  0.2734 -0.1039  0.0054
 1857TIP3    H1 5577   1.539   3.465   1.705 -1.7170 -0.9478 -0.4015
 1857TIP3    H2 5578   1.477   3.603   1.696 -0.0696 -0.1679 -0.2180
 1858TIP3   OH2 5579   3.806   1.959   2.497 -0.3045 -0.4096 -0.0147
 1858TIP3    H1 5580   3.829   1.960   2.590 -1.0984 -0.0738  0.1790
 1858TIP3    H2 5581   3.872   2.015   2.456  0.5041 -1.1554  0.2294
 1859TIP3   OH2 5582   5.157   0.884   1.059 -0.3671  0.1219 -0.7052
 1859TIP3    H1 5583   5.094   0.816   1.033 -1.5719  1.1718 -0.6714
 1859TIP3    H2 5584   5.135   0.902   1.151  0.8935 -0.4223 -0.2799
 1860TIP3   OH2 5585   6.123   3.477   4.341 -0.1392 -0.5537  0.2273
 1860TIP3    H1 5586   6.084   3.559   4.310  0.1498  0.5686  2.6169
 1860TIP3    H2 5587   6.155   3.434   4.262  0.5290  2.0672 -1.0192
 1861TIP3   OH2 5588   3.303   1.950   3.366  0.2368 -0.0329 -0.1407
 1861TIP3    H1 5589   3.338   1.875   3.415  0.5963 -1.0965 -1.9346
 1861TIP3    H2 5590   3.217   1.921   3.337  0.4067  0.2101 -0.9038
 1862TIP3   OH2 5591   0.597   0.050   2.306  0.4982  0.2623 -0.1455
 1862TIP3    H1 5592   0.586   0.095   2.390  0.0279  2.1015 -1.1184
 1862TIP3    H2 5593   0.510   0.018   2.284  0.3267  0.9571 -0.5223
 1863TIP3   OH2 5594   1.308   1.841   3.336  0.4091 -0.1921  0.8312
 1863TIP3    H1 5595   1.392   1.796   3.335  1.2053  1.2304  0.8172
 1863TIP3    H2 5596   1.330   1.934   3.324 -1.2794  0.0410 -0.9113
 1864TIP3   OH2 5597   5.266   5.036   1.576 -0.1716  0.0047  0.5543
 1864TIP3    H1 5598   5.244   5.071   1.662  0.6469 -0.1009  0.8038
 1864TIP3    H2 5599   5.300   4.948   1.593  1.8054  0.6865  0.3120
 1865TIP3   OH2 5600   3.980   2.426   0.563 -0.3349 -0.0853 -0.4638
 1865TIP3    H1 5601   4.030   2.442   0.643  1.3225 -1.0425 -1.2406
 1865TIP3    H2 5602   3.946   2.512   0.537  1.5517  0.7657 -0.2723
 1866TIP3   OH2 5603   5.030   5.862   2.192 -0.2030 -0.4313  0.8106
 1866TIP3    H1 5604   5.066   5.929   2.134 -0.2360 -1.0467  0.0791
 1866TIP3    H2 5605   4.959   5.906   2.238 -2.4309 -0.7990 -2.0244
 1867TIP3   OH2 5606   4.021   2.995   3.770 -0.0736 -0.5249 -0.0552
 1867TIP3    H1 5607   3.997   3.043   3.691  2.2697 -1.4279 -1.4224
 1867TIP3    H2 5608   4.063   3.061   3.826 -3.9634  0.7347  1.7538
 1868TIP3   OH2 5609   4.218   5.298   5.085  0.1100  0.1441  0.2702
 1868TIP3    H1 5610   4.165   5.305   5.164 -0.2108  0.2697  0.0451
 1868TIP3    H2 5611   4.308   5.314   5.115 -0.1482  1.4503  0.4068
 1869TIP3   OH2 5612   0.625   4.127   2.759 -0.2338  0.0174 -0.5423
 1869TIP3    H1 5613   0.702   4.126   2.702  0.1360  2.2197 -0.1697
 1869TIP3    H2 5614   0.604   4.220   2.769 -2.3232 -0.4830  0.2177
 1870TIP3   OH2 5615   1.137   4.095   1.541  0.4000 -0.2860 -0.2401
 1870TIP3    H1 5616   1.217   4.045   1.560 -0.6237 -2.0007 -0.2722
 1870TIP3    H2 5617   1.109   4.128   1.626  1.3565  0.6945 -0.2883
 1871TIP3   OH2 5618   4.571   3.355   4.191  0.3118  0.4903 -0.1834
 1871TIP3    H1 5619   4.551   3.448   4.185 -0.8288  0.3397  0.9562
 1871TIP3    H2 5620   4.647   3.343   4.135  0.6293  2.1528 -0.1407
 1872TIP3   OH2 5621   3.020   1.731   3.489 -0.2725 -0.3134 -0.0846
 1872TIP3    H1 5622   3.077   1.721   3.413  0.1705 -1.7037  0.4070
 1872TIP3    H2 5623   3.025   1.647   3.534  1.4477  1.1778  2.8165
 1873TIP3   OH2 5624   4.863   3.470   0.763 -0.3594 -0.1924  0.2051
 1873TIP3    H1 5625   4.823   3.398   0.712 -0.4326 -0.4233  0.5828
 1873TIP3    H2 5626   4.795   3.537   0.766 -1.0539 -0.9131  1.5442
 1874TIP3   OH2 5627   5.174   5.263   0.419  0.4345  0.5273  0.2030
 1874TIP3    H1 5628   5.224   5.317   0.357  1.3378  1.4593  1.6800
 1874TIP3    H2 5629   5.241   5.215   0.468 -0.3575 -2.4170 -1.3915
 1875TIP3   OH2 5630   2.032   0.255   4.984 -0.1345 -0.2630  0.3318
 1875TIP3    H1 5631   1.965   0.321   5.002  0.9082  1.2121 -0.9938
 1875TIP3    H2 5632   2.107   0.283   5.036  0.0173 -0.9666  0.5001
 1876TIP3   OH2 5633   1.939   2.383   0.426 -0.0979 -0.7997 -0.2819
 1876TIP3    H1 5634   1.931   2.287   0.427  1.7108 -0.9788  0.8317
 1876TIP3    H2 5635   1.989   2.404   0.504 -1.7721  1.2459  0.3341
 1877TIP3   OH2 5636   5.685   0.533   4.229  0.0071 -0.2146 -0.2175
 1877TIP3    H1 5637   5.602   0.489   4.213  0.5358 -1.8265  1.1520
 1877TIP3    H2 5638   5.733   0.526   4.146  0.6679 -3.7254  0.2934
 1878TIP3   OH2 5639   1.186   3.983   4.296 -0.0652 -0.2978 -0.1631
 1878TIP3    H1 5640   1.140   3.995   4.379 -0.1244  0.1478 -0.2589
 1878TIP3    H2 5641   1.201   3.888   4.290  0.0162 -0.3200  0.3941
 1879TIP3   OH2 5642   1.582   5.161   4.586 -0.2050  0.1132  0.4130
 1879TIP3    H1 5643   1.508   5.102   4.575 -1.0259  0.9705  1.1453
 1879TIP3    H2 5644   1.616   5.143   4.674  0.4177 -0.2104  0.1186
 1880TIP3   OH2 5645   0.855   1.351   2.029 -0.1366 -0.5821 -0.3042
 1880TIP3    H1 5646   0.927   1.406   2.060 -0.2318 -0.3869 -0.4224
 1880TIP3    H2 5647   0.800   1.339   2.106 -2.1975  2.7206 -1.0283
 1881TIP3   OH2 5648   0.475   3.021   1.177  0.2213  0.4120 -0.6171
 1881TIP3    H1 5649   0.462   2.937   1.220  1.7671  0.5541  0.1846
 1881TIP3    H2 5650   0.552   3.009   1.122 -1.0101  0.5938 -2.4834
 1882TIP3   OH2 5651   3.251   4.763   0.505  0.3155 -0.3104  0.0006
 1882TIP3    H1 5652   3.315   4.833   0.502  0.2693 -0.2818 -2.2697
 1882TIP3    H2 5653   3.207   4.767   0.420 -2.0861 -0.8954  1.1253
 1883TIP3   OH2 5654   2.963   0.836   2.314  0.0733  0.4877  0.3446
 1883TIP3    H1 5655   2.985   0.815   2.223  1.8364  0.1889  0.7848
 1883TIP3    H2 5656   2.902   0.767   2.341  0.6225 -0.2307 -0.2188
 1884TIP3   OH2 5657   5.422   0.044   3.938 -0.5888 -0.4812 -0.2788
 1884TIP3    H1 5658   5.330   0.034   3.962 -0.5467  1.6671  1.0334
 1884TIP3    H2 5659   5.440  -0.032   3.883 -2.3145 -2.5801  1.8304
 1885TIP3   OH2 5660   1.887   2.720   0.350 -0.3178 -0.1246  0.3386
 1885TIP3    H1 5661   1.838   2.796   0.319  1.5695  1.4608  1.0824
 1885TIP3    H2 5662   1.910   2.672   0.270 -2.7319 -0.7657 -0.0488
 1886TIP3   OH2 5663   4.541   2.758   4.770  0.3922  0.1327 -0.2556
 1886TIP3    H1 5664   4.555   2.679   4.822  0.6011  0.4134  0.1190
 1886TIP3    H2 5665   4.532   2.726   4.680 -0.4632 -0.4041  0.0050
 1887TIP3   OH2 5666   0.174   2.283   4.880 -0.3798 -0.6984 -0.6982
 1887TIP3    H1 5667   0.177   2.259   4.972 -3.3169  1.0488 -0.0269
 1887TIP3    H2 5668   0.109   2.223   4.842  0.5118 -1.1417 -1.5559
 1888TIP3   OH2 5669   2.030   4.424   0.507 -0.4234 -0.5758 -0.1443
 1888TIP3    H1 5670   1.998   4.448   0.594  0.7628 -0.7904  0.3692
 1888TIP3    H2 5671   2.051   4.331   0.514  0.5295 -0.3888 -0.3898
 1889TIP3   OH2 5672   3.734   4.099   3.114  0.1515  0.1973  0.2097
 1889TIP3    H1 5673   3.727   4.010   3.080  0.2512  0.6282 -0.9908
 1889TIP3    H2 5674   3.828   4.109   3.134 -0.1337 -0.5775  2.1654
 1890TIP3   OH2 5675   5.650   3.493   0.155  0.6026  0.3865  0.2761
 1890TIP3    H1 5676   5.720   3.445   0.199 -0.5023 -1.6971 -0.1250
 1890TIP3    H2 5677   5.587   3.513   0.225 -0.2838 -1.3102 -0.0031
 1891TIP3   OH2 5678   2.131   0.497   1.942 -0.5380  0.2427 -0.2750
 1891TIP3    H1 5679   2.040   0.493   1.912 -0.3563 -0.8619 -0.6846
 1891TIP3    H2 5680   2.182   0.460   1.871  0.0608 -0.8153  0.6774
 1892TIP3   OH2 5681   2.876   0.282   3.315  0.2141  0.2951  0.0992
 1892TIP3    H1 5682   2.814   0.220   3.352 -0.3144 -0.5400 -2.0123
 1892TIP3    H2 5683   2.837   0.368   3.331 -0.2551 -0.0655  0.9254
 1893TIP3   OH2 5684   1.452   0.229   0.195 -0.3114  0.3473 -0.4550
 1893TIP3    H1 5685   1.531   0.177   0.180 -0.2633 -0.5326  2.2298
 1893TIP3    H2 5686   1.380   0.171   0.171 -0.2008 -0.2525  0.6042
 1894TIP3   OH2 5687   4.571   0.865   3.662  0.1436 -0.2104 -0.4011
 1894TIP3    H1 5688   4.581   0.858   3.567  0.3031  0.3132 -0.4270
 1894TIP3    H2 5689   4.481   0.895   3.675 -0.2916 -1.5034 -0.3245
 1895TIP3   OH2 5690   5.626   5.188   3.436  0.8098 -0.1942  0.2950
 1895TIP3    H1 5691   5.697   5.160   3.495  1.5192  1.0064  0.0370
 1895TIP3    H2 5692   5.669   5.244   3.372 -0.5660  1.7303  0.9603
 1896TIP3   OH2 5693   1.519   1.685   2.407 -0.4014  1.2061 -0.0022
 1896TIP3    H1 5694   1.460   1.706   2.479 -1.9518 -0.3778 -0.7315
 1896TIP3    H2 5695   1.462   1.675   2.331  0.2925 -3.1274 -0.2051
 1897TIP3   OH2 5696   3.061   4.620   2.897 -0.2500 -0.3759 -0.5845
 1897TIP3    H1 5697   3.149   4.653   2.913  0.1772 -1.8599  0.3583
 1897TIP3    H2 5698   3.073   4.527   2.878 -1.7057 -1.1355  1.6978
 1898TIP3   OH2 5699   4.976   2.064   1.316 -0.0983  0.5767 -0.2616
 1898TIP3    H1 5700   4.913   2.019   1.260  1.3880 -0.6963 -0.9702
 1898TIP3    H2 5701   5.061   2.047   1.276  0.7534  2.0570  0.8010
 1899TIP3   OH2 5702   4.456   0.448   4.714  0.3084  0.6345 -0.0626
 1899TIP3    H1 5703   4.432   0.374   4.771 -2.0172  1.6811  0.4492
 1899TIP3    H2 5704   4.407   0.433   4.634  0.7961  1.0010 -0.4315
 1900TIP3   OH2 5705   5.493   3.275   0.852  0.0120 -0.2437  0.2998
 1900TIP3    H1 5706   5.423   3.287   0.917  0.2364 -0.5077  0.5970
 1900TIP3    H2 5707   5.493   3.357   0.802  1.0734  0.7506  1.8435
 1901TIP3   OH2 5708   2.263   4.821   2.119  0.5103  0.2360  0.3508
 1901TIP3    H1 5709   2.203   4.774   2.176  0.2488  0.0184 -0.0913
 1901TIP3    H2 5710   2.242   4.913   2.131  0.2152  0.1704  0.3358
 1902TIP3   OH2 5711   1.750   1.566   3.183 -0.2085  0.5687  0.3425
 1902TIP3    H1 5712   1.804   1.487   3.191  1.6562  1.7453 -0.0406
 1902TIP3    H2 5713   1.678   1.540   3.126  0.4269 -0.8246  0.1362
 1903TIP3   OH2 5714   5.320   4.249   3.390 -0.1051  0.1395  0.2845
 1903TIP3    H1 5715   5.321   4.165   3.436  1.2446 -0.5456 -0.9175
 1903TIP3    H2 5716   5.227   4.273   3.386 -0.7412 -2.2111 -0.9306
 1904TIP3   OH2 5717   4.996   4.156   5.179 -0.3640 -0.0124 -0.2159
 1904TIP3    H1 5718   4.967   4.184   5.093 -0.5767  2.0574  0.4768
 1904TIP3    H2 5719   4.952   4.072   5.194  0.2961 -0.8070 -2.4029
 1905TIP3   OH2 5720   1.782   0.497   3.237 -0.2150  0.3516  0.7331
 1905TIP3    H1 5721   1.867   0.456   3.219 -1.6774 -1.9197 -1.7276
 1905TIP3    H2 5722   1.763   0.473   3.328  1.5617  0.5815  1.2078
 1906TIP3   OH2 5723   0.525   4.827   0.110 -0.6719 -0.3934 -0.1109
 1906TIP3    H1 5724   0.490   4.835   0.199 -2.3040 -3.3073 -0.3576
 1906TIP3    H2 5725   0.472   4.888   0.058 -0.4514  0.5289  0.7240
 1907TIP3   OH2 5726   5.142   2.833   4.816  0.8627 -0.3953  0.6347
 1907TIP3    H1 5727   5.213   2.893   4.796  0.2246 -0.3379 -1.7629
 1907TIP3    H2 5728   5.185   2.749   4.833  1.5912  0.0450  0.9823
 1908TIP3   OH2 5729   5.012   0.037   2.757 -0.1977 -0.8343 -1.0206
 1908TIP3    H1 5730   4.939   0.010   2.813  0.0497 -0.0112 -0.2738
 1908TIP3    H2 5731   5.020   0.131   2.773  0.2983 -0.7030 -1.9603
 1909TIP3   OH2 5732   4.926   0.765   4.088 -0.4900  0.7427  0.1759
 1909TIP3    H1 5733   4.859   0.709   4.050  0.1159 -0.2033  0.4762
 1909TIP3    H2 5734   5.000   0.758   4.028 -0.2712  0.9077  0.4255
 1910TIP3   OH2 5735   1.432   0.293   1.919  0.4273  0.0507  0.2925
 1910TIP3    H1 5736   1.459   0.360   1.982 -1.6966  0.3569  0.9324
 1910TIP3    H2 5737   1.414   0.342   1.838  1.2919 -0.0951  0.0029
 1911TIP3   OH2 5738   3.020   3.138   1.149  0.1221 -0.2854 -0.5585
 1911TIP3    H1 5739   3.017   3.051   1.110 -3.3527 -0.2728 -0.6182
 1911TIP3    H2 5740   2.957   3.135   1.221 -0.8524  2.4275 -1.1729
 1912TIP3   OH2 5741   4.532   3.786   4.371 -0.2512  0.2611 -0.3144
 1912TIP3    H1 5742   4.474   3.846   4.419 -0.4506  1.4297 -1.9407
 1912TIP3    H2 5743   4.591   3.752   4.438 -0.7749  1.5238  0.8416
 1913TIP3   OH2 5744   5.849   4.833   1.968  0.8759  0.3417  0.3634
 1913TIP3    H1 5745   5.807   4.865   2.048  0.2851 -0.7116  0.4944
 1913TIP3    H2 5746   5.930   4.792   1.998 -0.0070 -1.2991  0.6255
 1914TIP3   OH2 5747   4.183   5.257   0.090  0.2125 -0.3740  0.0171
 1914TIP3    H1 5748   4.248   5.325   0.077 -0.6532  0.5135  0.2271
 1914TIP3    H2 5749   4.161   5.227   0.001 -0.5093  0.6998 -0.1821
 1915TIP3   OH2 5750   0.355   3.472   4.864  0.4767 -0.2799  0.0124
 1915TIP3    H1 5751   0.400   3.407   4.918  2.3054 -0.0015 -1.1188
 1915TIP3    H2 5752   0.306   3.420   4.800  0.0037 -0.5671  0.5984
 1916TIP3   OH2 5753   4.026   5.511   4.739 -0.2567  0.1785 -0.1298
 1916TIP3    H1 5754   4.103   5.552   4.700 -0.3287  1.0666  0.6470
 1916TIP3    H2 5755   3.952   5.545   4.688 -0.2630  0.5559  0.1255
 1917TIP3   OH2 5756   3.994   3.821   0.696  0.7434 -0.2687 -0.0564
 1917TIP3    H1 5757   3.958   3.900   0.736 -0.5467 -0.0951 -1.4777
 1917TIP3    H2 5758   3.974   3.751   0.758  1.3204  0.4015  0.9102
 1918TIP3   OH2 5759   3.203   0.116   3.862  0.1065  0.1126  0.1415
 1918TIP3    H1 5760   3.287   0.076   3.839  0.0119  0.5603 -1.0350
 1918TIP3    H2 5761   3.225   0.181   3.929  0.4802 -0.7729  0.9014
 1919TIP3   OH2 5762   1.771   3.060   3.101 -0.1634  0.3934 -0.5171
 1919TIP3    H1 5763   1.781   2.976   3.056 -1.3024  1.0560 -2.0864
 1919TIP3    H2 5764   1.852   3.107   3.082  1.2372 -0.8719  1.7410
 1920TIP3   OH2 5765   1.725   0.159   0.241 -0.1832 -0.8125  0.3696
 1920TIP3    H1 5766   1.766   0.245   0.240 -0.3885 -0.7173  0.1064
 1920TIP3    H2 5767   1.771   0.111   0.311 -0.8913 -0.0857  1.3567
 1921TIP3   OH2 5768   4.331   3.127   4.139 -0.4706  0.2711 -0.1013
 1921TIP3    H1 5769   4.317   3.056   4.202  1.2955  1.2389  1.4785
 1921TIP3    H2 5770   4.319   3.207   4.190  2.4538  1.1045 -0.5441
 1922TIP3   OH2 5771   0.878   0.079   4.945 -0.2204  0.2334  0.2072
 1922TIP3    H1 5772   0.799   0.031   4.970  0.1759  0.0031  1.0894
 1922TIP3    H2 5773   0.941   0.011   4.923 -0.0067  0.3880  0.3393
 1923TIP3   OH2 5774   3.767   3.093   3.907  0.6488  0.1199 -0.3452
 1923TIP3    H1 5775   3.765   3.084   4.002 -1.1492 -0.0412 -0.3658
 1923TIP3    H2 5776   3.825   3.023   3.878 -0.9213 -1.6155  0.4945
 1924TIP3   OH2 5777   1.972   2.928   3.412  0.0806 -0.1135  0.1813
 1924TIP3    H1 5778   2.041   2.940   3.347 -0.9354  0.6296 -0.7941
 1924TIP3    H2 5779   1.952   3.016   3.443  0.5596 -0.4567  1.5370
 1925TIP3   OH2 5780   4.144   0.425   4.585  0.3026  0.2394  0.4974
 1925TIP3    H1 5781   4.227   0.408   4.541 -1.7022 -3.4915 -2.3803
 1925TIP3    H2 5782   4.104   0.496   4.535 -0.0260 -0.8998 -0.8962
 1926TIP3   OH2 5783   2.318   3.022   2.711  0.5290  0.2477 -0.0679
 1926TIP3    H1 5784   2.263   3.099   2.725  0.9098  0.6387 -0.6868
 1926TIP3    H2 5785   2.292   2.961   2.780 -1.1010  0.1865 -0.6945
 1927TIP3   OH2 5786   2.893   2.351   1.547 -0.1503  0.1158 -0.0170
 1927TIP3    H1 5787   2.979   2.348   1.506  0.5725 -0.2079  1.4554
 1927TIP3    H2 5788   2.873   2.444   1.554  0.7872  0.2665  0.9933
 1928TIP3   OH2 5789   4.460   4.983   1.202  0.7042 -0.6796  0.0487
 1928TIP3    H1 5790   4.381   4.948   1.162  1.3660 -0.5274 -1.4305
 1928TIP3    H2 5791   4.429   5.053   1.259 -0.2989 -1.2307  0.1962
 1929TIP3   OH2 5792   0.309   3.641   4.563  0.2459 -0.0558 -0.1991
 1929TIP3    H1 5793   0.224   3.597   4.568 -0.2254  0.9026  0.4989
 1929TIP3    H2 5794   0.373   3.570   4.570 -0.5012 -0.7224 -0.0061
 1930TIP3   OH2 5795   2.777   4.923   0.761 -0.1108  0.1165 -0.2126
 1930TIP3    H1 5796   2.854   4.960   0.803  0.2986  0.0450 -0.8784
 1930TIP3    H2 5797   2.777   4.831   0.786 -0.1066  0.1642 -0.0345
 1931TIP3   OH2 5798   2.312   3.629   5.092 -0.6543  0.0379 -0.4736
 1931TIP3    H1 5799   2.249   3.690   5.130  0.4488  0.5632  0.5668
 1931TIP3    H2 5800   2.295   3.546   5.137  0.6365  0.6506  1.2823
 1932TIP3   OH2 5801   3.315   2.675   1.981  0.1459  0.7545 -0.9801
 1932TIP3    H1 5802   3.303   2.763   1.946  1.1987  0.6966 -1.5385
 1932TIP3    H2 5803   3.409   2.659   1.972 -0.2003 -0.9058 -2.0388
 1933TIP3   OH2 5804   3.952   1.116   2.648  0.2010  0.1160 -0.3120
 1933TIP3    H1 5805   4.007   1.184   2.609 -0.0500  1.0040  0.8484
 1933TIP3    H2 5806   3.972   1.038   2.597 -0.3469  1.2772 -2.4346
 1934TIP3   OH2 5807   5.279   3.371   4.291 -0.0866 -0.0111 -0.1623
 1934TIP3    H1 5808   5.211   3.319   4.248  1.7834 -0.8067 -2.3757
 1934TIP3    H2 5809   5.266   3.460   4.260  0.6635 -0.4127 -1.7220
 1935TIP3   OH2 5810   3.649   5.298   1.634 -0.0323  0.5547  0.0017
 1935TIP3    H1 5811   3.596   5.373   1.660 -1.8542 -1.1444  1.4632
 1935TIP3    H2 5812   3.705   5.280   1.710  0.9030  0.8375 -0.6051
 1936TIP3   OH2 5813   2.244   2.077   2.876 -0.2664 -0.0692 -0.3175
 1936TIP3    H1 5814   2.199   1.992   2.874  0.4341 -0.5279  1.5155
 1936TIP3    H2 5815   2.246   2.101   2.968  3.3165 -0.1169 -0.2668
 1937TIP3   OH2 5816   5.796   4.408   3.215  0.2449  0.1468  0.3503
 1937TIP3    H1 5817   5.704   4.420   3.190  0.5788  1.9621 -0.1699
 1937TIP3    H2 5818   5.810   4.473   3.284  0.5796 -1.6390  2.0603
 1938TIP3   OH2 5819   0.186   2.792   2.261  0.6580 -0.0855  0.2572
 1938TIP3    H1 5820   0.246   2.816   2.190 -0.9010  1.2199 -0.6912
 1938TIP3    H2 5821   0.196   2.697   2.269  0.5215 -0.3669 -2.0941
 1939TIP3   OH2 5822   2.202   4.299   0.164  0.0468  0.2172  0.4143
 1939TIP3    H1 5823   2.118   4.336   0.187  0.0420  1.1018 -0.9426
 1939TIP3    H2 5824   2.193   4.271   0.072  1.1775  0.2029  0.2826
 1940TIP3   OH2 5825   4.219   3.296   3.204  0.2742  0.4854  0.7501
 1940TIP3    H1 5826   4.165   3.267   3.278  0.3457  0.8535  0.9501
 1940TIP3    H2 5827   4.307   3.264   3.224  0.2075  0.2245  0.6195
 1941TIP3   OH2 5828   3.387   1.823   1.042 -0.4712 -0.0746 -0.0743
 1941TIP3    H1 5829   3.309   1.774   1.067  0.1448 -2.1351 -1.8982
 1941TIP3    H2 5830   3.357   1.881   0.971 -0.6685  0.3921  0.3809
 1942TIP3   OH2 5831   1.997   3.967   4.560  0.0737 -0.4434  0.2560
 1942TIP3    H1 5832   2.090   3.951   4.548  0.3789  0.2187  1.5694
 1942TIP3    H2 5833   1.956   3.930   4.482  1.2647 -2.2438  0.4263
 1943TIP3   OH2 5834   5.311   0.085   0.915  0.2445 -0.2133 -0.2375
 1943TIP3    H1 5835   5.361   0.004   0.921  0.3774 -0.3430 -2.5335
 1943TIP3    H2 5836   5.226   0.058   0.881  0.5596  0.6821 -1.8085
 1944TIP3   OH2 5837   3.922   4.955   2.178  0.2487  0.0532 -0.1840
 1944TIP3    H1 5838   3.977   4.890   2.222 -0.0431 -0.4870 -0.6122
 1944TIP3    H2 5839   3.837   4.913   2.170  0.2943  0.1492 -1.2515
 1945TIP3   OH2 5840   3.139   0.638   4.191 -0.4843 -0.6393 -0.1072
 1945TIP3    H1 5841   3.052   0.596   4.194  0.1016 -1.9889 -1.0807
 1945TIP3    H2 5842   3.196   0.576   4.236  0.2236 -0.3964 -0.6609
 1946TIP3   OH2 5843   5.513   1.559   1.971  0.5176  0.3478  0.4884
 1946TIP3    H1 5844   5.596   1.604   1.954  0.3004  0.3346 -0.6849
 1946TIP3    H2 5845   5.449   1.629   1.979  0.2021  0.2982 -1.2121
 1947TIP3   OH2 5846   5.550   0.247   0.594  0.4386 -0.6753 -0.3058
 1947TIP3    H1 5847   5.512   0.303   0.527  2.1190 -0.2991 -0.9844
 1947TIP3    H2 5848   5.577   0.307   0.664  0.5589 -0.8332 -0.2145
 1948TIP3   OH2 5849   1.872   3.418   3.728  0.1803 -0.5282 -0.2286
 1948TIP3    H1 5850   1.826   3.381   3.803 -1.5365 -0.3496 -1.1544
 1948TIP3    H2 5851   1.847   3.511   3.727  2.3942  0.1513  0.5554
 1949TIP3   OH2 5852   4.584   4.198   3.707  0.1066  0.5442 -0.2179
 1949TIP3    H1 5853   4.519   4.262   3.677  0.2894 -0.2109 -2.4184
 1949TIP3    H2 5854   4.561   4.118   3.660  1.2211 -0.3848  0.7891
 1950TIP3   OH2 5855   0.514   5.880   2.461  0.2088  0.2484  0.1050
 1950TIP3    H1 5856   0.498   5.847   2.372 -1.1060  0.2708  0.3103
 1950TIP3    H2 5857   0.469   5.817   2.518 -0.2538  1.0589  0.6547
 1951TIP3   OH2 5858   3.011   2.246   4.467 -0.0202 -0.5251  0.7689
 1951TIP3    H1 5859   2.948   2.175   4.454 -0.9261 -0.3923  3.6143
 1951TIP3    H2 5860   3.085   2.203   4.512  1.0783 -0.3006 -0.7630
 1952TIP3   OH2 5861   3.676   0.121   3.157 -0.2681 -0.0954  0.1221
 1952TIP3    H1 5862   3.725   0.179   3.215  1.8288  0.9668 -2.4870
 1952TIP3    H2 5863   3.639   0.179   3.091 -0.7582 -1.4496 -0.8373
 1953TIP3   OH2 5864   2.555   0.033   2.858 -0.1223 -0.3667  0.2200
 1953TIP3    H1 5865   2.646   0.056   2.873 -0.4292 -0.2629  2.2368
 1953TIP3    H2 5866   2.553  -0.063   2.867 -0.2797 -0.3245  0.6577
 1954TIP3   OH2 5867   0.476   4.730   1.506 -0.2514  0.4466 -0.0263
 1954TIP3    H1 5868   0.398   4.772   1.542 -0.6702 -0.4577  0.1502
 1954TIP3    H2 5869   0.478   4.756   1.414 -0.6504  0.6270  0.0161
 1955TIP3   OH2 5870   4.737   3.241   1.352 -0.0840  0.4651 -0.2709
 1955TIP3    H1 5871   4.724   3.286   1.436  0.8633 -0.4467  0.3765
 1955TIP3    H2 5872   4.654   3.254   1.306 -1.4128 -0.7797  1.6435
 1956TIP3   OH2 5873   3.084   1.635   2.989 -0.3825 -0.4408 -0.4594
 1956TIP3    H1 5874   3.020   1.619   2.920  0.0436  0.2835 -1.0378
 1956TIP3    H2 5875   3.167   1.649   2.942 -0.1147  0.1950  0.1877
 1957TIP3   OH2 5876   4.416   1.113   2.473 -0.1399 -0.1104 -0.0666
 1957TIP3    H1 5877   4.354   1.055   2.517  0.1477  0.1625  0.7120
 1957TIP3    H2 5878   4.362   1.187   2.443 -0.1807  0.1842  0.7131
 1958TIP3   OH2 5879   6.284   0.694   1.002  0.4216 -0.2229 -0.5527
 1958TIP3    H1 5880   6.220   0.710   1.072  0.7233 -0.8217 -0.1240
 1958TIP3    H2 5881   6.349   0.636   1.043  1.2872  0.4472 -0.9501
 1959TIP3   OH2 5882   5.562   4.311   0.076 -0.3474 -0.2812 -0.3936
 1959TIP3    H1 5883   5.634   4.342   0.131 -0.4041  1.3629 -1.1642
 1959TIP3    H2 5884   5.599   4.237   0.027  0.0584 -0.9909  0.9371
 1960TIP3   OH2 5885   3.325   4.402   1.107  0.1666  0.6688  0.5797
 1960TIP3    H1 5886   3.401   4.445   1.067  0.6894  0.6763  1.5630
 1960TIP3    H2 5887   3.294   4.464   1.173  1.1952 -0.6071  2.3343
 1961TIP3   OH2 5888   4.812   3.288   3.592  0.1226 -0.0458  0.0642
 1961TIP3    H1 5889   4.885   3.227   3.582  1.4266  1.6196 -1.2481
 1961TIP3    H2 5890   4.843   3.352   3.656  0.0762  0.9885 -0.9055
 1962TIP3   OH2 5891   3.474   3.539   3.017  0.2790 -0.3891  0.0160
 1962TIP3    H1 5892   3.478   3.581   2.931 -1.6475  0.3299  0.2260
 1962TIP3    H2 5893   3.498   3.607   3.079  0.2418 -0.4953  0.1484
 1963TIP3   OH2 5894   5.105   3.349   3.574 -0.1715  0.4002 -0.0771
 1963TIP3    H1 5895   5.089   3.326   3.482 -0.5100  1.4322 -0.2882
 1963TIP3    H2 5896   5.191   3.390   3.573 -0.1677  0.3938  0.0666
 1964TIP3   OH2 5897   4.735   5.463   1.936 -0.2584  0.3458 -0.6135
 1964TIP3    H1 5898   4.641   5.475   1.927 -0.2181 -0.2772 -2.1439
 1964TIP3    H2 5899   4.768   5.461   1.846  1.3344  1.3711 -0.0942
 1965TIP3   OH2 5900   0.956   3.875   1.782  0.1199 -0.4439 -0.5899
 1965TIP3    H1 5901   0.922   3.904   1.698 -0.1896 -2.4210 -1.1956
 1965TIP3    H2 5902   1.025   3.938   1.803 -1.2764  1.3754 -1.1988
 1966TIP3   OH2 5903   1.891   5.698   3.558 -0.2718 -0.3969  0.5083
 1966TIP3    H1 5904   1.829   5.677   3.488  0.2318 -1.8816  0.4934
 1966TIP3    H2 5905   1.905   5.793   3.549 -0.9872 -0.3883 -0.7475
 1967TIP3   OH2 5906   6.159   4.660   4.884  0.5179 -0.1324  0.3040
 1967TIP3    H1 5907   6.117   4.596   4.827 -0.7529  3.6668 -3.5510
 1967TIP3    H2 5908   6.252   4.636   4.883  0.0728 -2.0236 -0.7489
 1968TIP3   OH2 5909   5.666   0.391   3.658  0.4072 -0.4792  0.0882
 1968TIP3    H1 5910   5.588   0.337   3.650  0.8816 -1.2819  0.7574
 1968TIP3    H2 5911   5.632   0.480   3.670 -0.3965 -0.7714  0.0260
 1969TIP3   OH2 5912   3.390   1.057   1.944  0.9721 -0.6281 -0.5261
 1969TIP3    H1 5913   3.323   1.091   1.884  1.4827  1.7957  0.1709
 1969TIP3    H2 5914   3.469   1.105   1.921  1.6930 -1.1653  0.7242
 1970TIP3   OH2 5915   2.540   0.162   2.530 -0.4612 -0.4164 -0.2286
 1970TIP3    H1 5916   2.478   0.129   2.595  0.5747 -1.2235  0.3744
 1970TIP3    H2 5917   2.568   0.084   2.482 -1.1650  0.1626 -1.6227
 1971TIP3   OH2 5918   1.815   1.868   1.760  0.0545 -0.5413  0.1087
 1971TIP3    H1 5919   1.808   1.840   1.852 -2.3041  0.7377  0.4100
 1971TIP3    H2 5920   1.730   1.847   1.722  0.6117 -0.0609 -1.5046
 1972TIP3   OH2 5921   0.351   0.450   4.257  0.4963  0.2992 -0.4259
 1972TIP3    H1 5922   0.312   0.487   4.178 -0.2384 -1.2814 -0.8320
 1972TIP3    H2 5923   0.379   0.526   4.308 -0.7960  1.4010 -1.3043
 1973TIP3   OH2 5924   1.998   0.845   1.826  0.2788 -0.1885 -0.0234
 1973TIP3    H1 5925   2.031   0.836   1.737 -1.2372 -0.0625 -0.6348
 1973TIP3    H2 5926   1.907   0.874   1.815  0.3688  0.8447  1.5835
 1974TIP3   OH2 5927   1.032   2.788   0.722  0.5356  0.1756 -0.6499
 1974TIP3    H1 5928   1.108   2.769   0.667  0.2742  0.5445 -1.1410
 1974TIP3    H2 5929   1.007   2.878   0.700 -1.6230 -0.7471 -2.4503
 1975TIP3   OH2 5930   2.463   1.072   2.412 -0.8867 -0.3145  0.4471
 1975TIP3    H1 5931   2.417   1.089   2.330  1.5291 -1.1419 -1.1907
 1975TIP3    H2 5932   2.527   1.142   2.419 -1.0363 -0.2792  1.6304
 1976TIP3   OH2 5933   6.131   2.229   3.903  0.2745 -0.2516 -0.2815
 1976TIP3    H1 5934   6.062   2.179   3.859 -0.2206  0.5445 -0.4410
 1976TIP3    H2 5935   6.098   2.244   3.991 -0.4694  1.4174 -0.7977
 1977TIP3   OH2 5936   5.816   0.219   1.211  0.2322  0.0672 -0.7930
 1977TIP3    H1 5937   5.851   0.221   1.300  1.2632  0.4491 -1.1928
 1977TIP3    H2 5938   5.730   0.179   1.221 -0.5748  2.0178  0.6677
 1978TIP3   OH2 5939   1.293   0.159   3.075 -0.1225 -0.2201  0.6163
 1978TIP3    H1 5940   1.342   0.206   3.008  0.6436  0.2918  1.5047
 1978TIP3    H2 5941   1.314   0.205   3.157 -1.4284 -0.5058  1.1475
 1979TIP3   OH2 5942   6.067   5.121   1.056  0.4655 -0.2446  0.0713
 1979TIP3    H1 5943   6.109   5.205   1.076  1.0616  0.2426 -2.8135
 1979TIP3    H2 5944   5.975   5.134   1.079  0.9853  0.2293  2.1428
 1980TIP3   OH2 5945   6.082   5.055   3.015  0.6454 -0.3630 -0.3469
 1980TIP3    H1 5946   6.004   5.001   2.999 -0.0153  0.5594 -0.3742
 1980TIP3    H2 5947   6.048   5.144   3.019  1.6810  0.0339 -0.0940
 1981TIP3   OH2 5948   3.206   0.160   1.463  0.0605  0.0134 -0.4145
 1981TIP3    H1 5949   3.209   0.255   1.453  0.6871  0.2325  1.5232
 1981TIP3    H2 5950   3.136   0.145   1.527 -0.3849 -0.8827 -1.0895
 1982TIP3   OH2 5951   5.571   4.804   2.948 -0.0937  0.2050  0.1631
 1982TIP3    H1 5952   5.485   4.782   2.984 -0.8201  0.9378 -1.0615
 1982TIP3    H2 5953   5.633   4.757   3.004 -1.2829 -0.3666  1.0477
 1983TIP3   OH2 5954   0.663   1.367   0.194  0.2256  0.0524  0.1366
 1983TIP3    H1 5955   0.617   1.372   0.110  0.6521  1.1218 -0.0459
 1983TIP3    H2 5956   0.642   1.279   0.227 -0.7117 -0.0377 -0.6384
 1984TIP3   OH2 5957   1.120   2.856   1.109  0.5029 -0.2763 -0.4905
 1984TIP3    H1 5958   1.142   2.918   1.040  0.7285 -0.4420 -0.5712
 1984TIP3    H2 5959   1.165   2.889   1.187 -1.8966  1.4124  0.2914
 1985TIP3   OH2 5960   1.679   0.062   2.574 -0.0312  0.3243 -0.0884
 1985TIP3    H1 5961   1.625   0.079   2.651 -1.0849  1.4882 -1.0428
 1985TIP3    H2 5962   1.643   0.119   2.506 -0.8576 -2.5499 -2.2549
 1986TIP3   OH2 5963   0.444   1.339   4.547 -0.1965  0.6841  0.4048
 1986TIP3    H1 5964   0.380   1.309   4.482 -0.5147  1.6872  0.2397
 1986TIP3    H2 5965   0.463   1.430   4.522 -0.6305  1.2242  1.9283
 1987TIP3   OH2 5966   5.728   1.537   4.827 -0.2995  0.2400  0.7873
 1987TIP3    H1 5967   5.745   1.455   4.781 -0.7688  0.8298 -0.4960
 1987TIP3    H2 5968   5.739   1.605   4.760  1.5017  1.3699  2.1268
 1988TIP3   OH2 5969   2.340   1.306   2.026  0.2516  0.3715 -0.6966
 1988TIP3    H1 5970   2.426   1.270   2.006 -0.0900 -0.9043  0.0293
 1988TIP3    H2 5971   2.340   1.318   2.121 -0.9729 -1.3707 -0.4326
 1989TIP3   OH2 5972   4.171   2.665   3.017  0.6035 -0.4687 -0.4320
 1989TIP3    H1 5973   4.224   2.600   3.062  1.3837  0.6533  0.3051
 1989TIP3    H2 5974   4.132   2.617   2.943 -0.2837 -2.2075  1.0831
 1990TIP3   OH2 5975   4.435   0.176   0.648  0.1576 -0.4703  0.0532
 1990TIP3    H1 5976   4.442   0.080   0.646 -0.4772 -0.5209 -0.4989
 1990TIP3    H2 5977   4.507   0.205   0.703 -1.3341 -1.4421  2.7319
 1991TIP3   OH2 5978   3.592   1.214   1.932  0.9213  0.2169  0.2937
 1991TIP3    H1 5979   3.618   1.206   2.024  0.0624  2.0511  0.7354
 1991TIP3    H2 5980   3.667   1.179   1.883  0.0628 -4.1183  1.6555
 1992TIP3   OH2 5981   1.812   2.194   1.082  0.4192 -0.0161  0.0481
 1992TIP3    H1 5982   1.721   2.185   1.112  0.6054  1.9407  1.3736
 1992TIP3    H2 5983   1.806   2.191   0.987 -1.1648  0.8721  0.0823
 1993TIP3   OH2 5984   5.227   3.617   2.746  0.1124 -0.2203  0.4211
 1993TIP3    H1 5985   5.284   3.661   2.684  0.5962 -1.1610  0.1922
 1993TIP3    H2 5986   5.199   3.537   2.702 -1.2672  0.1288  0.5897
 1994TIP3   OH2 5987   5.962   2.401   4.782  0.4647 -0.1914  0.4318
 1994TIP3    H1 5988   6.051   2.392   4.816  1.2963  0.0736 -1.5566
 1994TIP3    H2 5989   5.936   2.311   4.759 -0.2889 -0.4431  2.0856
 1995TIP3   OH2 5990   3.427   3.537   4.128 -0.1052  0.2500  0.4845
 1995TIP3    H1 5991   3.504   3.583   4.162  0.8166 -0.7254 -0.2129
 1995TIP3    H2 5992   3.460   3.488   4.053 -1.2900 -0.6622  0.5334
 1996TIP3   OH2 5993   3.467   1.073   3.133  0.5224 -0.0120 -1.0248
 1996TIP3    H1 5994   3.480   1.128   3.055 -0.1633 -0.9844 -1.8661
 1996TIP3    H2 5995   3.388   1.023   3.113  0.6467 -0.6758  0.0849
 1997TIP3   OH2 5996   4.927   0.869   4.350  0.2627 -0.2757  0.2450
 1997TIP3    H1 5997   4.920   0.844   4.258 -0.8708  1.0853 -0.0596
 1997TIP3    H2 5998   5.022   0.877   4.366  0.4526  1.8912 -1.5106
 1998TIP3   OH2 5999   5.862   1.038   3.976 -0.0689  0.3176  0.5155
 1998TIP3    H1 6000   5.894   1.124   3.948  1.2072  0.0271  0.9995
 1998TIP3    H2 6001   5.791   1.057   4.037 -1.6971  0.9713 -1.4988
 1999TIP3   OH2 6002   1.797   3.763   1.783 -0.0049  0.7045  0.0671
 1999TIP3    H1 6003   1.803   3.807   1.699  0.0361  1.4543  0.4560
 1999TIP3    H2 6004   1.703   3.749   1.795 -0.1048  1.5725  0.3819
 2000TIP3   OH2 6005   1.485   0.368   0.464  0.4574 -0.0033 -0.0523
 2000TIP3    H1 6006   1.501   0.287   0.513 -0.2472  1.4829  2.8125
 2000TIP3    H2 6007   1.456   0.338   0.378  0.8821 -2.7757  0.6665
 2001TIP3   OH2 6008   2.008   3.998   3.686 -0.3361 -0.2912  0.1997
 2001TIP3    H1 6009   2.100   3.975   3.681 -0.4473 -1.6986  2.8704
 2001TIP3    H2 6010   1.981   4.010   3.595  1.8104 -2.5903 -0.8446
 2002TIP3   OH2 6011   6.286   2.895   0.390  0.6453  0.1379  0.4230
 2002TIP3    H1 6012   6.313   2.972   0.440  0.8094  0.3613 -0.0043
 2002TIP3    H2 6013   6.332   2.903   0.306  1.0941 -0.7080  0.5729
 2003TIP3   OH2 6014   3.247   1.554   1.085 -0.0887  0.1183 -0.3616
 2003TIP3    H1 6015   3.191   1.585   1.014  1.4868  2.4441 -0.7012
 2003TIP3    H2 6016   3.322   1.514   1.041 -0.6129 -1.4544  0.0829
 2004TIP3   OH2 6017   4.831   1.397   1.341  0.2614 -0.1824  0.2818
 2004TIP3    H1 6018   4.793   1.314   1.369  0.0805 -0.2108 -0.0389
 2004TIP3    H2 6019   4.757   1.458   1.341  0.0232 -0.4237 -1.1240
 2005TIP3   OH2 6020   5.336   2.192   2.568  0.0794  0.1905  0.6854
 2005TIP3    H1 6021   5.251   2.232   2.586 -1.3876 -0.6574 -3.3041
 2005TIP3    H2 6022   5.374   2.245   2.498  1.1065 -1.5974 -0.1875
 2006TIP3   OH2 6023   3.808   0.673   3.828  0.1111  0.2879 -0.1430
 2006TIP3    H1 6024   3.808   0.665   3.923  0.8795 -0.9500 -0.2253
 2006TIP3    H2 6025   3.740   0.612   3.798  0.8607 -0.4189 -0.4410
 2007TIP3   OH2 6026   2.245   4.454   1.637 -0.2624  0.3370  0.9832
 2007TIP3    H1 6027   2.217   4.450   1.729  1.1531  0.4919  1.4472
 2007TIP3    H2 6028   2.335   4.422   1.639 -0.1362  0.5908 -0.3304
 2008TIP3   OH2 6029   1.188   2.746   0.477 -0.2121 -0.3437  0.5871
 2008TIP3    H1 6030   1.100   2.725   0.446 -1.1281 -1.8691  3.8156
 2008TIP3    H2 6031   1.232   2.661   0.485  0.5090  0.1149  1.7792
 2009TIP3   OH2 6032   3.650   0.628   4.895 -0.3566 -0.4509  0.0682
 2009TIP3    H1 6033   3.599   0.646   4.816 -0.4206  2.0962  0.6183
 2009TIP3    H2 6034   3.632   0.536   4.914 -0.7722 -0.9909 -2.5341
 2010TIP3   OH2 6035   5.605   1.743   3.513  0.4359 -0.1741  0.0022
 2010TIP3    H1 6036   5.598   1.835   3.488  1.1861 -0.1546 -0.1874
 2010TIP3    H2 6037   5.516   1.710   3.510  0.2593  0.3339 -0.7983
 2011TIP3   OH2 6038   4.260   3.783   1.094  0.4518  0.1207 -0.0408
 2011TIP3    H1 6039   4.232   3.870   1.064 -0.3545  0.7068  2.1922
 2011TIP3    H2 6040   4.178   3.736   1.110  0.8825 -1.0447 -1.0965
 2012TIP3   OH2 6041   0.738   4.649   0.477  0.1343 -0.0359 -0.1589
 2012TIP3    H1 6042   0.744   4.744   0.478  2.1538 -0.1290  0.1929
 2012TIP3    H2 6043   0.657   4.629   0.525  0.9411  1.4353  1.9608
 2013TIP3   OH2 6044   4.716   3.550   2.617  0.0164 -0.3363  0.0782
 2013TIP3    H1 6045   4.628   3.539   2.582  0.2411 -0.3685 -0.4937
 2013TIP3    H2 6046   4.723   3.485   2.687 -0.7339  0.3052  0.7831
 2014TIP3   OH2 6047   0.190   3.116   4.494  0.1761  0.0237  0.0713
 2014TIP3    H1 6048   0.128   3.087   4.427  1.0921 -2.1561  0.0650
 2014TIP3    H2 6049   0.273   3.127   4.446  0.3313  0.6348  0.4738
 2015TIP3   OH2 6050   4.373   0.190   2.630  0.3118  0.6816  0.2817
 2015TIP3    H1 6051   4.463   0.167   2.606  0.7059  0.9663  1.3769
 2015TIP3    H2 6052   4.363   0.156   2.719  0.4408  3.3172  1.4221
 2016TIP3   OH2 6053   0.272   3.629   0.569  0.1410 -0.3671  0.5152
 2016TIP3    H1 6054   0.259   3.667   0.656  0.0916 -0.3961  0.5205
 2016TIP3    H2 6055   0.282   3.535   0.585 -1.5473 -0.6048  0.3456
 2017TIP3   OH2 6056   4.724   4.438   0.990 -0.1898 -0.2282  0.0922
 2017TIP3    H1 6057   4.714   4.526   0.955  0.2639 -0.3679 -0.4046
 2017TIP3    H2 6058   4.643   4.393   0.967 -0.6401  0.2093  0.8079
 2018TIP3   OH2 6059   0.799   5.613   0.617  0.1404 -0.1443 -0.1428
 2018TIP3    H1 6060   0.711   5.646   0.601 -1.0505 -2.5165  0.9854
 2018TIP3    H2 6061   0.850   5.644   0.542 -1.9076  0.3763 -1.4203
 2019TIP3   OH2 6062   2.916   1.303   2.934  0.4557  0.8022 -0.2721
 2019TIP3    H1 6063   2.884   1.327   3.021 -0.0728 -2.2844  0.4932
 2019TIP3    H2 6064   3.010   1.290   2.946  0.3641  0.2584 -0.0985
 2020TIP3   OH2 6065   4.652   4.173   2.024  0.0507  0.2610  0.2384
 2020TIP3    H1 6066   4.558   4.155   2.019 -0.3841  1.5388  2.3307
 2020TIP3    H2 6067   4.658   4.249   2.082  2.2089  2.1890 -2.2908
 2021TIP3   OH2 6068   2.802   0.128   2.750 -0.0445  0.1616 -0.7351
 2021TIP3    H1 6069   2.726   0.127   2.692  0.3609 -1.2806 -1.2555
 2021TIP3    H2 6070   2.811   0.220   2.775 -0.1551  0.8652 -3.0462
 2022TIP3   OH2 6071   1.911   3.253   2.095  0.5967 -0.2449  0.8097
 2022TIP3    H1 6072   1.905   3.290   2.007 -0.9016 -1.6126  0.2978
 2022TIP3    H2 6073   2.004   3.262   2.118  0.9102  0.6361 -0.6700
 2023TIP3   OH2 6074   4.001   3.156   4.535 -0.0585 -0.2985  0.0143
 2023TIP3    H1 6075   4.064   3.222   4.561  0.4315 -0.5642 -0.4805
 2023TIP3    H2 6076   4.019   3.141   4.442 -1.7266  0.6118 -0.5161
 2024TIP3   OH2 6077   1.510   1.292   4.854 -0.4064  0.1680  0.5067
 2024TIP3    H1 6078   1.525   1.348   4.778  0.3975 -0.1906  0.3926
 2024TIP3    H2 6079   1.508   1.204   4.819 -0.4034  0.0280  0.8547
 2025TIP3   OH2 6080   5.953   4.221   2.708 -0.0393  0.2769  0.1260
 2025TIP3    H1 6081   5.903   4.259   2.780 -0.3382  0.6158 -0.2501
 2025TIP3    H2 6082   5.962   4.293   2.645  0.6112  0.1134  0.0297
 2026TIP3   OH2 6083   5.691   2.266   1.723 -0.0888  0.2807 -0.2288
 2026TIP3    H1 6084   5.656   2.307   1.802 -1.7746 -1.5416  0.0482
 2026TIP3    H2 6085   5.690   2.173   1.742 -0.5066 -0.2068 -2.3712
 2027TIP3   OH2 6086   3.557   0.414   3.422  0.3117 -0.5030  0.2336
 2027TIP3    H1 6087   3.497   0.451   3.487  0.3644  0.5248 -0.2929
 2027TIP3    H2 6088   3.644   0.438   3.453  0.4747 -1.8035  0.8773
 2028TIP3   OH2 6089   3.507   2.213   0.942  0.0162 -0.2793 -0.0582
 2028TIP3    H1 6090   3.518   2.137   1.000  0.3871 -0.1366  0.0631
 2028TIP3    H2 6091   3.596   2.234   0.913  0.1416  1.1345  1.2336
 2029TIP3   OH2 6092   3.625   1.781   2.750  0.2641  0.0881 -0.2833
 2029TIP3    H1 6093   3.647   1.770   2.842  1.2609  1.6355 -0.3085
 2029TIP3    H2 6094   3.622   1.692   2.716  1.7435 -0.4384  0.8401
 2030TIP3   OH2 6095   5.600   1.061   0.543  0.1621  0.7848 -0.0654
 2030TIP3    H1 6096   5.529   1.029   0.598 -1.5630  1.2530 -1.9186
 2030TIP3    H2 6097   5.642   0.982   0.509 -0.5388  0.5069 -0.2840
 2031TIP3   OH2 6098   3.527   0.392   5.074  0.1495 -0.0311 -0.4166
 2031TIP3    H1 6099   3.510   0.305   5.109  0.1252  0.1220 -0.0424
 2031TIP3    H2 6100   3.518   0.451   5.149 -2.5776  0.6284 -1.1739
 2032TIP3   OH2 6101   2.513   3.900   0.577  0.5420  0.4158 -0.2234
 2032TIP3    H1 6102   2.492   3.835   0.510  0.4866 -0.2294  0.4170
 2032TIP3    H2 6103   2.603   3.881   0.602  0.2233 -0.0247  0.6368
 2033TIP3   OH2 6104   4.442   1.751   0.207  0.2675  0.3341 -0.6614
 2033TIP3    H1 6105   4.357   1.712   0.228  0.0743 -0.6917 -3.0787
 2033TIP3    H2 6106   4.428   1.846   0.215 -0.0052  0.1366  2.6099
 2034TIP3   OH2 6107   4.054   2.011   1.686  0.0759  0.3313 -0.1978
 2034TIP3    H1 6108   4.071   1.974   1.772 -2.2159  0.4386  0.3688
 2034TIP3    H2 6109   4.084   2.102   1.692 -1.4562  0.8179  1.0810
 2035TIP3   OH2 6110   2.796   0.399   0.377 -0.6302 -0.1339 -0.6423
 2035TIP3    H1 6111   2.797   0.482   0.329 -1.1402 -0.3701 -1.0730
 2035TIP3    H2 6112   2.772   0.334   0.311  2.7717 -1.1346 -1.0702
 2036TIP3   OH2 6113   2.433   3.299   2.078  0.3598 -0.0200 -0.3883
 2036TIP3    H1 6114   2.475   3.363   2.020 -0.6304  2.3401  1.3344
 2036TIP3    H2 6115   2.473   3.315   2.163 -0.1120 -1.5842  0.1500
 2037TIP3   OH2 6116   5.499   5.121   1.757 -0.0086  0.4395 -0.0617
 2037TIP3    H1 6117   5.558   5.137   1.683 -0.6927  0.9086 -0.5154
 2037TIP3    H2 6118   5.453   5.041   1.733 -0.5211  0.8128 -0.3344
 2038TIP3   OH2 6119   0.832   1.511   4.490  0.8616 -0.2627 -0.3789
 2038TIP3    H1 6120   0.855   1.488   4.581 -0.4345 -2.2679 -0.4815
 2038TIP3    H2 6121   0.903   1.568   4.461  2.9093 -1.9732  0.9425
 2039TIP3   OH2 6122   4.317   2.447   4.058 -0.2275  0.2213 -0.2835
 2039TIP3    H1 6123   4.302   2.416   4.147 -1.5573  0.3404 -0.4484
 2039TIP3    H2 6124   4.390   2.393   4.026 -1.6391 -1.9085 -0.1342
 2040TIP3   OH2 6125   2.503   2.103   2.417  0.1460  0.8658 -0.6074
 2040TIP3    H1 6126   2.537   2.108   2.507 -0.9019  1.4925 -0.2273
 2040TIP3    H2 6127   2.442   2.029   2.418  1.4079 -0.2200 -1.2731
 2041TIP3   OH2 6128   2.591  -0.022   3.449  0.2635  0.6008 -0.1338
 2041TIP3    H1 6129   2.574   0.064   3.487  1.2406  0.4192  0.7546
 2041TIP3    H2 6130   2.677  -0.014   3.410  0.4341 -0.0207  0.1029
 2042TIP3   OH2 6131   3.478   5.426   4.368 -0.3207  0.3204  0.2340
 2042TIP3    H1 6132   3.571   5.425   4.345 -0.6175  0.6941 -1.0636
 2042TIP3    H2 6133   3.440   5.491   4.310 -1.6594 -0.9163 -0.3388
 2043TIP3   OH2 6134   5.855   3.979   1.113  0.1634  0.4205 -0.5928
 2043TIP3    H1 6135   5.803   3.988   1.033 -1.0628  0.2712  0.1591
 2043TIP3    H2 6136   5.882   4.068   1.135  1.1977  0.3725 -1.6009
 2044TIP3   OH2 6137   0.992   5.411   4.402 -0.1541  0.2056 -0.5269
 2044TIP3    H1 6138   0.934   5.430   4.328 -1.8210 -0.6145  0.4974
 2044TIP3    H2 6139   1.058   5.351   4.366 -0.5807  0.2950 -1.4920
 2045TIP3   OH2 6140   1.078   2.217   4.476  0.1605  0.4600  0.2076
 2045TIP3    H1 6141   1.082   2.305   4.513 -0.1502  0.4304  0.3136
 2045TIP3    H2 6142   1.145   2.168   4.524  0.0201  0.5206  0.4688
 2046TIP3   OH2 6143   2.047   1.026   4.975  0.2257 -0.4627 -0.1981
 2046TIP3    H1 6144   1.955   1.045   4.957  0.5027  2.0579  0.7065
 2046TIP3    H2 6145   2.072   0.964   4.906 -1.7147  0.0451 -1.4338
 2047TIP3   OH2 6146   2.472   2.152   2.677 -0.3835 -0.1521  0.7934
 2047TIP3    H1 6147   2.544   2.149   2.741 -0.5231  1.2519  1.0467
 2047TIP3    H2 6148   2.393   2.158   2.730 -0.6948 -1.4001  0.5066
 2048TIP3   OH2 6149   1.196   5.777   3.970  0.1967 -0.3375  0.0983
 2048TIP3    H1 6150   1.118   5.756   4.022 -1.4404 -1.1246 -2.4885
 2048TIP3    H2 6151   1.230   5.691   3.944  1.1054  0.0463 -0.0051
 2049TIP3   OH2 6152   2.378   5.793   4.181  1.0341 -0.5334  0.5049
 2049TIP3    H1 6153   2.285   5.816   4.180  0.2528 -3.2616 -1.0976
 2049TIP3    H2 6154   2.390   5.745   4.262  1.8973  2.4039  2.2535
 2050TIP3   OH2 6155   4.497   2.717   0.188 -0.2906 -0.1110 -0.6777
 2050TIP3    H1 6156   4.514   2.777   0.115 -0.3821 -1.1043 -1.5499
 2050TIP3    H2 6157   4.540   2.636   0.162 -0.4030 -0.5068  0.3439
 2051TIP3   OH2 6158   5.819   4.044   2.167  0.4150 -0.0999  0.4049
 2051TIP3    H1 6159   5.858   4.071   2.250  1.4899 -2.1879  0.6415
 2051TIP3    H2 6160   5.800   3.951   2.178  1.0300 -0.5662 -1.8277
 2052TIP3   OH2 6161   6.295   5.140   0.420  0.5343  0.4185  0.4706
 2052TIP3    H1 6162   6.267   5.094   0.499  0.1976  1.6648  1.1057
 2052TIP3    H2 6163   6.239   5.104   0.350 -0.8383  0.9862  1.2467
 2053TIP3   OH2 6164   1.575   2.603   4.883  0.5575  0.0779 -0.4859
 2053TIP3    H1 6165   1.573   2.569   4.794  0.4208 -1.0387 -0.0629
 2053TIP3    H2 6166   1.545   2.531   4.938 -0.5962  1.1383  0.3517
 2054TIP3   OH2 6167   3.450   0.714   0.378 -1.1964  0.2354 -0.0345
 2054TIP3    H1 6168   3.499   0.796   0.375 -1.4893  0.3942 -0.6052
 2054TIP3    H2 6169   3.504   0.653   0.326 -0.4929 -0.2115  1.1798
 2055TIP3   OH2 6170   6.004   0.752   3.830  0.4816  0.8123 -0.2371
 2055TIP3    H1 6171   6.092   0.718   3.812  0.0758 -1.6731  1.9421
 2055TIP3    H2 6172   6.013   0.798   3.913 -0.0371  1.7419 -0.6830
 2056TIP3   OH2 6173   0.414   1.986   3.300 -0.2727  0.1943  0.2188
 2056TIP3    H1 6174   0.424   2.047   3.226 -1.1632  1.6872  1.2680
 2056TIP3    H2 6175   0.473   2.020   3.367 -0.2726 -0.5050  0.5736
 2057TIP3   OH2 6176   1.655   3.969   3.266 -0.1914  0.7627 -0.5543
 2057TIP3    H1 6177   1.596   3.936   3.199 -0.4383  0.0626 -0.0104
 2057TIP3    H2 6178   1.603   4.032   3.316 -0.7570 -0.4288  0.4151
 2058TIP3   OH2 6179   1.123   2.709   4.969 -0.1656 -0.7065  0.0898
 2058TIP3    H1 6180   1.131   2.804   4.975 -0.2315 -0.6945 -0.0130
 2058TIP3    H2 6181   1.042   2.689   5.014  0.1615 -0.7756  0.6547
 2059TIP3   OH2 6182   0.548   2.404   2.859 -0.2599 -0.1888 -0.3106
 2059TIP3    H1 6183   0.467   2.452   2.842 -1.0166 -1.6108 -0.8720
 2059TIP3    H2 6184   0.581   2.379   2.773  0.1711 -0.5814 -0.0402
 2060TIP3   OH2 6185   4.980   5.314   3.769  0.0563  0.1474 -0.0228
 2060TIP3    H1 6186   5.008   5.404   3.752 -0.3517  0.1041 -0.9811
 2060TIP3    H2 6187   4.958   5.314   3.862 -0.6010  1.2287 -0.1567
 2061TIP3   OH2 6188   1.169   4.837   2.572  0.1271 -0.2295  0.0392
 2061TIP3    H1 6189   1.239   4.868   2.515 -0.6283 -1.0522 -1.3964
 2061TIP3    H2 6190   1.133   4.760   2.527 -2.6943  1.0324 -0.1024
 2062TIP3   OH2 6191   3.836   5.585   3.298 -0.1446  0.0446  0.0689
 2062TIP3    H1 6192   3.822   5.523   3.370  2.2137 -0.8765 -0.1782
 2062TIP3    H2 6193   3.773   5.655   3.315  0.5912  0.1101  3.3443
 2063TIP3   OH2 6194   4.616   4.655   2.608 -0.1459 -0.1042 -0.3840
 2063TIP3    H1 6195   4.688   4.607   2.567 -0.6154 -0.4886 -0.7759
 2063TIP3    H2 6196   4.597   4.726   2.547  0.0731  0.1578 -0.1509
 2064TIP3   OH2 6197   5.729   0.127   2.486 -0.1243  0.0114 -0.0100
 2064TIP3    H1 6198   5.825   0.120   2.485 -0.0210  0.8075  1.5301
 2064TIP3    H2 6199   5.703   0.105   2.397  1.5384  0.4791 -0.6557
 2065TIP3   OH2 6200   4.335   2.104   1.664 -0.1651  0.1777  0.0432
 2065TIP3    H1 6201   4.397   2.104   1.737  2.7834  2.6572 -2.1449
 2065TIP3    H2 6202   4.291   2.189   1.669 -0.4901  0.0588 -0.6102
 2066TIP3   OH2 6203   3.097   3.522   3.040  0.6940  0.2052 -0.2171
 2066TIP3    H1 6204   3.075   3.578   2.965 -1.1962 -1.3035 -0.8725
 2066TIP3    H2 6205   3.050   3.560   3.113  2.1679  1.4064  0.1693
 2067TIP3   OH2 6206   4.795   2.919   2.539  0.3021 -0.2507 -0.3578
 2067TIP3    H1 6207   4.758   2.962   2.463  0.7455  1.4240  0.3311
 2067TIP3    H2 6208   4.729   2.927   2.607  1.4205  1.8831  0.5845
 2068TIP3   OH2 6209   1.174   5.865   0.657  0.5320 -0.8004 -0.1324
 2068TIP3    H1 6210   1.131   5.891   0.739  1.5780 -1.0704  0.5258
 2068TIP3    H2 6211   1.128   5.915   0.589 -0.7656 -1.0317  0.5303
 2069TIP3   OH2 6212   1.979   2.526   1.234  0.0466 -0.4243  0.1578
 2069TIP3    H1 6213   1.948   2.609   1.270  0.0153 -0.1900 -0.3940
 2069TIP3    H2 6214   1.971   2.537   1.139  1.5766 -0.4570  0.0067
 2070TIP3   OH2 6215   3.921   4.357   2.987 -0.3963 -0.5356 -0.0561
 2070TIP3    H1 6216   3.983   4.421   3.021 -1.1393  1.0808 -1.5823
 2070TIP3    H2 6217   3.972   4.277   2.976  1.1394  0.4434 -0.2891
 2071TIP3   OH2 6218   0.570   5.396   0.716  0.0759 -0.3530  0.2690
 2071TIP3    H1 6219   0.539   5.373   0.628  1.0422 -1.4192  0.1930
 2071TIP3    H2 6220   0.519   5.475   0.739 -0.3254 -0.1662 -1.1541
 2072TIP3   OH2 6221   3.621   2.163   1.575 -0.3117 -0.1153 -0.1801
 2072TIP3    H1 6222   3.680   2.119   1.513 -0.8894 -1.3655  0.1312
 2072TIP3    H2 6223   3.625   2.255   1.550  2.2460 -0.0379  0.2138
 2073TIP3   OH2 6224   1.181   1.193   5.153 -0.6308  0.2028 -0.4322
 2073TIP3    H1 6225   1.219   1.106   5.149 -0.2279  0.4330 -2.4722
 2073TIP3    H2 6226   1.093   1.179   5.188 -1.4844 -1.4026 -3.0061
 2074TIP3   OH2 6227   1.558   5.471   3.165  0.3145 -0.5517  0.0682
 2074TIP3    H1 6228   1.625   5.410   3.134  0.5809 -0.3708  0.2745
 2074TIP3    H2 6229   1.542   5.529   3.091 -0.7485 -1.5523 -0.4914
 2075TIP3   OH2 6230   2.093   5.856   3.941 -0.2494 -0.4208 -0.1448
 2075TIP3    H1 6231   2.088   5.844   4.036 -1.1380 -3.8964 -0.4917
 2075TIP3    H2 6232   2.149   5.933   3.929  0.3576 -0.2051  3.1508
 2076TIP3   OH2 6233   0.847   1.713   4.144  0.5876 -0.0195 -0.1241
 2076TIP3    H1 6234   0.829   1.737   4.235 -1.7781 -2.6987  0.2197
 2076TIP3    H2 6235   0.939   1.687   4.145  1.4243  2.5861  0.7917
 2077TIP3   OH2 6236   3.108   4.868   1.255  0.0893 -0.3581 -0.3526
 2077TIP3    H1 6237   3.023   4.826   1.236  0.4824 -1.4550  0.2204
 2077TIP3    H2 6238   3.099   4.956   1.219 -0.9395 -0.7764 -1.2114
 2078TIP3   OH2 6239   5.727   2.551   0.323  0.4127 -0.2888  0.5109
 2078TIP3    H1 6240   5.757   2.473   0.276  0.3609  0.2023 -0.3562
 2078TIP3    H2 6241   5.788   2.558   0.397  0.1667 -1.3767  0.8396
 2079TIP3   OH2 6242   6.009   4.549   4.665 -0.1607  0.5836  0.0673
 2079TIP3    H1 6243   5.949   4.490   4.709 -0.2530  0.3348 -0.3866
 2079TIP3    H2 6244   6.002   4.526   4.572 -1.0011  2.0163 -0.2509
 2080TIP3   OH2 6245   4.720   3.252   0.182 -0.3842  0.2760 -0.3162
 2080TIP3    H1 6246   4.786   3.294   0.237 -1.4521  1.7154 -0.1020
 2080TIP3    H2 6247   4.691   3.177   0.234 -0.5047  0.9115  0.5462
 2081TIP3   OH2 6248   5.647   0.980   4.173  0.3725 -0.6197  0.2736
 2081TIP3    H1 6249   5.644   0.906   4.113 -1.1658 -0.1383 -0.2884
 2081TIP3    H2 6250   5.560   0.982   4.212  0.1699  1.2691 -0.2003
 2082TIP3   OH2 6251   5.394   4.817   4.275  0.5674  0.1617  0.1175
 2082TIP3    H1 6252   5.482   4.780   4.274  0.2219 -0.6878 -0.5081
 2082TIP3    H2 6253   5.381   4.853   4.187  1.8645  4.3023  1.3965
 2083TIP3   OH2 6254   4.638   0.756   0.324  0.8255  1.0226  0.2417
 2083TIP3    H1 6255   4.574   0.699   0.366 -0.4716  1.5281 -0.9825
 2083TIP3    H2 6256   4.678   0.701   0.256  2.9219  0.2047  1.9953
 2084TIP3   OH2 6257   5.611   4.404   2.315 -0.3013  0.8093  0.2369
 2084TIP3    H1 6258   5.516   4.412   2.308 -0.1299  4.5744  0.6598
 2084TIP3    H2 6259   5.636   4.463   2.386  2.2605 -1.5438  1.5106
 2085TIP3   OH2 6260   1.426   3.787   0.860  0.0043  0.6649 -0.0365
 2085TIP3    H1 6261   1.422   3.878   0.888 -0.2478  0.5381  0.3624
 2085TIP3    H2 6262   1.407   3.789   0.767 -0.4482  0.9769  0.0607
 2086TIP3   OH2 6263   1.745   3.816   4.664  0.4379  0.3966 -0.3346
 2086TIP3    H1 6264   1.826   3.792   4.709  0.6471  1.5793 -0.0320
 2086TIP3    H2 6265   1.766   3.811   4.571  0.2877 -1.1268 -0.3054
 2087TIP3   OH2 6266   2.415   3.282   0.180  0.0013  0.5755  0.5414
 2087TIP3    H1 6267   2.326   3.315   0.195  0.1510  0.3766  2.0425
 2087TIP3    H2 6268   2.422   3.204   0.235  1.4783  1.2846  1.4626
 2088TIP3   OH2 6269   6.245   5.569   3.789  0.1668  0.0664 -0.3180
 2088TIP3    H1 6270   6.303   5.514   3.842 -0.0136 -0.7667 -0.9807
 2088TIP3    H2 6271   6.179   5.509   3.755 -1.6417  1.1236  1.1111
 2089TIP3   OH2 6272   0.349   3.026   3.731 -0.5356  0.0895 -0.2992
 2089TIP3    H1 6273   0.358   3.015   3.636 -0.3482  0.1349 -0.2867
 2089TIP3    H2 6274   0.400   2.954   3.768  0.4587  0.8199 -0.2169
 2090TIP3   OH2 6275   1.112   3.377   1.621 -0.2259  0.0717  0.3868
 2090TIP3    H1 6276   1.027   3.399   1.583 -0.0983  0.6299  0.4198
 2090TIP3    H2 6277   1.160   3.335   1.550 -0.7810 -0.9075  0.5706
 2091TIP3   OH2 6278   6.048   2.765   0.370 -0.1410  0.4992  0.0968
 2091TIP3    H1 6279   6.124   2.814   0.400 -0.7196  2.0970 -0.9087
 2091TIP3    H2 6280   5.977   2.829   0.367 -0.9160 -0.3680 -1.3307
 2092TIP3   OH2 6281   2.610   2.575   0.921 -0.1603  0.0383 -0.7783
 2092TIP3    H1 6282   2.604   2.479   0.913 -2.0955  0.1921 -1.7736
 2092TIP3    H2 6283   2.703   2.594   0.908  0.0785 -1.6303 -1.8815
 2093TIP3   OH2 6284   4.387   0.282   0.395  0.1485 -0.2594 -0.0307
 2093TIP3    H1 6285   4.464   0.263   0.341  0.3844 -1.2432  0.6204
 2093TIP3    H2 6286   4.393   0.220   0.468 -2.1265 -1.4723 -0.8017
 2094TIP3   OH2 6287   2.091   1.848   2.937 -0.2157  0.4690  0.3791
 2094TIP3    H1 6288   2.145   1.809   3.006  0.8171 -0.4770 -0.9126
 2094TIP3    H2 6289   2.034   1.777   2.907 -0.1455  0.6580 -0.2279
 2095TIP3   OH2 6290   4.387   5.218   3.768 -0.1843  0.3668 -0.1095
 2095TIP3    H1 6291   4.350   5.302   3.795 -0.4950 -0.3702  1.9239
 2095TIP3    H2 6292   4.481   5.236   3.760 -0.4712  1.3680 -1.7626
 2096TIP3   OH2 6293   2.597   2.202   1.472  0.2412  0.0908 -0.4009
 2096TIP3    H1 6294   2.556   2.141   1.411 -0.2376  1.1880 -1.2164
 2096TIP3    H2 6295   2.529   2.266   1.491  0.5741  0.1024  0.8314
 2097TIP3   OH2 6296   4.042   2.075   0.713 -0.0112  0.2560  0.2264
 2097TIP3    H1 6297   3.950   2.076   0.686  0.3923  1.1395 -1.2338
 2097TIP3    H2 6298   4.081   2.004   0.662  0.3154  0.5231  0.0996
 2098TIP3   OH2 6299   1.461   0.413   2.604 -0.4416 -0.3391  0.4496
 2098TIP3    H1 6300   1.477   0.333   2.554 -1.1263  0.1215 -0.5362
 2098TIP3    H2 6301   1.378   0.446   2.571 -0.1251  0.8363  0.7724
 2099TIP3   OH2 6302   1.504   0.751   1.967  0.1312 -0.3141  0.0113
 2099TIP3    H1 6303   1.428   0.723   1.918  0.2413  0.8390 -0.8549
 2099TIP3    H2 6304   1.469   0.803   2.040  0.0043 -1.4586  0.7865
 2100TIP3   OH2 6305   1.369   1.920   4.884  0.2032 -0.2660 -0.4622
 2100TIP3    H1 6306   1.323   1.852   4.933  0.5136 -0.2504 -0.1462
 2100TIP3    H2 6307   1.386   1.879   4.799 -0.0755 -0.3969 -0.4579
 2101TIP3   OH2 6308   4.882   0.439   0.886  0.5370 -0.1558  0.2342
 2101TIP3    H1 6309   4.947   0.496   0.926  0.7769 -0.0985 -0.2358
 2101TIP3    H2 6310   4.883   0.359   0.940  0.7976 -0.0465  0.3885
 2102TIP3   OH2 6311   3.769   5.608   1.873 -0.4053 -0.2083  0.0317
 2102TIP3    H1 6312   3.805   5.668   1.938 -0.1333  0.8776 -1.0746
 2102TIP3    H2 6313   3.709   5.552   1.922 -0.6403  0.9394  1.1057
 2103TIP3   OH2 6314   1.527   5.562   0.960 -0.3103  0.0085 -0.1041
 2103TIP3    H1 6315   1.475   5.641   0.973 -2.3022 -0.6955 -2.8498
 2103TIP3    H2 6316   1.536   5.524   1.048 -2.7670  1.2134  0.7538
 2104TIP3   OH2 6317   2.623   5.528   2.558  0.0187 -0.0843 -0.7920
 2104TIP3    H1 6318   2.651   5.445   2.597  0.9367  0.5340 -0.0894
 2104TIP3    H2 6319   2.562   5.566   2.622  2.5266  1.5546  0.8145
 2105TIP3   OH2 6320   3.497   0.858   3.692  0.5175  0.3396  0.7508
 2105TIP3    H1 6321   3.543   0.846   3.610  1.0079  4.0161  0.3094
 2105TIP3    H2 6322   3.566   0.867   3.758  0.1734 -0.7723  1.2933
 2106TIP3   OH2 6323   5.543   0.460   4.928  0.4878 -0.6521 -0.0888
 2106TIP3    H1 6324   5.465   0.514   4.941  0.0176 -1.8395  2.7438
 2106TIP3    H2 6325   5.616   0.522   4.934 -0.1153 -0.0270  1.1980
 2107TIP3   OH2 6326   4.631   0.052   2.596 -0.4998  0.0333  0.1687
 2107TIP3    H1 6327   4.678   0.058   2.679 -1.3729  1.3825  0.6015
 2107TIP3    H2 6328   4.659  -0.032   2.559  0.3125 -0.3566  1.5647
 2108TIP3   OH2 6329   4.846   1.168   3.470  1.4220 -0.2960  0.1573
 2108TIP3    H1 6330   4.876   1.199   3.556  0.0591 -0.1084  0.5946
 2108TIP3    H2 6331   4.766   1.218   3.454  0.5234 -1.8180 -0.2641
 2109TIP3   OH2 6332   0.646   3.593   4.457 -0.4677 -0.7328 -0.7708
 2109TIP3    H1 6333   0.700   3.635   4.524  0.4183 -1.0392 -1.2663
 2109TIP3    H2 6334   0.642   3.658   4.386  1.1447 -1.5441 -1.6580
 2110TIP3   OH2 6335   2.366   2.612   0.129 -0.1336  0.0433  0.2091
 2110TIP3    H1 6336   2.273   2.591   0.139 -0.8421  1.7029 -1.9271
 2110TIP3    H2 6337   2.404   2.597   0.215 -2.3674 -0.7266  1.1365
 2111TIP3   OH2 6338   4.292   1.050   4.319  0.1771 -0.4299 -0.1528
 2111TIP3    H1 6339   4.236   0.988   4.273  0.3547 -0.7374  0.0408
 2111TIP3    H2 6340   4.381   1.024   4.295  0.2299  0.2278 -0.6810
 2112TIP3   OH2 6341   6.257   3.700   4.060 -0.4635  0.8002  0.2523
 2112TIP3    H1 6342   6.254   3.736   4.149  1.3596 -0.4058  0.8607
 2112TIP3    H2 6343   6.326   3.634   4.063 -1.7124 -0.7187 -1.5583
 2113TIP3   OH2 6344   4.573   0.923   1.883  0.0478 -0.2601  0.2131
 2113TIP3    H1 6345   4.654   0.941   1.834  0.3054  0.2870  0.8108
 2113TIP3    H2 6346   4.552   1.007   1.924  0.5279 -0.9623  2.0220
 2114TIP3   OH2 6347   0.635   2.566   1.577  0.0861 -0.0179  0.6653
 2114TIP3    H1 6348   0.682   2.624   1.517  1.5401  0.0931  1.8516
 2114TIP3    H2 6349   0.584   2.508   1.519 -1.3203  2.3077 -0.5553
 2115TIP3   OH2 6350   2.028   0.646   2.918 -0.7659  0.0721  0.4652
 2115TIP3    H1 6351   2.050   0.721   2.973 -0.5881  0.1805  0.2429
 2115TIP3    H2 6352   2.087   0.651   2.843 -0.3441 -0.6214  0.7366
 2116TIP3   OH2 6353   1.348   2.935   4.763 -0.4478 -0.2036 -0.3222
 2116TIP3    H1 6354   1.263   2.973   4.739  0.0382  0.7233 -0.6442
 2116TIP3    H2 6355   1.365   2.870   4.695 -0.8092 -0.2490 -0.3730
 2117TIP3   OH2 6356   0.223   3.631   4.105  0.2278 -0.4575 -0.7345
 2117TIP3    H1 6357   0.248   3.688   4.178  0.5666 -1.6491  0.1247
 2117TIP3    H2 6358   0.209   3.690   4.031  0.8532  0.6950  0.0412
 2118TIP3   OH2 6359   4.343   2.516   3.779  0.4275 -0.2946  0.4053
 2118TIP3    H1 6360   4.331   2.571   3.857 -0.4256  0.8930 -0.5185
 2118TIP3    H2 6361   4.436   2.492   3.781  0.4112 -0.3632  1.8129
 2119TIP3   OH2 6362   1.603   0.637   0.350 -0.2472 -0.5710 -0.3970
 2119TIP3    H1 6363   1.549   0.694   0.406 -0.6024 -0.4790 -0.8241
 2119TIP3    H2 6364   1.604   0.553   0.395 -1.0505 -0.6761 -0.5511
 2120TIP3   OH2 6365   5.484   0.288   2.931 -0.1007 -0.2007  0.0658
 2120TIP3    H1 6366   5.425   0.228   2.884  0.5732 -0.6079 -0.2937
 2120TIP3    H2 6367   5.555   0.305   2.868 -0.3367  1.0786  0.1234
 2121TIP3   OH2 6368   4.753   5.283   3.470 -0.2101 -0.4243  0.1941
 2121TIP3    H1 6369   4.783   5.371   3.450  0.9043 -0.6105  0.9664
 2121TIP3    H2 6370   4.690   5.263   3.400 -0.3862  0.9161 -0.0610
 2122TIP3   OH2 6371   5.217   3.588   2.430 -0.2214 -0.5283 -0.1131
 2122TIP3    H1 6372   5.212   3.496   2.456 -0.2704 -1.1045 -1.9771
 2122TIP3    H2 6373   5.128   3.621   2.442 -0.4584 -1.0359 -0.4271
 2123TIP3   OH2 6374   2.073   4.272   2.974 -0.0702  0.3569  0.7590
 2123TIP3    H1 6375   2.008   4.207   3.002  0.2287 -0.3120 -0.0559
 2123TIP3    H2 6376   2.156   4.236   3.004  0.0716  0.4848  0.5189
 2124TIP3   OH2 6377   4.203   3.060   1.287 -0.0365  0.6871 -0.3797
 2124TIP3    H1 6378   4.282   3.072   1.340 -0.1290 -1.3224  0.3251
 2124TIP3    H2 6379   4.131   3.090   1.344 -0.0732 -0.8597  0.4494
 2125TIP3   OH2 6380   2.885   3.578   2.415  0.4708  0.0822  0.3003
 2125TIP3    H1 6381   2.951   3.590   2.483  1.9787 -0.6462 -0.9600
 2125TIP3    H2 6382   2.862   3.666   2.388  0.2932  0.3664  1.3243
 2126TIP3   OH2 6383   0.807   5.580   1.699  0.4844  0.6221 -0.3745
 2126TIP3    H1 6384   0.898   5.573   1.671  0.3817  0.2194 -0.6131
 2126TIP3    H2 6385   0.785   5.492   1.732  0.2616  0.7861 -0.0791
 2127TIP3   OH2 6386   4.826   2.196   0.154 -0.2050  0.2635 -0.5528
 2127TIP3    H1 6387   4.919   2.220   0.152 -0.0076 -0.3572  0.4616
 2127TIP3    H2 6388   4.797   2.220   0.242 -1.0765  0.6725 -0.9353
 2128TIP3   OH2 6389   2.248   3.229   1.872  0.4231  0.0765  0.5858
 2128TIP3    H1 6390   2.320   3.224   1.935  1.0746  0.5680 -0.0983
 2128TIP3    H2 6391   2.206   3.313   1.892 -0.1988 -0.3753  1.2218
 2129TIP3   OH2 6392   5.043   3.892   1.132 -0.0706 -0.4639 -0.0780
 2129TIP3    H1 6393   4.984   3.954   1.176  0.2818 -0.6183  0.6317
 2129TIP3    H2 6394   5.044   3.815   1.189  0.1215 -0.8132 -0.5438
 2130TIP3   OH2 6395   2.378   4.583   0.257 -0.2643 -0.2740 -0.4258
 2130TIP3    H1 6396   2.287   4.606   0.236 -0.2817 -0.3187 -0.3996
 2130TIP3    H2 6397   2.374   4.552   0.347 -0.7459 -3.1510 -1.3085
 2131TIP3   OH2 6398   2.196   2.525   3.478 -0.0651  0.0410  0.4512
 2131TIP3    H1 6399   2.214   2.533   3.385  0.4118 -0.9906  0.4377
 2131TIP3    H2 6400   2.131   2.593   3.496  1.5812  1.8319 -0.1266
 2132TIP3   OH2 6401   4.989   4.974   4.903  0.1579  0.0065 -0.4062
 2132TIP3    H1 6402   5.009   4.889   4.864  0.7283  0.1538 -0.4419
 2132TIP3    H2 6403   4.931   4.953   4.977  1.0141 -0.5040  0.1368
 2133TIP3   OH2 6404   1.902   5.065   5.145 -0.0206  0.1317 -0.4752
 2133TIP3    H1 6405   1.974   5.101   5.093  3.2030 -0.4899  3.1461
 2133TIP3    H2 6406   1.926   4.974   5.160 -0.2459  0.4797  2.7026
 2134TIP3   OH2 6407   3.470   4.348   4.047 -1.0382 -0.2026  0.1137
 2134TIP3    H1 6408   3.464   4.441   4.069 -3.6205 -0.6299  1.6440
 2134TIP3    H2 6409   3.503   4.347   3.957  2.7133  1.9698  1.2195
 2135TIP3   OH2 6410   3.114   3.507   1.755 -0.2419  0.1949 -0.0377
 2135TIP3    H1 6411   3.207   3.486   1.765  0.1572  0.4578 -2.6354
 2135TIP3    H2 6412   3.080   3.437   1.700 -1.2426  0.9182 -0.3597
 2136TIP3   OH2 6413   4.507   4.486   2.363 -0.2566 -0.0835 -0.0274
 2136TIP3    H1 6414   4.473   4.424   2.428 -0.4924 -0.3994 -0.4459
 2136TIP3    H2 6415   4.433   4.544   2.345 -1.6241 -2.4431 -3.0163
 2137TIP3   OH2 6416   5.819   3.556   4.705  0.3431 -0.2831 -0.3318
 2137TIP3    H1 6417   5.843   3.617   4.774 -0.5052 -1.4449  1.0368
 2137TIP3    H2 6418   5.725   3.542   4.716  0.1597 -0.4044 -1.8159
 2138TIP3   OH2 6419   2.865   3.914   3.019  0.2450  0.2769  0.0324
 2138TIP3    H1 6420   2.924   3.966   3.075 -0.5475 -1.7413  2.9484
 2138TIP3    H2 6421   2.791   3.972   3.003 -0.2160  0.4781  2.4693
 2139TIP3   OH2 6422   3.359   4.841   3.159  0.5238 -0.0031  0.7758
 2139TIP3    H1 6423   3.290   4.830   3.094  0.4198 -1.8113  1.1354
 2139TIP3    H2 6424   3.312   4.860   3.241  0.5056 -0.1372  0.7975
 2140TIP3   OH2 6425   5.345   0.439   3.337  0.0063  0.0063  0.2647
 2140TIP3    H1 6426   5.433   0.403   3.324 -0.2979 -0.3980 -0.7684
 2140TIP3    H2 6427   5.353   0.496   3.413  0.7495 -1.4161  1.2997
 2141TIP3   OH2 6428   0.358   3.439   0.891 -0.2427  0.4084 -0.1633
 2141TIP3    H1 6429   0.371   3.433   0.985  0.4075 -1.3340 -0.3304
 2141TIP3    H2 6430   0.424   3.380   0.854 -0.2421  1.3296 -1.7339
 2142TIP3   OH2 6431   1.734   1.269   1.524 -0.7090  0.5112  0.0519
 2142TIP3    H1 6432   1.720   1.177   1.504  0.3271  0.4364 -0.4111
 2142TIP3    H2 6433   1.675   1.316   1.466 -2.7303  0.1242  1.6709
 2143TIP3   OH2 6434   3.125   3.748   5.098  0.2662  0.0062 -0.0697
 2143TIP3    H1 6435   3.199   3.711   5.146  0.7683  0.4351 -0.5013
 2143TIP3    H2 6436   3.066   3.674   5.084  0.5321 -0.3039  0.4249
 2144TIP3   OH2 6437   2.840   5.196   3.754 -0.5391  0.0241 -0.5813
 2144TIP3    H1 6438   2.817   5.288   3.739 -1.8867 -0.4680 -1.7027
 2144TIP3    H2 6439   2.933   5.191   3.733  0.1920  1.6059  1.8638
 2145TIP3   OH2 6440   0.009   1.190   3.446 -0.0688 -0.4054  0.1381
 2145TIP3    H1 6441   0.033   1.258   3.509 -0.7273 -0.1164  0.0840
 2145TIP3    H2 6442   0.068   1.117   3.466  2.2349  0.9586 -1.2824
 2146TIP3   OH2 6443   0.449   2.732   0.704 -0.0062 -0.0715  0.0160
 2146TIP3    H1 6444   0.433   2.661   0.641 -0.4229 -0.7601  0.8655
 2146TIP3    H2 6445   0.442   2.812   0.652  1.4129 -0.6686 -1.1597
 2147TIP3   OH2 6446   2.948   5.107   3.211 -0.2369 -0.0526 -0.5137
 2147TIP3    H1 6447   2.960   5.135   3.120 -1.2566  0.4803 -0.4979
 2147TIP3    H2 6448   2.862   5.065   3.212  0.4769 -1.5774 -0.1322
 2148TIP3   OH2 6449   4.112   0.383   3.869  0.3074  0.3283 -0.0922
 2148TIP3    H1 6450   4.120   0.457   3.928 -3.7464  0.9184 -0.0035
 2148TIP3    H2 6451   4.142   0.417   3.784  0.8428  1.2521  0.4492
 2149TIP3   OH2 6452   1.523   3.051   3.586 -0.2566  0.4255 -0.4552
 2149TIP3    H1 6453   1.547   3.025   3.497 -0.8048 -0.2474 -0.4175
 2149TIP3    H2 6454   1.581   3.001   3.643  0.7111  1.5243 -0.4354
 2150TIP3   OH2 6455   5.478   4.795   1.373 -0.1085 -0.5080  0.3463
 2150TIP3    H1 6456   5.446   4.854   1.442 -1.3258 -0.1082 -0.5236
 2150TIP3    H2 6457   5.476   4.709   1.414 -0.1618 -0.1976  1.0290
 2151TIP3   OH2 6458   2.527   4.593   1.283  0.1043  0.1761 -0.1806
 2151TIP3    H1 6459   2.479   4.663   1.326 -0.4430  0.2134 -0.8417
 2151TIP3    H2 6460   2.539   4.526   1.352  0.9257  1.0390  0.5427
 2152TIP3   OH2 6461   0.459   4.290   1.333 -0.5342 -0.4366 -0.0915
 2152TIP3    H1 6462   0.471   4.328   1.420  0.3923 -1.5073  0.2741
 2152TIP3    H2 6463   0.489   4.358   1.272 -0.5340  0.0606  0.4574
 2153TIP3   OH2 6464   1.529   5.588   2.700  0.3371 -0.9627 -0.3359
 2153TIP3    H1 6465   1.544   5.661   2.639  0.6078  0.2377  1.1055
 2153TIP3    H2 6466   1.584   5.518   2.666 -0.4902 -0.7970 -2.1865
 2154TIP3   OH2 6467   5.733   1.551   1.611 -0.1443  0.2585 -0.7490
 2154TIP3    H1 6468   5.640   1.546   1.631  0.1297 -0.1905  0.5190
 2154TIP3    H2 6469   5.737   1.556   1.515 -1.4947  1.4227 -0.7636
 2155TIP3   OH2 6470   0.034   3.684   3.677  0.3927 -0.0634 -0.2187
 2155TIP3    H1 6471   0.127   3.661   3.670 -0.0155 -2.1094  0.2752
 2155TIP3    H2 6472  -0.003   3.655   3.593  0.1222  0.3738 -0.2506
 2156TIP3   OH2 6473   4.626   1.188   4.801 -0.0817 -0.2393 -0.4394
 2156TIP3    H1 6474   4.645   1.280   4.816  1.4112 -0.4665 -0.7669
 2156TIP3    H2 6475   4.597   1.183   4.710  1.0586 -0.2299 -0.8251
 2157TIP3   OH2 6476   3.875   0.575   2.264  0.1282 -0.9170 -0.5740
 2157TIP3    H1 6477   3.969   0.558   2.256  0.0159 -0.9913 -2.0800
 2157TIP3    H2 6478   3.840   0.498   2.307  0.5836 -1.4851 -1.1962
 2158TIP3   OH2 6479   3.318   2.921   0.374  0.5804 -0.2788  0.4672
 2158TIP3    H1 6480   3.254   2.961   0.433  0.8629  0.9104  0.0009
 2158TIP3    H2 6481   3.328   2.831   0.406 -1.6458 -0.6444  0.2751
 2159TIP3   OH2 6482   1.241   0.589   1.910 -0.3758  0.0890 -0.3760
 2159TIP3    H1 6483   1.171   0.628   1.858  1.5118  2.0001 -1.6659
 2159TIP3    H2 6484   1.298   0.545   1.845  0.2058 -0.4759  0.4901
 2160TIP3   OH2 6485   5.788   1.255   0.058 -0.6228  0.1470 -0.7903
 2160TIP3    H1 6486   5.716   1.279   0.116  0.9959  0.8307  1.0588
 2160TIP3    H2 6487   5.753   1.184   0.004 -2.7962  0.7757 -0.2877
 2161TIP3   OH2 6488   4.840   1.052   1.022  0.8862 -0.1906 -0.4957
 2161TIP3    H1 6489   4.816   1.135   1.064 -0.2385  0.3309 -2.0814
 2161TIP3    H2 6490   4.902   1.076   0.954 -0.2155 -0.4965 -1.6304
 2162TIP3   OH2 6491   3.346   4.657   2.243 -0.4199  0.1534  0.3227
 2162TIP3    H1 6492   3.407   4.623   2.178  2.9671  3.0656  1.6857
 2162TIP3    H2 6493   3.347   4.591   2.313  2.1327  0.6021  0.7865
 2163TIP3   OH2 6494   4.411   0.434   0.715  0.0804  0.1971  0.1713
 2163TIP3    H1 6495   4.423   0.426   0.809  0.2295 -0.9787  0.0664
 2163TIP3    H2 6496   4.406   0.344   0.683 -1.7107  0.5704 -0.7343
 2164TIP3   OH2 6497   4.665   5.589   1.223  0.5713  0.2343 -0.0973
 2164TIP3    H1 6498   4.691   5.504   1.187  2.3153  0.8104 -0.2371
 2164TIP3    H2 6499   4.746   5.630   1.253 -0.4589  1.0452  1.8025
 2165TIP3   OH2 6500   0.134   3.906   0.184  0.3251 -0.4419  0.1497
 2165TIP3    H1 6501   0.196   3.839   0.212  1.6670  0.6560 -0.0531
 2165TIP3    H2 6502   0.108   3.949   0.266 -1.8424 -2.2241  0.4726
 2166TIP3   OH2 6503   5.879   2.465   0.966 -0.2429 -0.2683 -0.0893
 2166TIP3    H1 6504   5.866   2.427   0.880  1.1893  0.7019 -0.7744
 2166TIP3    H2 6505   5.916   2.552   0.949  1.7807 -0.7297  1.5034
 2167TIP3   OH2 6506   2.565   4.996   4.432 -0.2981 -0.5521  0.6480
 2167TIP3    H1 6507   2.644   4.994   4.378  0.1200  1.8524  1.0654
 2167TIP3    H2 6508   2.504   4.938   4.387 -0.1697  1.6979 -2.8100
 2168TIP3   OH2 6509   4.269   4.820   2.307 -0.0346 -0.8509  0.1272
 2168TIP3    H1 6510   4.250   4.781   2.222  0.7135 -2.4983  0.6613
 2168TIP3    H2 6511   4.205   4.780   2.366 -1.7112  1.5855  0.1004
 2169TIP3   OH2 6512   5.709   4.604   2.474  0.0772 -0.2540 -0.0668
 2169TIP3    H1 6513   5.774   4.674   2.466 -1.5827  1.3966  0.3288
 2169TIP3    H2 6514   5.729   4.562   2.558  2.2395 -1.5477 -1.1414
 2170TIP3   OH2 6515   6.022   4.505   0.490 -0.0210 -0.4609 -0.7442
 2170TIP3    H1 6516   6.044   4.458   0.410 -2.3477 -0.9979 -1.1291
 2170TIP3    H2 6517   6.071   4.459   0.559  0.2325 -1.4152 -1.5481
 2171TIP3   OH2 6518   0.156   1.100   4.111  0.3747  0.2295 -0.1557
 2171TIP3    H1 6519   0.184   1.182   4.070  1.6824  0.2551  0.7405
 2171TIP3    H2 6520   0.078   1.124   4.161  1.1882  1.1111  0.7279
 2172TIP3   OH2 6521   5.661   1.986   3.394  0.2280  0.2679 -0.0918
 2172TIP3    H1 6522   5.659   2.064   3.449 -1.0177  1.3449 -1.5707
 2172TIP3    H2 6523   5.754   1.972   3.376  0.4115  2.5769 -1.3044
 2173TIP3   OH2 6524   3.102   0.176   3.600  0.1946 -0.7270 -0.1559
 2173TIP3    H1 6525   3.124   0.164   3.692 -0.3673  0.3495  0.1439
 2173TIP3    H2 6526   3.027   0.119   3.585 -0.2673 -0.2560  0.3044
 2174TIP3   OH2 6527   2.108   0.104   4.426  0.0220 -0.2002 -0.7572
 2174TIP3    H1 6528   2.107   0.033   4.362 -0.6491 -1.5397  0.6681
 2174TIP3    H2 6529   2.195   0.101   4.465 -0.1685 -0.6193 -0.3408
 2175TIP3   OH2 6530   5.361   3.894   2.907 -0.0372  0.2579  0.1074
 2175TIP3    H1 6531   5.448   3.864   2.885 -0.5568 -0.4011 -1.1363
 2175TIP3    H2 6532   5.302   3.833   2.863 -1.1265  0.7150  0.8776
 2176TIP3   OH2 6533   3.470   4.576   3.059  0.4121 -0.1099 -0.0992
 2176TIP3    H1 6534   3.522   4.497   3.042 -1.0548 -1.2358  0.5005
 2176TIP3    H2 6535   3.532   4.636   3.101  1.7451 -0.6274 -1.2218
 2177TIP3   OH2 6536   2.586   0.417   4.721  0.2703 -0.5496  0.0256
 2177TIP3    H1 6537   2.563   0.501   4.683  1.0650 -0.5433 -0.4547
 2177TIP3    H2 6538   2.505   0.386   4.762 -0.5221 -0.4153 -1.4015
 2178TIP3   OH2 6539   4.277   5.612   4.715  0.0458 -0.2658 -0.0188
 2178TIP3    H1 6540   4.356   5.660   4.692  0.0288  0.0811  0.6145
 2178TIP3    H2 6541   4.305   5.552   4.785  0.0116 -1.0049 -0.6210
 2179TIP3   OH2 6542   0.174   1.900   3.825 -0.3079 -0.1080  0.3294
 2179TIP3    H1 6543   0.098   1.958   3.827 -0.2079  0.0796 -0.6277
 2179TIP3    H2 6544   0.241   1.947   3.876 -0.7294 -0.1283  0.9038
 2180TIP3   OH2 6545   1.006   4.913   4.416 -0.2729 -0.2595 -0.3413
 2180TIP3    H1 6546   1.092   4.911   4.374  1.8522  0.7513  3.4878
 2180TIP3    H2 6547   0.970   4.998   4.392  1.7879  1.1907  1.3006
 2181TIP3   OH2 6548   1.966   3.462   3.275 -0.2603 -0.3807 -0.2760
 2181TIP3    H1 6549   1.930   3.535   3.224 -2.1295 -0.7027  0.5053
 2181TIP3    H2 6550   1.954   3.488   3.366 -1.1206 -1.7089  0.0208
 2182TIP3   OH2 6551   2.652   2.407   3.095 -0.3833  0.2602  0.0418
 2182TIP3    H1 6552   2.684   2.407   3.185 -1.2022  0.3258  0.3414
 2182TIP3    H2 6553   2.728   2.434   3.042  0.2548 -0.3106  0.6479
 2183TIP3   OH2 6554   0.827   3.163   2.663  0.3018 -0.2306 -0.8196
 2183TIP3    H1 6555   0.763   3.227   2.696  0.2380 -1.1287  0.9265
 2183TIP3    H2 6556   0.774   3.093   2.625  0.1855 -1.0870  0.8394
 2184TIP3   OH2 6557   1.500   1.014   4.773 -0.7887 -0.1670 -0.2451
 2184TIP3    H1 6558   1.464   0.937   4.817 -1.0069  1.0400  1.8150
 2184TIP3    H2 6559   1.580   0.982   4.732 -0.2905 -1.2903  1.4785
 2185TIP3   OH2 6560   2.914   0.296   0.139 -0.2707  0.9298  0.1785
 2185TIP3    H1 6561   2.891   0.387   0.157 -1.5350  0.4102  1.3381
 2185TIP3    H2 6562   2.963   0.300   0.057  0.2978  2.7197  0.5606
 2186TIP3   OH2 6563   5.429   3.826   2.070 -0.5496  0.0449 -0.4666
 2186TIP3    H1 6564   5.429   3.742   2.025  1.0588 -1.9165  2.8563
 2186TIP3    H2 6565   5.522   3.846   2.083 -0.9375  1.7578 -0.1191
 2187TIP3   OH2 6566   4.798   4.835   1.652  0.2181 -0.1048 -0.2082
 2187TIP3    H1 6567   4.767   4.883   1.575  0.4499  0.1334 -0.1573
 2187TIP3    H2 6568   4.892   4.850   1.653  0.1358  0.4245  0.4789
 2188TIP3   OH2 6569   3.544   1.192   2.912 -0.1380  0.5181 -0.3137
 2188TIP3    H1 6570   3.591   1.201   2.829  2.6007 -0.5661  1.0195
 2188TIP3    H2 6571   3.591   1.248   2.973 -0.2048 -0.9861  1.1997
 2189TIP3   OH2 6572   0.399   0.406   4.937  0.4774  0.6068  0.5383
 2189TIP3    H1 6573   0.358   0.350   4.871 -1.3507  1.4574  0.8883
 2189TIP3    H2 6574   0.430   0.346   5.005  0.5506 -0.1238 -0.1350
 2190TIP3   OH2 6575   4.382   1.291   0.666 -0.1958 -0.0340 -0.0381
 2190TIP3    H1 6576   4.371   1.283   0.571 -0.1375  0.0726 -0.0544
 2190TIP3    H2 6577   4.470   1.327   0.677 -0.3315  0.2835  0.0394
 2191TIP3   OH2 6578   0.383   5.447   2.965 -0.1324 -0.0608  0.2889
 2191TIP3    H1 6579   0.353   5.500   3.039 -0.7159  0.1184 -0.0704
 2191TIP3    H2 6580   0.348   5.360   2.982 -0.4626  0.0357  0.1092
 2192TIP3   OH2 6581   5.467   5.658   4.531 -0.0690 -0.0548  1.1465
 2192TIP3    H1 6582   5.528   5.731   4.547 -0.6944  0.9094 -0.6040
 2192TIP3    H2 6583   5.523   5.584   4.508  0.5042  0.9792 -1.0737
 2193TIP3   OH2 6584   6.089   2.523   4.328  0.3701 -0.5196  0.0203
 2193TIP3    H1 6585   6.059   2.467   4.400  0.9305 -0.0667  0.6235
 2193TIP3    H2 6586   6.185   2.518   4.332  0.4468  0.7385  0.3127
 2194TIP3   OH2 6587   5.137   3.700   1.668 -0.4829 -0.4753  0.3746
 2194TIP3    H1 6588   5.077   3.765   1.632  1.5301  1.1537 -0.1989
 2194TIP3    H2 6589   5.206   3.692   1.603  0.0942 -2.1141  1.1244
 2195TIP3   OH2 6590   5.816   1.751   0.711  0.1503 -0.4433  0.2729
 2195TIP3    H1 6591   5.883   1.815   0.734 -0.2945 -0.1856  0.8796
 2195TIP3    H2 6592   5.828   1.680   0.775  1.2133 -1.3930 -0.9392
 2196TIP3   OH2 6593   4.244   4.604   3.350 -0.6311 -0.6028 -0.5659
 2196TIP3    H1 6594   4.309   4.533   3.348  0.2002  0.0514  1.3550
 2196TIP3    H2 6595   4.177   4.572   3.410 -0.1703  0.2575  0.4408
 2197TIP3   OH2 6596   0.192   2.470   2.171 -0.0457  0.8111  0.3526
 2197TIP3    H1 6597   0.102   2.444   2.157 -0.2659  1.5682  0.2997
 2197TIP3    H2 6598   0.222   2.500   2.085  0.6693 -0.6302  0.0728
 2198TIP3   OH2 6599   2.556   3.132   2.854 -0.7113 -0.7694  0.6869
 2198TIP3    H1 6600   2.483   3.094   2.805 -1.2223  0.5612  0.3839
 2198TIP3    H2 6601   2.563   3.222   2.822 -0.0323 -0.3519  1.9230
 2199TIP3   OH2 6602   0.799   5.604   4.909  0.0101  0.0902 -0.1539
 2199TIP3    H1 6603   0.764   5.587   4.822 -0.1567 -0.9520  0.0984
 2199TIP3    H2 6604   0.875   5.546   4.916 -0.4028 -0.3741  0.6420
 2200TIP3   OH2 6605   2.369   0.710   4.209 -0.4812 -0.1621  0.0309
 2200TIP3    H1 6606   2.374   0.633   4.266 -0.5084 -0.0901  0.1303
 2200TIP3    H2 6607   2.342   0.781   4.267  2.3982  0.5902  0.6167
 2201TIP3   OH2 6608   5.378   0.057   0.302 -0.1425  0.5577  0.1216
 2201TIP3    H1 6609   5.297   0.108   0.301 -1.5188 -1.4571  1.4631
 2201TIP3    H2 6610   5.363  -0.013   0.239  0.6793  0.3200  0.1777
 2202TIP3   OH2 6611   3.914   5.329   4.949  0.7720  0.3002 -0.2490
 2202TIP3    H1 6612   4.000   5.338   4.991 -0.6195  2.5666  2.4696
 2202TIP3    H2 6613   3.907   5.407   4.893  0.4222  0.2352 -0.2960
 2203TIP3   OH2 6614   5.704   5.215   2.198  0.1368 -0.0059 -0.5258
 2203TIP3    H1 6615   5.656   5.248   2.122  0.2408  0.2573 -0.4779
 2203TIP3    H2 6616   5.795   5.206   2.167  0.4083  1.1553 -0.1260
 2204TIP3   OH2 6617   5.535   3.894   3.635  0.4232 -0.3873 -0.1013
 2204TIP3    H1 6618   5.506   3.978   3.671  1.3171  0.2599 -0.8544
 2204TIP3    H2 6619   5.537   3.908   3.540  1.2928 -1.0271 -0.1861
 2205TIP3   OH2 6620   2.647   3.810   0.163 -0.0572  0.1294  0.1584
 2205TIP3    H1 6621   2.738   3.821   0.190  0.1831 -0.5905 -0.3257
 2205TIP3    H2 6622   2.630   3.717   0.174 -0.5664  0.1722 -0.2550
 2206TIP3   OH2 6623   5.012   0.870   3.690 -0.4854  0.6639 -0.0290
 2206TIP3    H1 6624   5.087   0.882   3.631 -1.8590 -1.8335 -2.5181
 2206TIP3    H2 6625   5.052   0.856   3.776  1.6654  3.1613 -0.4674
 2207TIP3   OH2 6626   4.484   5.057   4.439  0.6362  0.3273 -0.2378
 2207TIP3    H1 6627   4.457   5.147   4.421 -0.1007 -0.2878 -2.4015
 2207TIP3    H2 6628   4.415   5.022   4.495  0.1767  0.6512 -0.6040
 2208TIP3   OH2 6629   2.510   5.799   0.340 -0.4366 -0.6938  0.0887
 2208TIP3    H1 6630   2.424   5.822   0.373  0.0107  0.1241  0.7296
 2208TIP3    H2 6631   2.568   5.869   0.372  0.4184 -1.0946 -0.5267
 2209TIP3   OH2 6632   1.966   1.650   3.320 -0.9716 -0.3555 -0.2435
 2209TIP3    H1 6633   1.915   1.661   3.400 -0.6961 -1.3789  0.0958
 2209TIP3    H2 6634   1.904   1.619   3.254 -1.9739  3.7159 -1.4932
 2210TIP3   OH2 6635   1.515   5.612   3.704  0.0836  0.1071  0.0535
 2210TIP3    H1 6636   1.428   5.601   3.744 -0.7039  3.2911 -0.5511
 2210TIP3    H2 6637   1.576   5.604   3.777 -0.7668 -1.1674  0.6574
 2211TIP3   OH2 6638   2.108   1.304   3.425 -0.4009 -0.7717 -0.6450
 2211TIP3    H1 6639   2.055   1.236   3.466 -2.4983  1.1127 -0.0461
 2211TIP3    H2 6640   2.046   1.358   3.376  0.9228  1.5115  0.0203
 2212TIP3   OH2 6641   5.443   3.606   1.873  0.2657  0.0499  0.0728
 2212TIP3    H1 6642   5.491   3.523   1.866  1.4324  0.6968  0.0561
 2212TIP3    H2 6643   5.435   3.636   1.783 -1.0327 -0.4948 -0.0190
 2213TIP3   OH2 6644   4.580   4.918   0.268 -0.3187 -0.0938 -0.1431
 2213TIP3    H1 6645   4.524   4.977   0.319 -0.3574 -0.3794  0.1468
 2213TIP3    H2 6646   4.663   4.918   0.315 -0.6191 -1.0286  0.4144
 2214TIP3   OH2 6647   0.062   1.525   2.468 -0.0873  0.1866 -0.8669
 2214TIP3    H1 6648   0.127   1.582   2.426  0.0203 -0.2783 -1.3467
 2214TIP3    H2 6649   0.073   1.440   2.425 -0.1194 -0.2538 -0.0391
 2215TIP3   OH2 6650   6.153   5.806   3.672  0.2700 -0.0338 -0.2967
 2215TIP3    H1 6651   6.192   5.727   3.710  0.8353 -0.5094 -1.7845
 2215TIP3    H2 6652   6.186   5.807   3.582 -2.9044 -0.2636 -1.5607
 2216TIP3   OH2 6653   5.189   0.105   4.029  0.5326 -0.7276 -0.1648
 2216TIP3    H1 6654   5.108   0.055   4.012 -0.0700 -0.0864  0.7132
 2216TIP3    H2 6655   5.158   0.190   4.059  1.5549 -0.1172 -0.7925
 2217TIP3   OH2 6656   4.590   3.428   4.947  0.1634 -0.2430  0.2208
 2217TIP3    H1 6657   4.606   3.384   4.864 -0.9034 -0.3377  0.0530
 2217TIP3    H2 6658   4.507   3.391   4.978 -0.3168  1.0052  0.4983
 2218TIP3   OH2 6659   4.252   5.647   2.890 -0.2468  0.0851  0.6371
 2218TIP3    H1 6660   4.333   5.699   2.891 -0.9721  1.2394  0.7919
 2218TIP3    H2 6661   4.200   5.685   2.820 -0.1974 -1.4099 -0.2449
 2219TIP3   OH2 6662   5.839   2.870   4.730  0.2867  0.0121 -0.2901
 2219TIP3    H1 6663   5.790   2.816   4.792  0.4716 -0.6707 -0.7291
 2219TIP3    H2 6664   5.923   2.826   4.720  1.1988  1.4268  0.8048
 2220TIP3   OH2 6665   4.704   5.095   1.853  0.7044 -0.5895  0.0617
 2220TIP3    H1 6666   4.734   5.094   1.944 -1.4462  0.2901  0.8325
 2220TIP3    H2 6667   4.782   5.117   1.802  2.0248 -1.4197  1.6410
 2221TIP3   OH2 6668   0.663   1.066   4.012 -0.6518  0.0118 -0.6051
 2221TIP3    H1 6669   0.616   1.149   4.026  0.3602  0.5582 -0.2957
 2221TIP3    H2 6670   0.596   0.999   4.019 -1.7148  0.8697 -1.9981
 2222TIP3   OH2 6671   3.448   3.128   0.628  0.4557  0.0182  0.7402
 2222TIP3    H1 6672   3.527   3.104   0.579 -0.0587  0.1721 -0.1773
 2222TIP3    H2 6673   3.396   3.180   0.567 -0.0076  0.5846  1.5932
 2223TIP3   OH2 6674   2.245   3.381   1.402 -0.0455  0.1182 -0.4259
 2223TIP3    H1 6675   2.189   3.391   1.325  0.7969 -2.2751 -1.4382
 2223TIP3    H2 6676   2.203   3.312   1.454  2.3232 -2.5420 -1.7440
 2224TIP3   OH2 6677   3.194   4.618   1.201  1.0096 -0.2691 -0.1659
 2224TIP3    H1 6678   3.221   4.684   1.264  1.4070 -0.6043  0.0152
 2224TIP3    H2 6679   3.103   4.598   1.224  0.7223  0.5541 -0.5189
 2225TIP3   OH2 6680   2.705   0.377   3.670  0.0924 -0.4442 -0.0289
 2225TIP3    H1 6681   2.685   0.470   3.659  0.8010 -0.5235 -2.5478
 2225TIP3    H2 6682   2.799   0.375   3.686 -0.0305 -0.7072  0.6909
 2226TIP3   OH2 6683   2.220   2.054   4.651 -0.1842 -0.2764  0.1062
 2226TIP3    H1 6684   2.189   2.141   4.676 -1.9398 -1.0802  0.8684
 2226TIP3    H2 6685   2.293   2.071   4.592 -0.3193  1.7104  0.4438
 2227TIP3   OH2 6686   5.118   2.336   4.928 -0.2227  0.5220 -0.5724
 2227TIP3    H1 6687   5.073   2.297   5.003 -0.4705  0.3706 -0.7980
 2227TIP3    H2 6688   5.167   2.409   4.965 -0.7857  0.7939 -0.3441
 2228TIP3   OH2 6689   3.656   4.904   0.323 -0.2003  0.2800  0.0483
 2228TIP3    H1 6690   3.731   4.864   0.279 -1.3567 -0.5437 -1.2752
 2228TIP3    H2 6691   3.633   4.979   0.268 -0.6497  0.2329  0.1670
 2229TIP3   OH2 6692   2.758   4.197   1.072  0.6611  0.0157  0.4996
 2229TIP3    H1 6693   2.695   4.150   1.017  0.1448 -0.9362  1.8711
 2229TIP3    H2 6694   2.705   4.253   1.128  1.2497  2.1206 -0.9137
 2230TIP3   OH2 6695   0.795   2.354   3.583 -0.3958 -0.3829 -0.3620
 2230TIP3    H1 6696   0.833   2.436   3.552 -2.3997  0.8479  0.2363
 2230TIP3    H2 6697   0.862   2.315   3.639  0.4950  0.9788 -0.4582
 2231TIP3   OH2 6698   4.878   2.833   4.911  0.5346 -0.1096 -0.1081
 2231TIP3    H1 6699   4.850   2.742   4.898  0.4392 -0.3227  1.4735
 2231TIP3    H2 6700   4.968   2.835   4.879  0.6798 -0.8677  0.2185
 2232TIP3   OH2 6701   3.370   4.713   2.585  0.3416  0.0082  0.4753
 2232TIP3    H1 6702   3.414   4.646   2.533 -1.5777 -1.1762  0.3029
 2232TIP3    H2 6703   3.438   4.747   2.643  1.7413 -0.9367 -0.5509
 2233TIP3   OH2 6704   2.060   5.287   1.136 -0.5490 -0.2973 -0.0216
 2233TIP3    H1 6705   2.088   5.375   1.161  1.3996 -0.7428 -0.4588
 2233TIP3    H2 6706   2.099   5.230   1.202  0.7576 -1.0619 -1.3963
 2234TIP3   OH2 6707   6.218   4.543   2.577 -0.2426 -0.3157  0.7386
 2234TIP3    H1 6708   6.198   4.590   2.658 -1.8518  0.4989 -0.0854
 2234TIP3    H2 6709   6.234   4.612   2.512  2.1791 -0.9390  0.5516
 2235TIP3   OH2 6710   5.928   0.889   1.716 -0.4414 -0.3633  0.2593
 2235TIP3    H1 6711   5.913   0.974   1.758  0.6623 -0.2697  0.4894
 2235TIP3    H2 6712   5.849   0.873   1.665 -0.7707  0.6753  0.4289
 2236TIP3   OH2 6713   5.809   5.509   2.269 -0.2852 -0.1915  0.1082
 2236TIP3    H1 6714   5.749   5.517   2.195  0.6310  0.5254 -0.5648
 2236TIP3    H2 6715   5.893   5.538   2.236  0.3578 -0.7674  1.1724
 2237TIP3   OH2 6716   1.959   5.922   0.741  0.1209  0.0494  0.7244
 2237TIP3    H1 6717   1.953   6.002   0.794  1.8962  0.7660 -0.0817
 2237TIP3    H2 6718   2.047   5.889   0.758 -0.4081 -1.4715  0.6395
 2238TIP3   OH2 6719   3.846   0.297   3.290 -0.3164  0.3445  0.1302
 2238TIP3    H1 6720   3.826   0.379   3.335 -0.3090  0.4212 -0.0055
 2238TIP3    H2 6721   3.940   0.285   3.303 -0.3309  0.3172  0.2148
 2239TIP3   OH2 6722   4.313   4.079   3.871  0.6329 -0.0096 -0.2943
 2239TIP3    H1 6723   4.314   4.100   3.777 -2.8454 -1.5032 -0.8127
 2239TIP3    H2 6724   4.354   3.993   3.877  2.3282  0.7517 -0.1065
 2240TIP3   OH2 6725   5.869   5.232   4.896 -0.5861  0.0378  0.3348
 2240TIP3    H1 6726   5.909   5.309   4.857 -1.3532  0.5028  0.4500
 2240TIP3    H2 6727   5.864   5.168   4.825 -0.5493  0.3193  0.0817
 2241TIP3   OH2 6728   0.412   5.931   0.923  0.0545 -0.0678  0.3770
 2241TIP3    H1 6729   0.487   5.944   0.980  0.0809 -0.2368  0.3816
 2241TIP3    H2 6730   0.356   6.007   0.939  0.8251  0.7241 -0.5707
 2242TIP3   OH2 6731   5.624   0.527   3.105  0.0191  0.2924 -0.1980
 2242TIP3    H1 6732   5.593   0.437   3.115  0.9621  0.1041  1.3694
 2242TIP3    H2 6733   5.559   0.580   3.151 -0.1624  0.3467 -0.5136
 2243TIP3   OH2 6734   4.887   3.654   1.887  0.0326 -0.3570  0.3225
 2243TIP3    H1 6735   4.981   3.672   1.888  0.1994 -1.0588 -0.8042
 2243TIP3    H2 6736   4.854   3.702   1.811 -0.2668 -1.2537 -0.1262
 2244TIP3   OH2 6737   0.529   4.564   2.449 -0.1419 -0.1752 -0.1661
 2244TIP3    H1 6738   0.528   4.658   2.431  3.5233 -0.0499 -0.6236
 2244TIP3    H2 6739   0.513   4.523   2.364  1.7228  0.1934 -0.7585
 2245TIP3   OH2 6740   0.405   4.274   2.221 -0.1152 -0.0622 -0.0110
 2245TIP3    H1 6741   0.435   4.364   2.210 -0.8791  0.0617 -1.1969
 2245TIP3    H2 6742   0.340   4.279   2.291 -1.1180  0.5633 -0.9447
 2246TIP3   OH2 6743   2.563   5.877   1.082  0.0266 -0.0309 -0.0749
 2246TIP3    H1 6744   2.535   5.887   0.991  0.2306  0.6124 -0.0694
 2246TIP3    H2 6745   2.657   5.897   1.081 -0.3428  1.8925  0.5819
 2247TIP3   OH2 6746   5.757   2.396   2.473 -0.4102 -0.0830 -0.4557
 2247TIP3    H1 6747   5.837   2.418   2.426 -0.5598  1.4493 -0.0469
 2247TIP3    H2 6748   5.760   2.450   2.552 -2.4634  1.0300 -1.0648
 2248TIP3   OH2 6749   0.613   2.714   4.628 -0.0463  0.3500  0.4042
 2248TIP3    H1 6750   0.566   2.683   4.705  1.2159 -1.1806  0.5901
 2248TIP3    H2 6751   0.701   2.677   4.636  0.3182  0.7110 -1.4359
 2249TIP3   OH2 6752   0.247   4.977   1.161 -0.0607  0.5069  0.5031
 2249TIP3    H1 6753   0.294   5.056   1.135  1.0876 -0.9900 -2.4266
 2249TIP3    H2 6754   0.160   4.987   1.124  0.5143 -0.1233 -1.1151
 2250TIP3   OH2 6755   4.857   5.875   3.949 -0.2562 -0.4652 -0.2286
 2250TIP3    H1 6756   4.883   5.890   4.040 -1.4460 -0.4315  0.1223
 2250TIP3    H2 6757   4.820   5.959   3.921 -1.4602 -0.9676 -0.1822
 2251TIP3   OH2 6758   1.246   2.936   0.289 -0.4020  0.4386 -0.0168
 2251TIP3    H1 6759   1.223   2.875   0.360  0.3342  0.4092  0.2028
 2251TIP3    H2 6760   1.184   3.008   0.299  0.3016  0.8992  1.2701
 2252TIP3   OH2 6761   0.659   2.438   4.428 -0.2835 -0.1048 -0.0615
 2252TIP3    H1 6762   0.621   2.421   4.514  0.3970  0.4535  0.3564
 2252TIP3    H2 6763   0.727   2.371   4.418  0.0271  0.1856  0.0866
 2253TIP3   OH2 6764   6.017   3.126   4.397  0.0846 -0.1694 -0.5773
 2253TIP3    H1 6765   5.963   3.204   4.409  1.1796  0.4987  0.1604
 2253TIP3    H2 6766   5.974   3.058   4.450  0.8791  0.8299  1.4795
 2254TIP3   OH2 6767   3.446   4.985   1.151 -0.4357 -0.1354  0.9781
 2254TIP3    H1 6768   3.396   5.030   1.083 -0.9888 -0.0483  1.4302
 2254TIP3    H2 6769   3.445   4.893   1.125  2.3217  0.2658 -0.9779
 2255TIP3   OH2 6770   5.789   5.028   4.696  0.3858 -0.1862 -0.2874
 2255TIP3    H1 6771   5.776   4.983   4.613  1.5243 -0.3769 -0.3749
 2255TIP3    H2 6772   5.785   4.959   4.762 -1.0114  0.0318 -0.1251
 2256TIP3   OH2 6773   6.031   0.076   1.129  0.2174 -0.1901  0.1007
 2256TIP3    H1 6774   6.082   0.053   1.207 -0.7896 -1.0112  0.5386
 2256TIP3    H2 6775   5.954   0.121   1.164  1.0310  1.9092 -0.6047
 2257TIP3   OH2 6776   3.772   2.747   4.553  0.0848 -0.0923  0.1890
 2257TIP3    H1 6777   3.691   2.767   4.600 -0.2515 -0.7128 -0.1196
 2257TIP3    H2 6778   3.772   2.808   4.479 -0.3094 -0.3630 -0.0393
 2258TIP3   OH2 6779   1.089   5.246   2.211  0.1931 -0.1814  1.0433
 2258TIP3    H1 6780   1.023   5.314   2.219  0.6857  0.4164  0.1867
 2258TIP3    H2 6781   1.169   5.284   2.247  1.3380  0.9996 -2.3445
 2259TIP3   OH2 6782   2.162   0.684   2.414  0.0192  0.6598  0.2206
 2259TIP3    H1 6783   2.223   0.647   2.351 -0.2205 -1.7141  1.2734
 2259TIP3    H2 6784   2.149   0.774   2.385  3.4263  1.0606 -0.4445
 2260TIP3   OH2 6785   3.097   2.161   0.116  0.9239  0.5619 -1.1461
 2260TIP3    H1 6786   3.149   2.081   0.110  0.6558  0.4272 -1.8317
 2260TIP3    H2 6787   3.080   2.185   0.024  1.3536  1.6340 -0.9637
 2261TIP3   OH2 6788   1.033   3.107   0.309  0.0463  0.2212 -0.2226
 2261TIP3    H1 6789   0.959   3.152   0.269  1.1218  3.1605  0.8332
 2261TIP3    H2 6790   1.060   3.164   0.381  1.7167 -2.0507  1.0878
 2262TIP3   OH2 6791   4.275   5.743   0.125  0.0920  0.3954  0.4074
 2262TIP3    H1 6792   4.356   5.754   0.174  0.0923  1.3239  0.2204
 2262TIP3    H2 6793   4.287   5.797   0.047 -0.5358  0.1986  0.1697
 2263TIP3   OH2 6794   2.896   2.915   0.147 -0.7544 -0.8898  0.4637
 2263TIP3    H1 6795   2.826   2.937   0.085 -1.9199 -1.6887  1.4502
 2263TIP3    H2 6796   2.870   2.959   0.228  1.5738  1.4889  0.0389
 2264TIP3   OH2 6797   5.783   2.057   0.585 -0.3675  0.1893  0.6345
 2264TIP3    H1 6798   5.744   2.078   0.670 -1.4848 -1.8824  0.6815
 2264TIP3    H2 6799   5.876   2.043   0.604 -0.6434 -0.4323  1.5572
 2265TIP3   OH2 6800   2.845   2.641   1.612  0.5090 -0.3258 -0.0523
 2265TIP3    H1 6801   2.908   2.705   1.579 -0.2323  1.1813  1.3407
 2265TIP3    H2 6802   2.760   2.678   1.590  0.0374 -1.8980 -1.0907
 2266TIP3   OH2 6803   4.059   4.642   0.662  0.0112 -0.0393  0.0899
 2266TIP3    H1 6804   4.155   4.635   0.659  0.0084  0.1761 -0.8878
 2266TIP3    H2 6805   4.043   4.731   0.695  0.1486 -0.0115  0.0819
 2267TIP3   OH2 6806   2.228   0.379   1.716 -0.0586 -0.1689  0.6525
 2267TIP3    H1 6807   2.242   0.285   1.711  1.1547  0.0324 -0.4704
 2267TIP3    H2 6808   2.316   0.417   1.704 -0.5137  1.0985  1.1074
 2268TIP3   OH2 6809   6.230   2.591   1.811 -0.0994  0.2335  0.2145
 2268TIP3    H1 6810   6.204   2.515   1.759  1.3020 -0.4484  0.4562
 2268TIP3    H2 6811   6.302   2.630   1.762 -0.3955  1.0426  0.4102
 2269TIP3   OH2 6812   2.014   2.146   3.947 -0.5202 -0.0854  0.3838
 2269TIP3    H1 6813   2.068   2.119   4.022 -1.0887  0.0431  0.8426
 2269TIP3    H2 6814   1.927   2.158   3.983 -0.6153  0.8554 -0.1306
 2270TIP3   OH2 6815   2.892   5.628   4.070 -0.5513 -0.3669 -0.1734
 2270TIP3    H1 6816   2.813   5.646   4.121 -0.8339 -1.1924 -0.3022
 2270TIP3    H2 6817   2.955   5.694   4.099 -0.7844 -0.6587  1.0628
 2271TIP3   OH2 6818   0.571   1.942   1.429 -0.4614  0.3752 -0.1207
 2271TIP3    H1 6819   0.628   1.866   1.436 -1.2087 -0.1409  0.6427
 2271TIP3    H2 6820   0.630   2.017   1.423  0.3466  0.0405  2.4808
 2272TIP3   OH2 6821   1.749   1.048   4.926 -0.2768 -0.2630  0.5689
 2272TIP3    H1 6822   1.683   1.080   4.988 -2.2290 -0.3964 -1.3257
 2272TIP3    H2 6823   1.762   0.957   4.951 -0.4218 -0.0924  1.2940
 2273TIP3   OH2 6824   2.988   0.822   3.928  0.3742 -0.0591  0.5185
 2273TIP3    H1 6825   2.975   0.857   3.841  0.1778 -1.1207  0.1071
 2273TIP3    H2 6826   2.909   0.845   3.976  0.3659  0.2839  0.3409
 2274TIP3   OH2 6827   2.378   3.657   0.365  0.2504 -0.2376 -0.4995
 2274TIP3    H1 6828   2.439   3.613   0.424  2.0435  2.1689 -0.3963
 2274TIP3    H2 6829   2.360   3.592   0.297 -1.6026 -2.9599  2.3497
 2275TIP3   OH2 6830   0.312   0.430   1.505 -0.1679  0.5984  0.0069
 2275TIP3    H1 6831   0.318   0.399   1.595 -0.1801  2.2131  0.5939
 2275TIP3    H2 6832   0.375   0.501   1.500 -1.3171  1.5993 -0.7926
 2276TIP3   OH2 6833   3.826   4.001   1.836  0.9103  0.2523 -0.1580
 2276TIP3    H1 6834   3.862   3.914   1.857  2.5146  0.4969 -1.6784
 2276TIP3    H2 6835   3.893   4.042   1.781 -0.6967  1.6770 -1.1526
 2277TIP3   OH2 6836   4.950   0.104   2.450 -0.4726  0.5091  0.2019
 2277TIP3    H1 6837   5.005   0.157   2.392 -0.7383 -1.1299 -1.6887
 2277TIP3    H2 6838   4.908   0.167   2.508  1.3328  2.0614 -0.0657
 2278TIP3   OH2 6839   0.459   3.135   4.369  0.1745  0.2406  0.5415
 2278TIP3    H1 6840   0.460   3.132   4.273 -0.4779  0.0380  0.5389
 2278TIP3    H2 6841   0.479   3.046   4.396 -0.1741  0.1731  0.5856
 2279TIP3   OH2 6842   5.505   3.226   4.817  0.0243  0.1174 -0.4627
 2279TIP3    H1 6843   5.561   3.261   4.885 -1.5607 -2.3302  2.3832
 2279TIP3    H2 6844   5.460   3.302   4.780  1.5154  1.6089  0.6763
 2280TIP3   OH2 6845   3.710   0.150   1.682  0.1395 -0.0315  0.3662
 2280TIP3    H1 6846   3.678   0.170   1.595  1.6796 -0.4651 -0.3446
 2280TIP3    H2 6847   3.749   0.232   1.713 -0.5419  0.1633  0.7151
 2281TIP3   OH2 6848   0.882   4.734   4.917  0.0326  0.2044 -0.2718
 2281TIP3    H1 6849   0.896   4.692   4.832 -1.5496  0.3912 -0.6660
 2281TIP3    H2 6850   0.881   4.828   4.897 -1.8938  0.2063 -0.3524
 2282TIP3   OH2 6851   1.774   2.108   1.432 -0.1711  0.1932 -0.0949
 2282TIP3    H1 6852   1.736   2.024   1.409  0.9895 -0.4061  0.1203
 2282TIP3    H2 6853   1.820   2.137   1.354  0.4198  0.0539  0.1926
 2283TIP3   OH2 6854   1.073   4.951   3.444  0.1856  0.3554 -0.1289
 2283TIP3    H1 6855   1.135   5.006   3.396  1.2925 -0.6540  0.1128
 2283TIP3    H2 6856   1.120   4.925   3.523 -0.6465 -0.2062  0.1955
 2284TIP3   OH2 6857   1.076   3.048   0.903 -0.4032  0.2494 -0.2269
 2284TIP3    H1 6858   0.993   3.090   0.879 -0.9644  0.2647  1.6220
 2284TIP3    H2 6859   1.138   3.078   0.836 -1.5666  1.2985 -0.8762
 2285TIP3   OH2 6860   6.077   2.945   3.434 -0.3188  0.4527  0.3106
 2285TIP3    H1 6861   6.087   2.859   3.475 -1.1135  0.1924 -0.0240
 2285TIP3    H2 6862   6.097   3.008   3.504 -0.0272 -0.0001  0.6359
 2286TIP3   OH2 6863   4.423   5.469   1.951 -0.4909  0.2958 -0.8026
 2286TIP3    H1 6864   4.351   5.448   1.892 -0.8869  1.5399 -0.7963
 2286TIP3    H2 6865   4.425   5.565   1.953  0.3179  0.2767  0.2296
 2287TIP3   OH2 6866   5.421   4.305   0.799  0.1041  0.0133 -0.0670
 2287TIP3    H1 6867   5.410   4.314   0.894 -0.1801 -1.9670  0.1187
 2287TIP3    H2 6868   5.339   4.267   0.769  0.8310 -0.9877 -0.8453
 2288TIP3   OH2 6869   3.126   5.857   1.201  0.5180  0.8339  0.0005
 2288TIP3    H1 6870   3.168   5.798   1.139  1.3147  1.7728 -0.3891
 2288TIP3    H2 6871   3.114   5.805   1.280  0.7634  0.0220 -0.4882
 2289TIP3   OH2 6872   1.982   5.480   2.373  0.7238 -0.4617  0.3758
 2289TIP3    H1 6873   2.064   5.528   2.387  1.0299 -1.1111  0.8705
 2289TIP3    H2 6874   1.915   5.548   2.371  1.3513  0.1490 -0.7699
 2290TIP3   OH2 6875   4.713   3.911   3.399 -0.4033 -0.1583 -0.0557
 2290TIP3    H1 6876   4.645   3.885   3.336 -0.7771  2.1567 -0.7200
 2290TIP3    H2 6877   4.793   3.916   3.347 -0.4742  0.5874 -0.1108
 2291TIP3   OH2 6878   2.585   1.010   4.139 -0.1588 -0.2813  0.2331
 2291TIP3    H1 6879   2.617   1.044   4.222  2.2120  1.1407 -1.1757
 2291TIP3    H2 6880   2.622   0.922   4.133  2.8016  0.9364 -0.8646
 2292TIP3   OH2 6881   4.537   3.017   1.991  0.2796 -0.2568 -0.4937
 2292TIP3    H1 6882   4.479   2.942   2.000  1.8513 -1.5666 -0.8851
 2292TIP3    H2 6883   4.536   3.058   2.077 -0.4929 -0.7826 -0.2343
 2293TIP3   OH2 6884   2.840   0.040   2.330  0.3991  0.0863  0.8757
 2293TIP3    H1 6885   2.793  -0.007   2.399  0.3669  0.1894  0.9236
 2293TIP3    H2 6886   2.932   0.032   2.353  0.4101 -0.1767  0.7439
 2294TIP3   OH2 6887   3.604   4.669   3.660 -0.5736  0.0574  0.5292
 2294TIP3    H1 6888   3.582   4.669   3.753 -1.7929 -1.2168  0.2815
 2294TIP3    H2 6889   3.521   4.691   3.616  0.2486  1.8206 -0.2432
 2295TIP3   OH2 6890   5.290   1.178   4.476 -0.1796 -0.1553  0.2367
 2295TIP3    H1 6891   5.321   1.263   4.507  0.0503 -0.6319  1.3597
 2295TIP3    H2 6892   5.211   1.161   4.527  0.6296 -1.3079  1.1680
 2296TIP3   OH2 6893   5.793   0.004   3.073  0.5767  0.0752  0.3702
 2296TIP3    H1 6894   5.767   0.089   3.037  1.4807  0.0620 -0.3658
 2296TIP3    H2 6895   5.824   0.024   3.161 -0.5059  0.2984  0.7118
 2297TIP3   OH2 6896   4.293   5.958   3.052 -0.0275 -0.1089  0.1244
 2297TIP3    H1 6897   4.243   6.011   2.990  0.6357 -0.0557 -0.3708
 2297TIP3    H2 6898   4.329   5.887   2.999  2.9515  1.5038 -0.1767
 2298TIP3   OH2 6899   5.901   2.970   0.277 -0.0619 -0.6955  0.0321
 2298TIP3    H1 6900   5.887   2.944   0.186  0.2552 -1.1469  0.1151
 2298TIP3    H2 6901   5.812   2.977   0.314 -0.2402  0.4451 -0.5738
 2299TIP3   OH2 6902   2.521   3.756   2.849  0.0225  0.2346 -0.8583
 2299TIP3    H1 6903   2.457   3.687   2.835 -1.3683  0.1716  3.9635
 2299TIP3    H2 6904   2.479   3.835   2.817 -1.1105 -0.2922 -0.7217
 2300TIP3   OH2 6905   0.460   2.544   0.164 -0.7769 -0.2907 -0.4552
 2300TIP3    H1 6906   0.521   2.489   0.214 -1.1681 -0.2439  0.0852
 2300TIP3    H2 6907   0.386   2.486   0.144  1.1061 -1.6281 -4.6801
 2301TIP3   OH2 6908   3.584   3.619   2.701 -0.3028  0.2265  0.1148
 2301TIP3    H1 6909   3.651   3.555   2.724  0.5742  0.8492 -0.6217
 2301TIP3    H2 6910   3.603   3.695   2.756 -1.8079 -0.3667  1.5569
 2302TIP3   OH2 6911   2.936   4.346   2.446 -0.6113 -0.4399 -0.0100
 2302TIP3    H1 6912   2.973   4.341   2.358 -1.2941 -1.9130 -0.2464
 2302TIP3    H2 6913   2.998   4.398   2.495  0.7361 -1.1482 -0.8999
 2303TIP3   OH2 6914   4.859   2.228   4.383 -0.4525 -0.0159 -0.1624
 2303TIP3    H1 6915   4.814   2.203   4.303 -0.6566  0.9659 -0.3597
 2303TIP3    H2 6916   4.802   2.196   4.453 -0.3287 -0.7740 -0.3997
 2304TIP3   OH2 6917   5.887   1.245   4.966 -0.1728 -0.4569  0.4339
 2304TIP3    H1 6918   5.959   1.260   4.904  0.3295 -1.4539  0.7487
 2304TIP3    H2 6919   5.919   1.174   5.022 -1.5734 -1.2110  0.3141
 2305TIP3   OH2 6920   1.629   3.200   4.894 -0.2242  0.5479 -0.3840
 2305TIP3    H1 6921   1.539   3.230   4.902  0.2706  1.6215  2.1076
 2305TIP3    H2 6922   1.646   3.152   4.975  0.8307 -1.5088 -1.7421
 2306TIP3   OH2 6923   1.286   0.753   3.325 -0.2293  0.0636  0.5177
 2306TIP3    H1 6924   1.235   0.823   3.283 -0.4290  0.4010  1.3135
 2306TIP3    H2 6925   1.375   0.788   3.328 -0.2521  0.1183  0.5561
 2307TIP3   OH2 6926   6.140   0.353   3.813 -0.3684  0.5933  0.6592
 2307TIP3    H1 6927   6.161   0.276   3.866 -0.9431  0.3543  0.5442
 2307TIP3    H2 6928   6.219   0.407   3.818  0.1927 -0.1899  0.3998
 2308TIP3   OH2 6929   5.912   2.144   3.084  0.5388 -0.2281  0.4124
 2308TIP3    H1 6930   5.979   2.205   3.114  0.5280 -0.4935  0.9916
 2308TIP3    H2 6931   5.850   2.198   3.035  0.8990  0.1051  0.3169
 2309TIP3   OH2 6932   3.665   5.779   3.518  0.3127  0.2627  0.2098
 2309TIP3    H1 6933   3.592   5.749   3.463  0.4152  0.9064 -0.2777
 2309TIP3    H2 6934   3.624   5.834   3.584 -0.0906 -2.0666  2.0472
 2310TIP3   OH2 6935   0.726   4.917   0.470 -0.0959 -0.1557 -0.2468
 2310TIP3    H1 6936   0.661   4.893   0.404 -0.4963  0.6429 -0.1620
 2310TIP3    H2 6937   0.689   4.994   0.513 -0.2145 -1.1416  1.4810
 2311TIP3   OH2 6938   2.456   0.837   3.066  0.2043  0.1375 -0.3766
 2311TIP3    H1 6939   2.522   0.803   3.126 -0.4444  0.5756  0.6103
 2311TIP3    H2 6940   2.392   0.881   3.122 -0.1768  0.9860 -1.4277
 2312TIP3   OH2 6941   5.753   0.159   4.701  0.9122 -0.0436 -0.3974
 2312TIP3    H1 6942   5.727   0.166   4.793 -0.1920 -2.0517 -0.5098
 2312TIP3    H2 6943   5.708   0.231   4.658 -1.4303 -1.1203  0.0897
 2313TIP3   OH2 6944   2.573   3.747   1.435 -0.0499 -0.0516  0.3591
 2313TIP3    H1 6945   2.486   3.780   1.458  0.1542  1.0329 -0.3770
 2313TIP3    H2 6946   2.556   3.663   1.393 -0.8483  0.6463 -0.7638
 2314TIP3   OH2 6947   1.704   1.866   2.304  0.3070 -0.3525  1.0511
 2314TIP3    H1 6948   1.755   1.887   2.382 -0.0323 -2.1290  1.7896
 2314TIP3    H2 6949   1.629   1.816   2.337 -1.3655  1.2539 -0.1233
 2315TIP3   OH2 6950   5.986   1.416   0.249  0.4726 -0.2426  0.6636
 2315TIP3    H1 6951   6.037   1.366   0.313  0.1634 -1.2251  0.1620
 2315TIP3    H2 6952   5.934   1.351   0.203  1.9730  0.1410 -1.8194
 2316TIP3   OH2 6953   0.979   0.318   1.643 -0.0259 -0.7123 -0.5637
 2316TIP3    H1 6954   0.988   0.301   1.549 -0.1623 -2.2523 -0.3235
 2316TIP3    H2 6955   0.886   0.304   1.661  0.1601 -1.3381 -0.0469
 2317TIP3   OH2 6956   0.659   4.426   3.057  0.0396 -0.4343  1.0201
 2317TIP3    H1 6957   0.676   4.334   3.035  3.7461  0.6723 -1.6030
 2317TIP3    H2 6958   0.744   4.461   3.082 -0.6758  2.9143 -0.7189
 2318TIP3   OH2 6959   4.082   3.146   0.908  0.3060 -0.4936  0.0110
 2318TIP3    H1 6960   4.050   3.112   0.824  0.4620 -0.4044 -0.0856
 2318TIP3    H2 6961   4.098   3.068   0.961 -0.5652 -0.5227  0.2452
 2319TIP3   OH2 6962   0.653   2.655   4.941  0.1381 -0.5578 -0.0002
 2319TIP3    H1 6963   0.625   2.565   4.924 -0.2317 -0.8005  1.7125
 2319TIP3    H2 6964   0.575   2.699   4.973  0.0076  0.7454 -1.9535
 2320TIP3   OH2 6965   5.773   0.584   3.921  0.2110 -0.2745  0.6827
 2320TIP3    H1 6966   5.812   0.499   3.944  1.2506 -0.3467 -1.1400
 2320TIP3    H2 6967   5.846   0.646   3.926  0.0653  0.0107 -0.5644
 2321TIP3   OH2 6968   1.225   0.464   4.277  0.0960 -0.1692  0.4245
 2321TIP3    H1 6969   1.173   0.505   4.208 -0.9083 -1.2336  0.5126
 2321TIP3    H2 6970   1.277   0.535   4.314  0.1700  0.5396 -0.9869
 2322TIP3   OH2 6971   2.066   3.407   1.880  0.2423 -0.0325 -0.0411
 2322TIP3    H1 6972   2.065   3.450   1.795  0.9211  0.3350  0.1351
 2322TIP3    H2 6973   2.014   3.464   1.936 -2.0834 -1.3572 -0.7021
 2323TIP3   OH2 6974   4.057   5.535   1.304 -0.3159 -0.2180 -0.1876
 2323TIP3    H1 6975   4.079   5.475   1.375 -0.2615 -1.7638 -1.4355
 2323TIP3    H2 6976   4.064   5.482   1.225  0.0206  1.5374 -1.4025
 2324TIP3   OH2 6977   2.236   3.612   3.230 -0.2966  0.1722 -0.0792
 2324TIP3    H1 6978   2.146   3.595   3.201 -0.1691  0.9241 -0.9726
 2324TIP3    H2 6979   2.291   3.564   3.168 -0.0607  0.6349 -0.2410
 2325TIP3   OH2 6980   5.495   2.614   1.736  0.2361 -0.3332 -0.0026
 2325TIP3    H1 6981   5.438   2.539   1.722 -1.4713  0.7765  0.7590
 2325TIP3    H2 6982   5.484   2.636   1.828  1.3497  0.3625 -0.0183
 2326TIP3   OH2 6983   5.552   5.188   0.802 -0.5663 -0.2966 -0.2968
 2326TIP3    H1 6984   5.586   5.229   0.882 -1.4636 -0.9288  0.4278
 2326TIP3    H2 6985   5.548   5.094   0.823 -0.2315 -0.5522 -1.3053
 2327TIP3   OH2 6986   1.705   2.427   1.797  0.0539 -0.3122  0.0503
 2327TIP3    H1 6987   1.701   2.331   1.795 -0.6082 -0.2790 -0.4148
 2327TIP3    H2 6988   1.626   2.455   1.751  1.3252  0.4570 -1.7541
 2328TIP3   OH2 6989   3.130   3.809   2.308  0.1504 -0.1850 -0.9358
 2328TIP3    H1 6990   3.177   3.842   2.385 -0.0989  0.1886 -0.9447
 2328TIP3    H2 6991   3.063   3.875   2.290  0.1240 -0.3350 -1.3972
 2329TIP3   OH2 6992   1.345   0.721   4.377 -0.4294 -0.3258  0.1832
 2329TIP3    H1 6993   1.270   0.699   4.432  0.0806  1.8814  1.9004
 2329TIP3    H2 6994   1.421   0.710   4.435  0.2629  0.6375 -0.5124
 2330TIP3   OH2 6995   0.882   2.128   3.065 -0.3471  0.3763  0.3211
 2330TIP3    H1 6996   0.879   2.042   3.108  1.5566  0.9662  1.8033
 2330TIP3    H2 6997   0.921   2.186   3.131  1.3216  1.6941 -1.7036
 2331TIP3   OH2 6998   3.685   1.699   2.420  0.0572 -0.1356  0.5893
 2331TIP3    H1 6999   3.723   1.664   2.339 -2.1352  0.8460 -0.9690
 2331TIP3    H2 7000   3.751   1.761   2.452  0.5262  0.2834 -1.0780
 2332TIP3   OH2 7001   4.131   4.508   4.896  0.3782 -0.0884  0.8048
 2332TIP3    H1 7002   4.156   4.452   4.969 -2.0407  0.1320  1.9253
 2332TIP3    H2 7003   4.079   4.451   4.839  0.6138  0.2202  0.2764
 2333TIP3   OH2 7004   4.809   1.946   1.047 -0.3560  0.1261 -0.5662
 2333TIP3    H1 7005   4.824   1.974   0.957  0.7447  1.2529 -0.0601
 2333TIP3    H2 7006   4.726   1.987   1.071 -0.6764 -0.2120 -1.0627
 2334TIP3   OH2 7007   1.741   1.413   3.869 -0.6979  0.1433  0.7876
 2334TIP3    H1 7008   1.737   1.465   3.950 -0.4600  1.6315 -0.1182
 2334TIP3    H2 7009   1.677   1.455   3.811  1.0939  0.8492 -0.7504
 2335TIP3   OH2 7010   1.815   1.848   0.968  0.3903 -0.7560 -0.3867
 2335TIP3    H1 7011   1.752   1.896   1.021  0.7293 -0.0303 -0.6345
 2335TIP3    H2 7012   1.765   1.776   0.930  0.0424 -1.0179  0.5489
 2336TIP3   OH2 7013   4.548   3.746   3.218 -0.2015 -0.2700 -0.4046
 2336TIP3    H1 7014   4.463   3.732   3.259  0.8112 -2.1978  1.2192
 2336TIP3    H2 7015   4.528   3.772   3.128 -2.4880  0.7381  0.3506
 2337TIP3   OH2 7016   3.994   1.860   0.492  0.0290 -0.0818  0.3639
 2337TIP3    H1 7017   3.926   1.821   0.548  0.8322 -3.2525 -0.6583
 2337TIP3    H2 7018   3.961   1.847   0.403  0.8292  0.6973 -0.0550
 2338TIP3   OH2 7019   0.932   3.485   4.782  0.5587  0.0529  0.4348
 2338TIP3    H1 7020   0.967   3.440   4.859 -0.2538  0.2712  0.9431
 2338TIP3    H2 7021   0.838   3.492   4.799  0.3990  0.2696 -0.4983
 2339TIP3   OH2 7022   1.154   1.157   3.801 -0.9671 -0.0351  0.2151
 2339TIP3    H1 7023   1.185   1.068   3.786  0.0975 -0.0673  2.3173
 2339TIP3    H2 7024   1.059   1.150   3.795 -0.8860 -1.2324  0.0355
 2340TIP3   OH2 7025   4.027   0.010   3.516  0.2728 -0.1882 -0.4675
 2340TIP3    H1 7026   4.041   0.072   3.445 -0.5345 -1.1875 -1.5175
 2340TIP3    H2 7027   4.082   0.044   3.588  0.6658  1.1339 -1.3572
 2341TIP3   OH2 7028   3.355   1.635   2.884 -0.2625  0.0581  0.1678
 2341TIP3    H1 7029   3.341   1.707   2.823  0.0950 -0.6112 -0.7175
 2341TIP3    H2 7030   3.429   1.586   2.848  0.5482  0.1539  1.6060
 2342TIP3   OH2 7031   3.676   2.723   0.049  0.1601  0.1043  0.0785
 2342TIP3    H1 7032   3.624   2.798   0.081  0.3511  0.0381  0.5533
 2342TIP3    H2 7033   3.610   2.658   0.023 -0.0369  0.8780 -1.4660
 2343TIP3   OH2 7034   2.321   1.340   2.316 -0.0691 -0.5929 -0.3320
 2343TIP3    H1 7035   2.227   1.324   2.313 -0.4766  1.4570  0.0385
 2343TIP3    H2 7036   2.331   1.416   2.374  1.7167 -0.0677 -1.2419
 2344TIP3   OH2 7037   0.337   4.904   4.725  0.3985 -0.4629 -0.2916
 2344TIP3    H1 7038   0.378   4.935   4.644  1.5658  0.7807  0.7298
 2344TIP3    H2 7039   0.410   4.882   4.782 -0.4097 -2.6942 -0.0399
 2345TIP3   OH2 7040   6.145   5.451   3.008 -0.7329 -0.1438  0.4960
 2345TIP3    H1 7041   6.117   5.516   2.944 -0.0207  0.5513  0.8806
 2345TIP3    H2 7042   6.068   5.434   3.061 -1.2040 -0.3913 -0.2485
 2346TIP3   OH2 7043   2.935   5.082   4.027  0.3571  0.0432  0.2041
 2346TIP3    H1 7044   2.908   4.990   4.024  1.3712 -0.2464 -0.5013
 2346TIP3    H2 7045   2.896   5.122   3.949 -0.9633  0.4871  1.0579
 2347TIP3   OH2 7046   4.932   0.198   1.631 -0.3449  0.2684  0.1848
 2347TIP3    H1 7047   5.028   0.189   1.625 -0.3328  0.8804 -0.7201
 2347TIP3    H2 7048   4.918   0.291   1.652 -0.7498  0.2519 -0.0071
 2348TIP3   OH2 7049   5.881   5.272   2.884  0.5818 -0.0745 -0.1315
 2348TIP3    H1 7050   5.874   5.289   2.978  2.0817  1.3589 -0.2226
 2348TIP3    H2 7051   5.801   5.310   2.847  0.6156  0.5672  0.4352
 2349TIP3   OH2 7052   2.691   4.964   3.348  0.0140 -0.4743 -0.0137
 2349TIP3    H1 7053   2.721   5.054   3.363 -1.1748  0.9780 -4.7758
 2349TIP3    H2 7054   2.597   4.968   3.367  0.3635 -1.6121  2.4023
 2350TIP3   OH2 7055   2.613   5.807   1.967 -0.2110 -0.2230 -0.5410
 2350TIP3    H1 7056   2.663   5.849   1.898  0.7113 -1.2179 -0.4978
 2350TIP3    H2 7057   2.624   5.863   2.044 -0.7554  0.5690 -1.0278
 2351TIP3   OH2 7058   4.546   2.288   2.920  0.0778  0.6061 -0.4988
 2351TIP3    H1 7059   4.475   2.295   2.984  0.3572  1.0555 -0.2317
 2351TIP3    H2 7060   4.623   2.320   2.966  0.3694  0.5181 -0.9211
 2352TIP3   OH2 7061   3.694   0.391   4.164  0.3667  0.0431 -0.3504
 2352TIP3    H1 7062   3.732   0.320   4.113 -0.7750 -1.4968  0.8476
 2352TIP3    H2 7063   3.601   0.391   4.138 -0.0401 -0.1876  1.0609
 2353TIP3   OH2 7064   5.582   2.385   3.167  0.9532  0.2858 -0.1135
 2353TIP3    H1 7065   5.546   2.382   3.256  3.1770 -0.6153  0.8387
 2353TIP3    H2 7066   5.598   2.293   3.145  0.6651  0.5233 -1.3587
 2354TIP3   OH2 7067   5.145   2.291   4.431 -0.1513 -0.3291 -0.0098
 2354TIP3    H1 7068   5.158   2.326   4.518  0.0147  0.4345 -0.3358
 2354TIP3    H2 7069   5.055   2.257   4.432 -0.7651  1.2063 -0.0455
 2355TIP3   OH2 7070   5.035   5.135   3.439 -0.1425  0.1027  0.1111
 2355TIP3    H1 7071   4.961   5.193   3.425 -0.0010  0.0449 -0.9482
 2355TIP3    H2 7072   5.032   5.073   3.366  0.0832 -0.8335  0.8720
 2356TIP3   OH2 7073   1.087   1.595   4.875  0.0563  0.3571  0.1575
 2356TIP3    H1 7074   1.146   1.521   4.891  1.4456  1.2980 -0.3829
 2356TIP3    H2 7075   1.003   1.567   4.912  1.0501 -0.6970  1.7620
 2357TIP3   OH2 7076   5.272   2.819   1.741 -0.4801  0.1730 -0.1941
 2357TIP3    H1 7077   5.215   2.780   1.807  0.8664  0.3201  1.1035
 2357TIP3    H2 7078   5.279   2.752   1.673 -0.0833 -0.9242  0.8897
 2358TIP3   OH2 7079   0.587   0.739   3.454  0.3352 -0.1783  0.0741
 2358TIP3    H1 7080   0.543   0.734   3.539 -1.5205 -1.8667 -0.8941
 2358TIP3    H2 7081   0.679   0.722   3.474  0.2960  1.3621  1.9353
 2359TIP3   OH2 7082   0.671   1.207   0.924 -0.2593 -0.1137 -0.5800
 2359TIP3    H1 7083   0.760   1.188   0.954 -0.3985  1.1307  0.7727
 2359TIP3    H2 7084   0.662   1.159   0.842  2.0610  0.6434 -1.3533
 2360TIP3   OH2 7085   1.191   1.483   3.366 -0.3505 -0.8347  0.0983
 2360TIP3    H1 7086   1.205   1.390   3.347 -1.8611 -0.8355 -1.1620
 2360TIP3    H2 7087   1.215   1.529   3.286 -1.5323 -0.3283  0.0154
 2361TIP3   OH2 7088   3.615   2.134   4.817  0.0292 -0.0340  0.0915
 2361TIP3    H1 7089   3.668   2.200   4.861  0.0002  0.5979 -0.7938
 2361TIP3    H2 7090   3.583   2.177   4.738 -0.9569 -0.7403  0.0875
 2362TIP3   OH2 7091   6.009   0.406   3.570  0.4485  0.4732 -1.1504
 2362TIP3    H1 7092   5.919   0.398   3.601  0.9086  0.9414  0.3929
 2362TIP3    H2 7093   6.063   0.374   3.642  1.5665  1.5076 -1.4849
 2363TIP3   OH2 7094   0.722   0.104   1.314  0.0058  0.4555  0.0714
 2363TIP3    H1 7095   0.755   0.060   1.393 -0.1935  0.3816  0.1131
 2363TIP3    H2 7096   0.649   0.158   1.344  0.6395  1.3068  0.1236
 2364TIP3   OH2 7097   2.580   5.175   3.153 -0.6183 -0.2649  0.2426
 2364TIP3    H1 7098   2.579   5.153   3.247  0.0752 -0.5009  0.2001
 2364TIP3    H2 7099   2.523   5.251   3.146 -0.6112 -0.1924  0.8744
 2365TIP3   OH2 7100   4.557   4.805   2.375 -0.3086  0.2018 -0.2204
 2365TIP3    H1 7101   4.575   4.864   2.302 -0.0361  0.8721  0.3757
 2365TIP3    H2 7102   4.462   4.807   2.385 -0.4880 -1.0314 -1.4812
 2366TIP3   OH2 7103   1.690   2.418   0.309  0.0228 -0.4643 -0.4872
 2366TIP3    H1 7104   1.684   2.438   0.216  1.2505  2.9895  0.0381
 2366TIP3    H2 7105   1.782   2.399   0.325  0.4215  1.7874  0.3670
 2367TIP3   OH2 7106   3.006   1.748   4.769  0.4996  0.4503 -0.4823
 2367TIP3    H1 7107   2.959   1.709   4.843 -0.2240  1.5366 -0.3511
 2367TIP3    H2 7108   3.083   1.789   4.808  2.0580 -2.0000 -0.7882
 2368TIP3   OH2 7109   2.057   3.610   4.552  0.0675  0.0957  0.5270
 2368TIP3    H1 7110   1.983   3.636   4.607  0.2444  0.6055  0.5299
 2368TIP3    H2 7111   2.063   3.515   4.563  1.1017  0.3441  2.6586
 2369TIP3   OH2 7112   1.046   2.344   1.997  0.3328  0.0678  0.2637
 2369TIP3    H1 7113   1.042   2.303   1.911  1.1509 -0.6405  0.5480
 2369TIP3    H2 7114   1.135   2.377   2.004  0.7174 -1.1194  1.3742
 2370TIP3   OH2 7115   5.960   2.187   5.086 -0.5064  0.0578  0.3439
 2370TIP3    H1 7116   5.912   2.264   5.117 -0.1788  0.7451 -0.8287
 2370TIP3    H2 7117   6.042   2.189   5.136  0.1684  1.3540 -0.7411
 2371TIP3   OH2 7118   5.825   3.587   0.486 -0.6097  0.2827  0.1989
 2371TIP3    H1 7119   5.902   3.608   0.538  0.4233  0.5476 -1.3584
 2371TIP3    H2 7120   5.832   3.493   0.470 -0.7595  0.2572  0.2836
 2372TIP3   OH2 7121   4.816   5.061   1.461  0.4720 -0.0468  0.3886
 2372TIP3    H1 7122   4.842   5.108   1.540 -1.3251 -1.0716  1.6384
 2372TIP3    H2 7123   4.893   5.068   1.404  1.0529  2.5339  1.3349
 2373TIP3   OH2 7124   5.977   0.701   3.141  0.1956  0.0012 -0.3587
 2373TIP3    H1 7125   5.938   0.749   3.214  1.4844  1.6838 -0.6914
 2373TIP3    H2 7126   6.060   0.669   3.175 -0.3127 -1.3799 -0.3751
 2374TIP3   OH2 7127   0.817   0.295   3.925 -0.5691  0.1154 -0.3755
 2374TIP3    H1 7128   0.904   0.279   3.961 -1.4889 -2.3806  0.9409
 2374TIP3    H2 7129   0.761   0.232   3.968 -2.9513  1.2022 -1.6884
 2375TIP3   OH2 7130   0.653   2.035   0.250 -0.0449 -0.0676  0.5801
 2375TIP3    H1 7131   0.709   1.967   0.288  1.6639  0.1944 -1.2838
 2375TIP3    H2 7132   0.696   2.117   0.273 -0.2272  0.1971  0.0035
 2376TIP3   OH2 7133   6.257   3.206   1.546  0.1874 -0.0217 -0.4510
 2376TIP3    H1 7134   6.308   3.125   1.546 -1.0101 -0.8501  1.8828
 2376TIP3    H2 7135   6.185   3.190   1.607 -0.4415  2.5975 -0.3671
 2377TIP3   OH2 7136   4.155   2.295   3.164 -0.4951 -0.5246 -0.2658
 2377TIP3    H1 7137   4.097   2.268   3.235 -0.4773  1.0622  0.4019
 2377TIP3    H2 7138   4.101   2.288   3.085 -1.0083 -0.8451  0.1078
 2378TIP3   OH2 7139   4.103   0.098   3.254  0.0636 -0.1375  0.3219
 2378TIP3    H1 7140   4.169   0.073   3.189 -1.4026 -0.1138 -1.2248
 2378TIP3    H2 7141   4.116   0.192   3.267  0.8697 -0.2876  0.6847
 2379TIP3   OH2 7142   1.832   3.220   2.435 -0.6211 -0.0196  0.0443
 2379TIP3    H1 7143   1.814   3.129   2.411 -0.1063  0.5566 -2.9667
 2379TIP3    H2 7144   1.924   3.220   2.461  0.0719 -0.0362 -2.2505
 2380TIP3   OH2 7145   2.798   3.291   0.932 -0.1821 -0.1305 -0.1741
 2380TIP3    H1 7146   2.867   3.246   0.982 -1.0492 -0.8579  0.4007
 2380TIP3    H2 7147   2.829   3.289   0.842  1.1706  0.7256  0.2311
 2381TIP3   OH2 7148   4.505   4.098   0.398 -0.1408 -0.3415  0.0338
 2381TIP3    H1 7149   4.421   4.110   0.443 -0.9504 -0.0925 -1.4629
 2381TIP3    H2 7150   4.522   4.182   0.357  1.0233 -0.2960  0.5823
 2382TIP3   OH2 7151   0.356   3.851   4.868  0.0680 -0.6990  0.5444
 2382TIP3    H1 7152   0.324   3.763   4.889  1.2438 -1.6972 -1.5405
 2382TIP3    H2 7153   0.424   3.837   4.802 -1.0923  1.8950 -1.3798
 2383TIP3   OH2 7154   3.538   3.276   2.883 -0.0473 -0.1782 -0.1163
 2383TIP3    H1 7155   3.622   3.319   2.870  0.0895 -0.7037 -1.0643
 2383TIP3    H2 7156   3.491   3.333   2.944  1.3352 -0.3573  1.1747
 2384TIP3   OH2 7157   0.106   0.479   3.119  0.5783  0.2170  0.3642
 2384TIP3    H1 7158   0.106   0.422   3.197 -0.6353  1.0165  0.9789
 2384TIP3    H2 7159   0.192   0.520   3.119  0.7383 -0.1041  1.0616
 2385TIP3   OH2 7160   2.110   0.631   5.019 -0.6157 -0.7584  0.1102
 2385TIP3    H1 7161   2.112   0.702   5.084 -1.1786 -2.1926  1.7687
 2385TIP3    H2 7162   2.026   0.643   4.974 -0.2054  0.2699 -0.4221
 2386TIP3   OH2 7163   6.049   0.431   2.910 -0.3475  0.4782  0.0205
 2386TIP3    H1 7164   6.141   0.427   2.935  0.3924  0.6974 -2.3870
 2386TIP3    H2 7165   6.017   0.513   2.947  0.4884  0.5450  0.6142
 2387TIP3   OH2 7166   3.043   5.598   3.653 -0.4227 -0.6173  0.0893
 2387TIP3    H1 7167   2.957   5.597   3.611 -0.0882 -1.6240 -0.6181
 2387TIP3    H2 7168   3.097   5.541   3.599  1.6889  2.5841 -1.5111
 2388TIP3   OH2 7169   2.929   4.126   1.536  0.3135  0.5623 -0.4616
 2388TIP3    H1 7170   2.876   4.050   1.559  0.6010  0.8104  1.0710
 2388TIP3    H2 7171   3.017   4.090   1.518  0.0300  0.3419 -1.5061
 2389TIP3   OH2 7172   2.286   2.058   2.041  0.3482  0.3027  0.1545
 2389TIP3    H1 7173   2.342   2.002   1.987  0.4681  0.5890 -0.0208
 2389TIP3    H2 7174   2.246   1.999   2.104  0.2792 -0.0250 -0.1910
 2390TIP3   OH2 7175   3.947   0.382   1.818  0.1334 -0.3323  0.4091
 2390TIP3    H1 7176   3.990   0.467   1.829  1.3928 -0.6899 -1.3431
 2390TIP3    H2 7177   3.883   0.397   1.749  0.5033 -0.8563 -0.0494
 2391TIP3   OH2 7178   3.013   2.871   3.782  0.4039 -0.0610  0.1027
 2391TIP3    H1 7179   3.023   2.852   3.689 -2.4885  0.1101 -0.3326
 2391TIP3    H2 7180   2.968   2.793   3.817 -0.1151  0.6030  0.9546
 2392TIP3   OH2 7181   4.860   4.807   1.017 -0.3054  0.1880 -0.4971
 2392TIP3    H1 7182   4.839   4.861   1.093 -0.6915 -0.7236  0.0736
 2392TIP3    H2 7183   4.943   4.764   1.040 -1.5180 -1.8327  0.4529
 2393TIP3   OH2 7184   3.487   3.342   1.345 -0.1456 -0.4540 -0.0461
 2393TIP3    H1 7185   3.416   3.287   1.310  0.7433 -0.0609 -2.7018
 2393TIP3    H2 7186   3.526   3.382   1.267  1.6454  1.0027  1.5231
 2394TIP3   OH2 7187   0.478   4.269   0.597  0.1748 -0.1309 -0.1935
 2394TIP3    H1 7188   0.436   4.211   0.534 -0.2868  0.8856 -0.8572
 2394TIP3    H2 7189   0.562   4.292   0.557 -0.4071  1.0573 -0.8047
 2395TIP3   OH2 7190   5.361   4.778   3.125  0.3944 -0.0990  0.0777
 2395TIP3    H1 7191   5.339   4.855   3.177  2.0457  0.9382 -0.6970
 2395TIP3    H2 7192   5.394   4.714   3.188 -1.3136 -0.3573  0.7705
 2396TIP3   OH2 7193   0.226   0.666   4.766 -0.5035  0.0349 -0.1703
 2396TIP3    H1 7194   0.171   0.673   4.688 -1.3094 -0.1247  0.3731
 2396TIP3    H2 7195   0.254   0.574   4.768  0.2505  0.2304 -0.7353
 2397TIP3   OH2 7196   5.948   1.508   5.087  0.0418 -0.2801 -0.3009
 2397TIP3    H1 7197   5.920   1.422   5.057 -1.1030  0.2387 -0.8062
 2397TIP3    H2 7198   6.042   1.512   5.070 -0.3346 -0.4798 -2.6554
 2398TIP3   OH2 7199   1.988   2.757   2.169 -0.0853 -0.1604  0.3256
 2398TIP3    H1 7200   1.977   2.697   2.242  1.5941 -1.9540 -0.8238
 2398TIP3    H2 7201   2.073   2.798   2.183 -0.4010  0.6016  0.1158
 2399TIP3   OH2 7202   3.911   1.146   0.123  0.0418  0.2482 -0.0471
 2399TIP3    H1 7203   3.837   1.182   0.173  0.3233 -0.1147  0.6502
 2399TIP3    H2 7204   3.922   1.057   0.157  2.4755  1.1386  1.7861
 2400TIP3   OH2 7205   1.631   4.499   4.058  0.0709 -0.0580  0.2502
 2400TIP3    H1 7206   1.669   4.577   4.017  0.0128 -0.4129 -0.4906
 2400TIP3    H2 7207   1.553   4.532   4.103  0.8306  0.5539  1.1709
 2401TIP3   OH2 7208   0.536   5.227   0.234 -0.2256 -0.0153  0.0444
 2401TIP3    H1 7209   0.503   5.168   0.167  1.3949 -0.8047 -0.0937
 2401TIP3    H2 7210   0.631   5.215   0.234 -0.1242  0.2001  2.2346
 2402TIP3   OH2 7211   2.306   1.966   3.395  0.3073 -0.3625 -0.1438
 2402TIP3    H1 7212   2.302   1.879   3.435  1.6914 -0.3221  0.1193
 2402TIP3    H2 7213   2.312   2.025   3.470 -1.0799  0.0156 -0.3043
 2403TIP3   OH2 7214   5.039   1.646   4.722  0.4915 -0.2394  0.0436
 2403TIP3    H1 7215   4.963   1.687   4.764  0.9339  0.7821 -0.1104
 2403TIP3    H2 7216   5.097   1.623   4.794 -0.0582 -1.2689  0.1826
 2404TIP3   OH2 7217   0.869   4.926   2.503 -0.1330  0.3222  0.2491
 2404TIP3    H1 7218   0.878   4.850   2.560 -2.0106 -0.2192 -0.0915
 2404TIP3    H2 7219   0.951   4.975   2.513 -0.4419  0.3615  3.5045
 2405TIP3   OH2 7220   1.954   2.293   1.646  0.0385  0.1366 -0.2569
 2405TIP3    H1 7221   1.977   2.305   1.738  0.4103  0.3652 -0.3758
 2405TIP3    H2 7222   1.921   2.204   1.640  1.0635 -0.2654 -0.1080
 2406TIP3   OH2 7223   4.559   3.118   1.722  0.1195 -0.0693 -0.5393
 2406TIP3    H1 7224   4.574   3.211   1.737 -0.5700  0.0830 -0.7373
 2406TIP3    H2 7225   4.543   3.081   1.809 -0.2569  0.1250 -0.5228
 2407TIP3   OH2 7226   5.522   2.858   0.013 -0.4421  0.3997  0.5266
 2407TIP3    H1 7227   5.498   2.784  -0.043  0.4601  1.3600 -1.2084
 2407TIP3    H2 7228   5.612   2.840   0.039  0.0316  1.2057 -0.4946
 2408TIP3   OH2 7229   4.518   3.290   0.786  0.8275 -1.0972 -0.3686
 2408TIP3    H1 7230   4.458   3.348   0.738  2.3393 -0.3148 -1.3970
 2408TIP3    H2 7231   4.483   3.288   0.875  1.4297  2.5839  0.1297
 2409TIP3   OH2 7232   4.376   5.124   4.712  0.2985  0.5205  0.7442
 2409TIP3    H1 7233   4.375   5.064   4.787 -0.8066 -0.4291  0.0066
 2409TIP3    H2 7234   4.287   5.117   4.676  0.8258  0.9466 -0.6670
 2410TIP3   OH2 7235   5.393   2.045   1.635  0.1997 -0.3222  0.2886
 2410TIP3    H1 7236   5.357   1.962   1.604  0.7658 -1.0576  1.5310
 2410TIP3    H2 7237   5.426   2.026   1.723 -1.3182  1.6687  1.3620
 2411TIP3   OH2 7238   4.776   4.148   1.614 -0.2500 -0.0722  0.1269
 2411TIP3    H1 7239   4.862   4.191   1.608 -0.0869 -0.3561  0.4142
 2411TIP3    H2 7240   4.717   4.218   1.641 -0.1326  0.1525 -0.1841
 2412TIP3   OH2 7241   2.352   2.141   3.773  0.0627  0.4790 -0.1518
 2412TIP3    H1 7242   2.284   2.161   3.709  1.0292  0.4001 -1.2417
 2412TIP3    H2 7243   2.354   2.045   3.776  0.7224  0.4599 -0.8137
 2413TIP3   OH2 7244   2.359   3.467   1.034 -0.2069 -0.5724  1.1133
 2413TIP3    H1 7245   2.402   3.489   1.116 -0.2812 -0.5341  1.1417
 2413TIP3    H2 7246   2.292   3.534   1.023 -0.1271 -0.5157  0.9685
 2414TIP3   OH2 7247   0.916   4.635   4.649  0.3038 -0.1864 -0.1488
 2414TIP3    H1 7248   0.852   4.578   4.692  0.8994 -0.2302  0.7144
 2414TIP3    H2 7249   0.885   4.643   4.559  0.8724 -2.8931 -0.6551
 2415TIP3   OH2 7250   3.463   3.759   3.499  0.3180  0.6577 -0.4202
 2415TIP3    H1 7251   3.429   3.727   3.582 -2.4476  0.8871 -1.3506
 2415TIP3    H2 7252   3.527   3.693   3.472 -2.6218 -2.3868 -0.6065
 2416TIP3   OH2 7253   4.837   1.883   2.258 -0.4914  0.0198 -0.2092
 2416TIP3    H1 7254   4.866   1.971   2.282  1.0178 -0.2436 -0.9620
 2416TIP3    H2 7255   4.904   1.825   2.293 -1.4423 -0.8528  0.2413
 2417TIP3   OH2 7256   0.914   5.915   4.015  0.1555  0.1274 -0.2920
 2417TIP3    H1 7257   0.894   5.962   4.096 -1.2476 -0.1856 -0.4296
 2417TIP3    H2 7258   0.972   5.974   3.967  0.7030  0.4804  0.7661
 2418TIP3   OH2 7259   0.514   5.059   3.880  0.3903  0.2962 -0.2473
 2418TIP3    H1 7260   0.495   5.110   3.959  0.0922  0.7173 -0.5885
 2418TIP3    H2 7261   0.554   4.978   3.913  0.4404  0.5496  0.3226
 2419TIP3   OH2 7262   5.565   4.899   0.917  0.1376  0.1375 -0.1263
 2419TIP3    H1 7263   5.566   4.825   0.857  1.0830 -0.9660  1.1902
 2419TIP3    H2 7264   5.635   4.881   0.980  0.1327  1.9494  0.4825
 2420TIP3   OH2 7265   6.078   3.343   3.532 -0.1262  0.4674  0.1378
 2420TIP3    H1 7266   5.990   3.359   3.497  0.2395  1.0904 -0.5407
 2420TIP3    H2 7267   6.090   3.411   3.598  0.2022  1.0127 -0.4640
 2421TIP3   OH2 7268   4.738   0.906   0.059  0.0352  0.4663 -0.3707
 2421TIP3    H1 7269   4.693   0.988   0.038 -0.9396  0.2182  0.6764
 2421TIP3    H2 7270   4.668   0.844   0.079  0.7735  0.3836  2.4903
 2422TIP3   OH2 7271   4.813   5.119   0.606 -0.3632 -0.0501  0.6630
 2422TIP3    H1 7272   4.730   5.073   0.596 -0.1136 -0.2329 -0.8402
 2422TIP3    H2 7273   4.875   5.052   0.635  0.5380 -1.4026 -3.6652
 2423TIP3   OH2 7274   5.985   5.067   2.425  0.0615  0.4533  0.4723
 2423TIP3    H1 7275   5.987   4.975   2.454  0.9524  0.3538  0.1461
 2423TIP3    H2 7276   5.959   5.116   2.503  2.0258  0.1493  1.3797
 2424TIP3   OH2 7277   5.419   0.126   4.226 -0.0026 -0.3418  0.0170
 2424TIP3    H1 7278   5.326   0.145   4.214 -0.2557 -1.1173  0.6739
 2424TIP3    H2 7279   5.451   0.107   4.138 -0.1955  1.0304 -0.3718
 2425TIP3   OH2 7280   3.396   0.966   1.186 -0.6237  0.1788  0.3010
 2425TIP3    H1 7281   3.424   1.055   1.161 -2.8710  1.2020  1.1938
 2425TIP3    H2 7282   3.432   0.954   1.274 -0.6494  0.3676  0.3387
 2426TIP3   OH2 7283   3.451   5.812   1.475  0.1393 -0.0219  0.4643
 2426TIP3    H1 7284   3.447   5.719   1.454 -1.6255  0.0909  0.2002
 2426TIP3    H2 7285   3.505   5.850   1.406 -1.0587 -0.5009 -0.7680
 2427TIP3   OH2 7286   0.387   1.418   2.747 -0.0132 -0.3430  0.3226
 2427TIP3    H1 7287   0.349   1.401   2.833  1.6041 -2.4574  0.6899
 2427TIP3    H2 7288   0.465   1.470   2.765 -0.7111  0.8813 -0.0868
 2428TIP3   OH2 7289   0.344   4.014   3.749  0.6442  0.5665  0.0612
 2428TIP3    H1 7290   0.423   3.980   3.792  1.0954  0.5999 -0.7153
 2428TIP3    H2 7291   0.374   4.094   3.705 -0.2873  1.7508  1.4686
 2429TIP3   OH2 7292   4.436   0.421   3.920 -0.6932  0.4873  0.4235
 2429TIP3    H1 7293   4.461   0.333   3.892 -0.6288  0.3161  0.9967
 2429TIP3    H2 7294   4.453   0.477   3.844  0.5732  0.2299  0.4984
 2430TIP3   OH2 7295   2.149   2.451   3.180 -0.1091  0.1644 -0.6684
 2430TIP3    H1 7296   2.087   2.467   3.251  0.0477  1.1319 -0.7348
 2430TIP3    H2 7297   2.094   2.442   3.102 -0.2310  0.0161 -0.5641
 2431TIP3   OH2 7298   4.419   4.014   3.581 -0.4859 -0.2861  0.5256
 2431TIP3    H1 7299   4.455   3.925   3.580 -1.0422 -0.5228 -0.5758
 2431TIP3    H2 7300   4.422   4.041   3.489  1.5324  1.6174  1.0636
 2432TIP3   OH2 7301   3.308   1.853   2.701 -0.1681  0.5132 -0.3768
 2432TIP3    H1 7302   3.221   1.893   2.691  0.8807  2.8855 -0.7240
 2432TIP3    H2 7303   3.369   1.922   2.675  1.8622 -0.9241  0.3324
 2433TIP3   OH2 7304   1.532   1.477   4.626  0.0055 -0.6592 -0.1167
 2433TIP3    H1 7305   1.583   1.433   4.558 -1.1965 -2.0764 -0.1460
 2433TIP3    H2 7306   1.442   1.474   4.594 -0.4530 -0.5183  1.1255
 2434TIP3   OH2 7307   2.870   1.461   2.387  0.0253  0.2897  0.1150
 2434TIP3    H1 7308   2.897   1.546   2.353  0.2512  1.7318  3.4813
 2434TIP3    H2 7309   2.947   1.405   2.376  0.8857  1.3766  0.3861
 2435TIP3   OH2 7310   1.775   2.079   0.827 -0.1784  0.1280  0.1169
 2435TIP3    H1 7311   1.837   2.011   0.855  1.7874  1.4176 -0.9485
 2435TIP3    H2 7312   1.734   2.043   0.749  0.9747  0.1929 -0.5400
 2436TIP3   OH2 7313   1.402   0.483   1.721  0.4453  0.0416  0.3353
 2436TIP3    H1 7314   1.409   0.434   1.639  0.7718  0.6895 -0.0345
 2436TIP3    H2 7315   1.492   0.494   1.750  0.4175  0.8744  0.1312
 2437TIP3   OH2 7316   3.412   0.664   3.288 -0.0610 -0.0012 -0.2331
 2437TIP3    H1 7317   3.481   0.723   3.257  0.0992 -0.1275 -0.1160
 2437TIP3    H2 7318   3.452   0.615   3.359 -0.5340  0.5406  0.4236
 2438TIP3   OH2 7319   0.511   4.645   2.985 -0.2496  0.2646 -0.1401
 2438TIP3    H1 7320   0.571   4.719   2.991  0.4862 -0.2853 -0.5811
 2438TIP3    H2 7321   0.552   4.577   3.039 -0.8327  0.1255  0.1283
 2439TIP3   OH2 7322   6.042   1.553   1.599  0.6815 -0.3878  0.5437
 2439TIP3    H1 7323   6.126   1.551   1.554  0.9772  0.6477  1.0218
 2439TIP3    H2 7324   5.977   1.543   1.529  1.1532  0.6221 -0.0537
 2440TIP3   OH2 7325   4.101   2.035   1.028  0.1008 -0.1410 -0.5428
 2440TIP3    H1 7326   4.180   1.980   1.030  2.0805  2.5302 -0.3687
 2440TIP3    H2 7327   4.133   2.122   1.005 -3.1460  0.6151 -2.9391
 2441TIP3   OH2 7328   4.258   3.898   0.690  0.6693 -0.1421 -0.3808
 2441TIP3    H1 7329   4.253   3.976   0.745  1.7651 -1.0438  1.0935
 2441TIP3    H2 7330   4.171   3.859   0.695  1.0582 -0.8914  1.8743
 2442TIP3   OH2 7331   4.320   1.795   4.251  0.5133 -0.1131  0.1894
 2442TIP3    H1 7332   4.254   1.793   4.320  0.1064  0.8442 -0.1625
 2442TIP3    H2 7333   4.337   1.703   4.232 -0.6253 -0.3770  0.3675
 2443TIP3   OH2 7334   5.937   0.985   2.149 -0.7644 -0.7429  0.6043
 2443TIP3    H1 7335   5.998   1.050   2.115  0.2254 -1.8399  0.2145
 2443TIP3    H2 7336   5.924   1.010   2.240 -0.9612  0.3996  0.2799
 2444TIP3   OH2 7337   2.536   0.636   2.907  0.1084  0.7824 -0.0853
 2444TIP3    H1 7338   2.465   0.604   2.964  1.8339  0.2872  1.9144
 2444TIP3    H2 7339   2.537   0.731   2.922  0.1492  0.7319  0.2494
 2445TIP3   OH2 7340   0.128   4.715  -0.010  0.2370  0.0981 -0.2786
 2445TIP3    H1 7341   0.122   4.620  -0.021  1.8156 -0.1978  1.0499
 2445TIP3    H2 7342   0.050   4.738   0.041 -1.1107 -0.1775 -2.1381
 2446TIP3   OH2 7343   5.298   2.464   1.621 -0.3018 -0.5829  0.2511
 2446TIP3    H1 7344   5.270   2.497   1.536  1.3660 -1.2942 -0.6396
 2446TIP3    H2 7345   5.323   2.373   1.604 -1.9886 -1.4268  1.9884
 2447TIP3   OH2 7346   3.031   1.446   1.549  0.4090  0.2725  0.0216
 2447TIP3    H1 7347   3.041   1.382   1.478 -1.4661 -0.0790  0.0060
 2447TIP3    H2 7348   3.002   1.393   1.624  1.2181  0.8008  0.7218
 2448TIP3   OH2 7349   5.845   5.827   2.033 -0.1627  0.3191 -0.2776
 2448TIP3    H1 7350   5.934   5.794   2.024 -0.6525 -1.1253 -0.2241
 2448TIP3    H2 7351   5.846   5.913   1.991  1.4709  0.7656  0.5909
 2449TIP3   OH2 7352   0.275   4.733   0.506 -0.4020  0.2450  0.0433
 2449TIP3    H1 7353   0.232   4.648   0.516  0.7167 -0.4190 -0.5121
 2449TIP3    H2 7354   0.235   4.789   0.572 -0.0317 -1.1780  1.5373
 2450TIP3   OH2 7355   2.665   4.388   2.956 -0.2680 -0.7368 -0.3057
 2450TIP3    H1 7356   2.710   4.469   2.935 -0.2329 -0.6056  0.2618
 2450TIP3    H2 7357   2.625   4.360   2.873 -1.5579  0.6537 -0.2011
 2451TIP3   OH2 7358   5.687   4.805   4.156 -0.0870  0.0624  0.4346
 2451TIP3    H1 7359   5.673   4.747   4.082 -0.8119  0.7645  0.0144
 2451TIP3    H2 7360   5.773   4.779   4.191 -0.1657 -0.8940 -0.0619
 2452TIP3   OH2 7361   1.424   5.109   1.631  0.1663  0.4324  0.2303
 2452TIP3    H1 7362   1.498   5.048   1.633  0.0584  0.2745 -0.3979
 2452TIP3    H2 7363   1.355   5.066   1.682  0.2680  0.2618  0.2222
 2453TIP3   OH2 7364   1.265   0.938   1.788  0.2122 -0.0677 -0.7926
 2453TIP3    H1 7365   1.247   0.893   1.705  1.4994  0.7811 -1.5605
 2453TIP3    H2 7366   1.208   0.894   1.851 -2.4011  0.5864 -2.4844
 2454TIP3   OH2 7367   5.802   2.758   1.211  0.4235  0.3087 -0.5607
 2454TIP3    H1 7368   5.714   2.729   1.233  0.3002  1.1771  0.1751
 2454TIP3    H2 7369   5.827   2.706   1.135 -0.3124 -0.6834 -0.1386
 2455TIP3   OH2 7370   5.804   1.036   1.394 -0.0656  0.1676  0.3117
 2455TIP3    H1 7371   5.777   0.989   1.473 -2.0113 -0.1429 -0.4951
 2455TIP3    H2 7372   5.727   1.085   1.367  0.6603  0.5307 -1.2219
 2456TIP3   OH2 7373   4.454   0.027   3.359 -0.0082  0.2451  0.0952
 2456TIP3    H1 7374   4.544   0.057   3.352  0.2448 -0.7749 -3.9797
 2456TIP3    H2 7375   4.404   0.105   3.382  1.6749  1.3218  0.2959
 2457TIP3   OH2 7376   6.125   5.025   0.204  0.1467  0.4037  0.2702
 2457TIP3    H1 7377   6.041   5.054   0.238 -0.0744  2.6342 -1.9496
 2457TIP3    H2 7378   6.108   5.002   0.113  1.6513 -0.7263  0.2275
 2458TIP3   OH2 7379   4.593   1.809   2.898 -0.0371  0.6045 -0.1018
 2458TIP3    H1 7380   4.587   1.894   2.855  1.8630  0.7933 -0.0599
 2458TIP3    H2 7381   4.557   1.823   2.985 -1.2805  0.9246 -0.6453
 2459TIP3   OH2 7382   4.330   2.703   3.998  0.1317  0.5713  0.8040
 2459TIP3    H1 7383   4.403   2.732   4.053  0.9048 -1.2918  0.8193
 2459TIP3    H2 7384   4.314   2.613   4.025 -0.6807  0.2037 -0.7791
 2460TIP3   OH2 7385   1.769   2.691   3.514  0.8847 -0.2066  0.7485
 2460TIP3    H1 7386   1.807   2.768   3.471  1.1705  0.4080  2.0510
 2460TIP3    H2 7387   1.830   2.671   3.584  0.7702 -1.6023  0.4747
 2461TIP3   OH2 7388   4.869   5.407   2.833  0.0295  0.6928 -0.7511
 2461TIP3    H1 7389   4.825   5.325   2.809  0.9508  0.4238 -1.5781
 2461TIP3    H2 7390   4.854   5.466   2.759  1.3547  0.4671 -1.2308
 2462TIP3   OH2 7391   4.108   2.168   0.002 -0.4867 -0.3658  0.2841
 2462TIP3    H1 7392   4.064   2.122   0.073 -0.7283 -1.8020 -0.7561
 2462TIP3    H2 7393   4.044   2.232  -0.030 -0.0472  0.9603  1.9236
 2463TIP3   OH2 7394   3.371   2.332   4.112  0.3126  0.5011 -0.3481
 2463TIP3    H1 7395   3.404   2.404   4.167  1.3542 -0.3655  0.2049
 2463TIP3    H2 7396   3.450   2.299   4.069  0.0797 -1.1715  0.4519
 2464TIP3   OH2 7397   3.175   2.724   1.738 -0.4627 -0.2253  0.1706
 2464TIP3    H1 7398   3.108   2.780   1.698 -1.8507 -2.6369 -1.1616
 2464TIP3    H2 7399   3.253   2.779   1.741 -0.9389  1.0188 -3.6587
 2465TIP3   OH2 7400   4.008   0.167   0.908  0.2574  0.6344 -0.3807
 2465TIP3    H1 7401   4.075   0.213   0.959 -0.0642  1.9983 -1.1521
 2465TIP3    H2 7402   3.930   0.169   0.964  0.2024  1.1535 -0.4793
 2466TIP3   OH2 7403   4.199   2.960   1.733  0.2224  0.3465  0.5948
 2466TIP3    H1 7404   4.133   2.939   1.667 -2.1120 -2.0148  3.3987
 2466TIP3    H2 7405   4.283   2.951   1.687 -1.2490 -0.7338 -2.0996
 2467TIP3   OH2 7406   6.221   1.515   5.050 -0.1187 -0.0115 -0.1417
 2467TIP3    H1 7407   6.283   1.587   5.059 -0.5626  0.3867 -0.1862
 2467TIP3    H2 7408   6.274   1.436   5.058 -0.0675  0.2296  3.6177
 2468TIP3   OH2 7409   2.801   1.012   4.581 -0.2067 -0.3479  0.6234
 2468TIP3    H1 7410   2.715   1.034   4.546  0.1164  1.4026  0.8281
 2468TIP3    H2 7411   2.783   0.952   4.654 -1.3581  0.7998  1.3177
 2469TIP3   OH2 7412   0.543   5.131   3.152  0.2940 -0.1178  0.1119
 2469TIP3    H1 7413   0.477   5.138   3.083 -0.2038 -0.5979  0.5284
 2469TIP3    H2 7414   0.627   5.141   3.107 -0.0622  0.3861 -0.4386
 2470TIP3   OH2 7415   2.924   1.599   2.730 -0.2660  0.5199  1.1572
 2470TIP3    H1 7416   2.845   1.546   2.737  1.3123 -2.7659 -2.2597
 2470TIP3    H2 7417   2.916   1.643   2.645  0.5876  2.0136  1.8069
 2471TIP3   OH2 7418   5.883   1.034   0.646 -0.5378  0.1018  0.4732
 2471TIP3    H1 7419   5.961   0.979   0.644  0.2048  1.1521 -0.6329
 2471TIP3    H2 7420   5.811   0.973   0.663  0.6904 -0.6388  3.5992
 2472TIP3   OH2 7421   5.111   2.764   1.973 -0.3810 -0.1931  0.3839
 2472TIP3    H1 7422   5.150   2.715   2.046 -0.1591  1.0109  1.1040
 2472TIP3    H2 7423   5.089   2.849   2.010 -0.9608  0.1902 -0.7810
 2473TIP3   OH2 7424   5.450   1.611   1.604 -0.5845  0.3275 -0.0648
 2473TIP3    H1 7425   5.421   1.537   1.551 -0.5206  0.9988 -1.0690
 2473TIP3    H2 7426   5.372   1.639   1.652 -0.4337 -0.8359  0.8926
 2474TIP3   OH2 7427   0.435   4.808   1.248 -0.0349 -0.2382  0.3137
 2474TIP3    H1 7428   0.504   4.806   1.181  0.9150  1.9523  1.1260
 2474TIP3    H2 7429   0.366   4.862   1.209 -0.0740 -0.0979  0.5773
 2475TIP3   OH2 7430   4.821   1.048   4.525 -0.7173  0.1572  0.4591
 2475TIP3    H1 7431   4.727   1.062   4.536 -1.0104  0.2792 -1.6407
 2475TIP3    H2 7432   4.827   0.980   4.457  0.7237 -1.1297  1.7943
 2476TIP3   OH2 7433   3.759   5.563   2.677  0.6623 -0.1611  0.6000
 2476TIP3    H1 7434   3.735   5.609   2.757 -0.4984 -1.3200  0.9436
 2476TIP3    H2 7435   3.777   5.474   2.705  0.9659 -0.4055 -0.3293
 2477TIP3   OH2 7436   2.231   5.304   3.336 -0.4529 -0.3126 -0.7399
 2477TIP3    H1 7437   2.138   5.309   3.313 -0.4251  1.1371 -0.6369
 2477TIP3    H2 7438   2.273   5.369   3.279  0.8049 -2.1987 -2.1013
 2478TIP3   OH2 7439   4.215   2.946   4.696 -0.1365 -0.5052 -0.3999
 2478TIP3    H1 7440   4.178   2.882   4.636 -0.2770 -1.8603  1.0619
 2478TIP3    H2 7441   4.140   2.980   4.745  0.0442  0.1277 -0.5490
 2479TIP3   OH2 7442   0.005   5.561   5.004 -0.4789 -0.1146  0.6031
 2479TIP3    H1 7443   0.010   5.468   5.025 -1.8869 -0.4369 -0.3289
 2479TIP3    H2 7444   0.093   5.595   5.020  1.3561 -2.4623 -3.0720
 2480TIP3   OH2 7445   1.785   4.481   2.376  0.1102  0.3253 -0.5341
 2480TIP3    H1 7446   1.865   4.533   2.389  0.0814 -0.0225  1.1537
 2480TIP3    H2 7447   1.817   4.399   2.338  0.5336  0.2642 -0.0545
 2481TIP3   OH2 7448   4.620   4.654   1.803  0.2406  0.0192 -0.1247
 2481TIP3    H1 7449   4.656   4.659   1.892 -0.0982 -0.1841  0.0275
 2481TIP3    H2 7450   4.686   4.696   1.748  0.2217  0.6043  0.2870
 2482TIP3   OH2 7451   4.420   5.589   4.088  0.3869 -0.1287  0.8308
 2482TIP3    H1 7452   4.410   5.598   4.183  0.8542 -1.8203  1.0667
 2482TIP3    H2 7453   4.484   5.657   4.064  1.2128 -0.4840  1.9326
 2483TIP3   OH2 7454   0.071   2.261   4.377  0.5915 -0.2354 -0.1634
 2483TIP3    H1 7455   0.099   2.172   4.398  1.2455 -0.1043 -0.4624
 2483TIP3    H2 7456   0.152   2.310   4.366  0.2547  0.7204  1.3069
 2484TIP3   OH2 7457   2.791   4.982   4.267  0.1154  0.7557 -0.5392
 2484TIP3    H1 7458   2.824   4.940   4.188 -0.2241 -0.9751  0.1866
 2484TIP3    H2 7459   2.795   5.075   4.248  0.9484  0.4195 -2.2240
 2485TIP3   OH2 7460   3.664   5.129   0.920 -0.6217 -0.1453  0.9807
 2485TIP3    H1 7461   3.620   5.090   0.844  0.5439  1.0740 -0.3776
 2485TIP3    H2 7462   3.715   5.057   0.957 -0.1629 -0.4659 -0.2135
 2486TIP3   OH2 7463   5.408   0.299   1.970  0.4294 -0.5508  0.3932
 2486TIP3    H1 7464   5.449   0.219   2.004  0.5998 -0.4135  0.5125
 2486TIP3    H2 7465   5.433   0.301   1.878 -1.5361 -1.8924 -0.2383
 2487TIP3   OH2 7466   5.217   1.919   0.914 -0.1313  0.0351  0.2253
 2487TIP3    H1 7467   5.167   1.994   0.881  0.3517 -0.1953 -1.1320
 2487TIP3    H2 7468   5.283   1.904   0.846 -0.5759 -1.9731  0.1750
 2488TIP3   OH2 7469   5.725   5.542   1.834 -0.2035 -0.0864 -0.1528
 2488TIP3    H1 7470   5.670   5.529   1.912  0.5945 -2.7844  0.0697
 2488TIP3    H2 7471   5.663   5.548   1.761 -0.8785  0.1626  0.4282
 2489TIP3   OH2 7472   2.844   0.992   1.549 -0.1909  0.3537  0.3947
 2489TIP3    H1 7473   2.886   0.966   1.467  1.7151  1.3803  0.9853
 2489TIP3    H2 7474   2.913   0.985   1.615 -1.7094 -0.5483  1.9633
 2490TIP3   OH2 7475   5.463   4.223   2.824 -0.5838 -0.1788 -0.0303
 2490TIP3    H1 7476   5.449   4.172   2.744 -2.4762 -1.9284  1.3150
 2490TIP3    H2 7477   5.387   4.282   2.828  0.3327  1.0715 -0.2992
 2491TIP3   OH2 7478   3.864   5.777   2.573  0.1158 -0.4602 -0.0270
 2491TIP3    H1 7479   3.802   5.835   2.616 -0.7166 -0.9361 -0.5704
 2491TIP3    H2 7480   3.839   5.689   2.601  0.5386 -0.6591 -0.2561
 2492TIP3   OH2 7481   3.778   2.520   2.999  0.1444  0.2368 -0.4294
 2492TIP3    H1 7482   3.811   2.572   3.073 -0.1063 -1.7344  1.1618
 2492TIP3    H2 7483   3.686   2.544   2.992 -0.0308 -0.1436  0.4536
 2493TIP3   OH2 7484   5.919   3.376   4.507  0.0422 -0.0049 -0.4007
 2493TIP3    H1 7485   5.994   3.419   4.467  0.4627 -1.0704 -0.7817
 2493TIP3    H2 7486   5.869   3.447   4.547  1.9182  0.6157  0.9830
 2494TIP3   OH2 7487   0.629   0.197   2.528 -0.3880 -0.3221  0.1361
 2494TIP3    H1 7488   0.583   0.223   2.608 -2.5934 -1.1410 -0.7939
 2494TIP3    H2 7489   0.647   0.104   2.539 -0.5472 -0.3998 -0.2541
 2495TIP3   OH2 7490   4.732   2.448   3.024  0.3410 -0.0821 -0.3694
 2495TIP3    H1 7491   4.711   2.514   3.090  0.9276 -2.2500  2.1219
 2495TIP3    H2 7492   4.695   2.484   2.943 -1.3104  2.2398  1.2660
 2496TIP3   OH2 7493   5.994   2.693   0.985  0.2745 -0.2957 -0.0399
 2496TIP3    H1 7494   5.978   2.784   0.959  1.6182 -0.1155 -0.3107
 2496TIP3    H2 7495   6.017   2.699   1.078 -2.7751 -0.7534  0.8891
 2497TIP3   OH2 7496   2.179   0.362   2.468 -0.5754  0.1342 -0.8380
 2497TIP3    H1 7497   2.132   0.278   2.461  1.4992 -1.1578 -0.2295
 2497TIP3    H2 7498   2.192   0.374   2.562  0.0304  0.6209 -0.9781
 2498TIP3   OH2 7499   2.705   4.793   5.027 -0.2369  0.7363 -0.0008
 2498TIP3    H1 7500   2.799   4.783   5.043 -0.1082 -0.1526 -1.1921
 2498TIP3    H2 7501   2.699   4.873   4.974  0.1839 -0.6742 -2.3228
 2499TIP3   OH2 7502   1.283   1.395   3.759 -0.0653 -0.5349  0.1237
 2499TIP3    H1 7503   1.228   1.317   3.752  0.5755 -0.9898  0.0834
 2499TIP3    H2 7504   1.371   1.361   3.774  0.6817  0.0815 -2.4066
 2500TIP3   OH2 7505   1.508   4.081   0.866  0.5175 -0.2208 -0.0045
 2500TIP3    H1 7506   1.577   4.146   0.850  1.6117 -1.5377 -0.8075
 2500TIP3    H2 7507   1.528   4.045   0.952 -0.8832  1.3963  1.0712
 2501TIP3   OH2 7508   4.567   3.657   2.146 -0.4532  0.6907  0.0078
 2501TIP3    H1 7509   4.634   3.718   2.177  1.8968 -0.6798 -2.0037
 2501TIP3    H2 7510   4.552   3.683   2.055  0.2989 -1.3700 -0.7630
 2502TIP3   OH2 7511   3.189   5.956   2.127 -0.0372 -0.5049 -0.0734
 2502TIP3    H1 7512   3.144   5.887   2.078 -1.4738  0.0582  0.3814
 2502TIP3    H2 7513   3.138   6.035   2.108  1.2234  0.3155 -0.1134
 2503TIP3   OH2 7514   3.712   5.212   3.353 -0.6049  0.3996  0.3012
 2503TIP3    H1 7515   3.778   5.173   3.410  0.0146 -0.0643 -0.7098
 2503TIP3    H2 7516   3.641   5.147   3.351 -0.7913  0.5867  0.8390
 2504TIP3   OH2 7517   3.073   3.513   3.826  0.1768  0.0722 -0.1650
 2504TIP3    H1 7518   2.992   3.546   3.866 -1.4322 -3.2394 -0.3377
 2504TIP3    H2 7519   3.043   3.450   3.761  2.9201 -0.1921 -1.3002
 2505TIP3   OH2 7520   4.174   0.603   4.025  0.3645  0.2827  0.3317
 2505TIP3    H1 7521   4.139   0.679   4.072  0.6078 -0.7781  2.3214
 2505TIP3    H2 7522   4.244   0.639   3.970 -0.7230  1.7315 -0.1616
 2506TIP3   OH2 7523   3.080   4.094   4.602  0.3105  0.0752 -0.7401
 2506TIP3    H1 7524   3.111   4.011   4.636  1.1050  0.2016 -1.1381
 2506TIP3    H2 7525   3.158   4.138   4.569 -0.3396  0.2185 -2.1810
 2507TIP3   OH2 7526   5.531   3.677   1.626  0.0409 -0.1454  0.3474
 2507TIP3    H1 7527   5.483   3.747   1.581 -0.0569  0.0364  0.7314
 2507TIP3    H2 7528   5.605   3.659   1.568 -1.1806 -1.3454 -0.9025
 2508TIP3   OH2 7529   4.591   5.066   5.135  0.3308  0.2034  0.4046
 2508TIP3    H1 7530   4.582   5.097   5.044  0.0716  0.4391  0.5109
 2508TIP3    H2 7531   4.610   5.145   5.185 -0.2588  0.1796  0.6658
 2509TIP3   OH2 7532   1.745   4.438   1.558 -0.4029  0.1151 -0.0830
 2509TIP3    H1 7533   1.696   4.356   1.550  1.3343 -1.1944  1.8480
 2509TIP3    H2 7534   1.788   4.449   1.473 -0.9386 -0.7575 -0.4793
 2510TIP3   OH2 7535   1.555   0.616   3.106 -0.2878  0.1679  0.4076
 2510TIP3    H1 7536   1.629   0.562   3.133 -0.6104  0.0078  0.9756
 2510TIP3    H2 7537   1.496   0.615   3.180  0.0014  1.8638  0.7158
 2511TIP3   OH2 7538   5.406   0.894   0.961  0.0913  0.0717 -0.4913
 2511TIP3    H1 7539   5.399   0.886   0.866 -0.5997 -0.2460 -0.4203
 2511TIP3    H2 7540   5.326   0.854   0.995  0.6453 -0.4409  0.2554
 2512TIP3   OH2 7541   4.084   5.305   1.910  0.3633  0.0337  0.1608
 2512TIP3    H1 7542   4.175   5.316   1.881  1.3529 -0.4194  2.7749
 2512TIP3    H2 7543   4.049   5.393   1.914  0.8174  0.2516 -0.4624
 2513TIP3   OH2 7544   1.710   4.116   2.890 -0.1065 -0.0256 -0.1221
 2513TIP3    H1 7545   1.770   4.080   2.955 -0.4724 -0.7509 -0.1867
 2513TIP3    H2 7546   1.733   4.209   2.886  1.9894 -0.5273 -1.1599
 2514TIP3   OH2 7547   5.920   1.866   2.066  0.4064  0.2519 -0.0382
 2514TIP3    H1 7548   6.003   1.868   2.019 -0.2705  0.5215 -1.2467
 2514TIP3    H2 7549   5.945   1.876   2.158  1.8132 -1.1306 -0.2201
 2515TIP3   OH2 7550   4.745   5.749   3.254  0.4569  0.5262  0.0461
 2515TIP3    H1 7551   4.787   5.688   3.194 -0.2538 -0.6268  0.6723
 2515TIP3    H2 7552   4.780   5.726   3.340  2.3048  2.8797  0.0094
 2516TIP3   OH2 7553   1.712   1.124   0.887 -0.0494 -0.2686 -0.0175
 2516TIP3    H1 7554   1.798   1.082   0.890 -0.3225 -0.7931  2.0094
 2516TIP3    H2 7555   1.730   1.211   0.851  0.7439 -1.4974 -2.9511
 2517TIP3   OH2 7556   2.288   3.910   3.569  0.6545 -0.3243 -0.1249
 2517TIP3    H1 7557   2.309   3.901   3.476 -0.5054  0.2027 -0.4618
 2517TIP3    H2 7558   2.353   3.973   3.602  0.5150  0.1920 -0.8027
 2518TIP3   OH2 7559   4.377   1.600   4.845  0.2737  0.3110 -0.3003
 2518TIP3    H1 7560   4.460   1.555   4.828  1.3903  1.6634  1.2182
 2518TIP3    H2 7561   4.394   1.653   4.923 -2.2130  0.1758  0.4419
 2519TIP3   OH2 7562   4.522   1.540   2.129  0.1301  0.0065 -0.1471
 2519TIP3    H1 7563   4.485   1.455   2.106  1.5459 -0.7866  0.3378
 2519TIP3    H2 7564   4.546   1.532   2.221  3.5540 -0.4284 -0.9081
 2520TIP3   OH2 7565   4.867   0.586   2.746 -0.3620  0.0564 -0.1543
 2520TIP3    H1 7566   4.858   0.677   2.774  1.1822 -0.3460  1.8909
 2520TIP3    H2 7567   4.886   0.591   2.652 -2.6484  1.6648 -0.6281
 2521TIP3   OH2 7568   6.174   4.251   0.395  0.2509 -0.2135 -0.3994
 2521TIP3    H1 7569   6.235   4.323   0.379 -0.4518 -0.1436 -3.4206
 2521TIP3    H2 7570   6.125   4.242   0.313 -1.5556 -2.3961  0.7863
 2522TIP3   OH2 7571   1.827   0.988   3.316 -0.6896 -0.2625  1.1367
 2522TIP3    H1 7572   1.830   0.894   3.332 -2.6743 -0.4137  0.9686
 2522TIP3    H2 7573   1.816   0.996   3.221 -0.8000  0.1155  1.1782
 2523TIP3   OH2 7574   6.266   3.727   2.490  0.1740 -0.5377  0.0811
 2523TIP3    H1 7575   6.292   3.804   2.440 -1.1973  0.9359  1.5195
 2523TIP3    H2 7576   6.345   3.703   2.539  0.5122  0.1908 -0.0896
 2524TIP3   OH2 7577   3.976   0.092   4.905  0.3358 -0.3403 -0.6662
 2524TIP3    H1 7578   3.890   0.055   4.886 -0.8697  2.9568 -2.4446
 2524TIP3    H2 7579   4.037   0.032   4.862 -1.0497 -2.4862  0.2057
 2525TIP3   OH2 7580   2.222   5.930   3.115 -0.0507  0.3809  0.5780
 2525TIP3    H1 7581   2.276   5.908   3.191  1.7307  1.5796 -0.2559
 2525TIP3    H2 7582   2.202   5.846   3.074  0.3161 -0.1705  1.5021
 2526TIP3   OH2 7583   5.182   0.117   1.574 -0.1093 -0.3409 -0.7422
 2526TIP3    H1 7584   5.259   0.070   1.605 -0.4425 -0.6881 -0.4359
 2526TIP3    H2 7585   5.217   0.185   1.517  0.3873 -0.9163 -1.1445
 2527TIP3   OH2 7586   3.226   0.729   1.127  0.6729  0.1930 -0.0775
 2527TIP3    H1 7587   3.291   0.670   1.166 -1.2789 -1.1796  1.2974
 2527TIP3    H2 7588   3.245   0.814   1.165  0.8229 -0.4790  1.4368
 2528TIP3   OH2 7589   2.088   3.353   4.604  0.4215 -0.0670 -0.3484
 2528TIP3    H1 7590   2.085   3.307   4.520 -0.5836  2.0444 -1.5409
 2528TIP3    H2 7591   2.017   3.314   4.655 -1.5336  1.1848 -1.9582
 2529TIP3   OH2 7592   6.224   1.528   2.012 -0.3880 -0.3678  0.4967
 2529TIP3    H1 7593   6.168   1.466   1.966  1.0570 -0.8971 -0.6320
 2529TIP3    H2 7594   6.254   1.588   1.944 -0.1853  0.3690  1.2166
 2530TIP3   OH2 7595   5.302   5.078   4.537 -0.3955 -0.0274  0.3643
 2530TIP3    H1 7596   5.356   5.037   4.469  1.7300  2.9630  0.0591
 2530TIP3    H2 7597   5.218   5.095   4.494  0.7132  1.2812 -1.4077
 2531TIP3   OH2 7598   5.698   3.964   1.494  0.3534 -0.3060 -0.5548
 2531TIP3    H1 7599   5.604   3.956   1.507  0.3862  0.2295  0.0612
 2531TIP3    H2 7600   5.732   3.987   1.580  1.2194 -1.8288 -0.4511
 2532TIP3   OH2 7601   4.965   4.412   1.146 -0.2830 -0.1877 -0.2931
 2532TIP3    H1 7602   4.876   4.396   1.113 -0.5604 -0.3157  0.5085
 2532TIP3    H2 7603   4.965   4.505   1.169 -0.9708 -0.6641  1.9018
 2533TIP3   OH2 7604   2.046   0.750   1.103 -0.3103 -0.2163  0.2296
 2533TIP3    H1 7605   2.043   0.778   1.011  0.7296  0.7643  0.4784
 2533TIP3    H2 7606   2.098   0.669   1.101  0.3944  0.2270  0.0354
 2534TIP3   OH2 7607   6.039   2.961   1.521 -0.0320  0.6898  0.4560
 2534TIP3    H1 7608   6.014   2.988   1.433 -0.7041 -1.6690 -0.1696
 2534TIP3    H2 7609   6.131   2.936   1.514 -0.8488 -2.4993 -0.4915
 2535TIP3   OH2 7610   0.474   0.863   4.111  0.9282  0.0836 -0.3171
 2535TIP3    H1 7611   0.535   0.817   4.168 -1.2558  0.3572  2.4213
 2535TIP3    H2 7612   0.410   0.903   4.170 -1.0842  1.0494 -2.9340
 2536TIP3   OH2 7613   4.694   4.397   1.706 -0.1436  0.0362  0.4790
 2536TIP3    H1 7614   4.635   4.460   1.747 -0.6380 -1.0912  1.5646
 2536TIP3    H2 7615   4.731   4.444   1.631 -1.0098  1.3735  0.8548
 2537TIP3   OH2 7616   5.631   0.666   2.537  1.1700  0.2702 -0.5007
 2537TIP3    H1 7617   5.589   0.667   2.622 -0.2493  2.4293 -1.1676
 2537TIP3    H2 7618   5.559   0.671   2.474  2.2533  0.2217 -1.7959
 2538TIP3   OH2 7619   4.116   0.735   4.264  0.3438  0.5497  0.0326
 2538TIP3    H1 7620   4.082   0.715   4.352  2.2392  1.1429  0.9513
 2538TIP3    H2 7621   4.084   0.824   4.246 -0.3097  0.3092 -0.0264
 2539TIP3   OH2 7622   0.267   3.317   1.537  0.5387  0.0551 -0.0865
 2539TIP3    H1 7623   0.226   3.283   1.617 -1.2271  1.0967 -0.4934
 2539TIP3    H2 7624   0.333   3.252   1.514 -0.3033 -1.2696  1.1169
 2540TIP3   OH2 7625   3.489   1.571   0.225  0.1790  0.3502  0.1966
 2540TIP3    H1 7626   3.404   1.538   0.255  0.0984 -1.8486 -2.1267
 2540TIP3    H2 7627   3.473   1.663   0.206 -1.1815  0.4174  1.4774
 2541TIP3   OH2 7628   4.382   5.378   1.302  0.4263 -0.1460  0.2463
 2541TIP3    H1 7629   4.386   5.466   1.266  2.1060  0.4058  1.6621
 2541TIP3    H2 7630   4.419   5.322   1.234 -0.0272  0.3142 -0.3850
 2542TIP3   OH2 7631   2.311   3.526   2.844 -0.6412 -0.2844  0.3956
 2542TIP3    H1 7632   2.335   3.463   2.776  1.2772  1.9724 -1.2051
 2542TIP3    H2 7633   2.327   3.479   2.926 -1.4422 -2.5533 -0.6382
 2543TIP3   OH2 7634   2.937   2.307   0.848  0.3021 -0.2310 -0.2617
 2543TIP3    H1 7635   2.965   2.237   0.788  0.5061 -0.4555  0.0915
 2543TIP3    H2 7636   3.007   2.372   0.842  0.1125 -0.0541 -0.5897
 2544TIP3   OH2 7637   2.507   4.192   1.201 -0.0653  0.2543 -0.2952
 2544TIP3    H1 7638   2.549   4.120   1.248 -0.1928 -1.3618 -2.5025
 2544TIP3    H2 7639   2.488   4.257   1.269  1.7226 -0.9716  1.4915
 2545TIP3   OH2 7640   4.397   3.514   4.576  0.0345 -0.5322  0.0558
 2545TIP3    H1 7641   4.384   3.608   4.586  0.7886 -0.4402  0.2697
 2545TIP3    H2 7642   4.425   3.504   4.485  0.1165 -0.5302  0.0806
 2546TIP3   OH2 7643   0.019   3.134   2.643  0.3217 -0.5325 -0.7336
 2546TIP3    H1 7644   0.065   3.142   2.559 -0.0617 -0.3900 -0.9331
 2546TIP3    H2 7645  -0.039   3.059   2.632  2.0532 -2.1135  0.2657
 2547TIP3   OH2 7646   3.667   3.554   3.447 -0.0241 -0.1467 -0.1651
 2547TIP3    H1 7647   3.701   3.533   3.534  0.6740 -1.4652 -0.7180
 2547TIP3    H2 7648   3.648   3.469   3.408 -2.1952  0.4942 -0.6078
 2548TIP3   OH2 7649   5.099   0.115   4.858 -0.1278 -0.5494 -0.5163
 2548TIP3    H1 7650   5.127   0.075   4.776  1.9520 -3.7748  1.5373
 2548TIP3    H2 7651   5.057   0.044   4.907 -0.9568  1.1416  1.3993
 2549TIP3   OH2 7652   3.344   1.047   3.851  0.7213 -0.8520  0.1970
 2549TIP3    H1 7653   3.398   0.979   3.810  2.0893  0.9832 -1.1986
 2549TIP3    H2 7654   3.404   1.120   3.865 -0.6981  0.0854  1.6826
 2550TIP3   OH2 7655   4.052   4.820   4.018  0.2377 -0.4723  0.6747
 2550TIP3    H1 7656   4.115   4.860   4.078  0.1191 -0.8002  1.0220
 2550TIP3    H2 7657   3.977   4.879   4.019  0.5065 -0.1214  0.3203
 2551TIP3   OH2 7658   0.131   4.856   1.879 -0.0916  0.1770  0.5294
 2551TIP3    H1 7659   0.145   4.877   1.972 -0.2780 -2.4812  1.2477
 2551TIP3    H2 7660   0.038   4.837   1.872 -0.2662  1.2720 -0.4601
 2552TIP3   OH2 7661   5.551   3.568   1.104  0.0495 -0.1781  0.3381
 2552TIP3    H1 7662   5.646   3.555   1.105 -0.0626 -1.1046  0.5969
 2552TIP3    H2 7663   5.537   3.643   1.048  0.9111 -0.2866 -0.0375
 2553TIP3   OH2 7664   2.631   5.230   1.288  0.6194 -0.4285  0.7033
 2553TIP3    H1 7665   2.645   5.146   1.243  1.5153 -0.0148  0.1968
 2553TIP3    H2 7666   2.675   5.218   1.372 -0.4466 -0.9455  1.2143
 2554TIP3   OH2 7667   3.480   4.109   2.284  0.2260 -0.1302  0.3547
 2554TIP3    H1 7668   3.548   4.108   2.351  0.5601  1.0484  0.0622
 2554TIP3    H2 7669   3.469   4.202   2.263 -0.9325 -0.3640 -0.1554
 2555TIP3   OH2 7670   1.392   4.344   4.913  0.2332  0.1918  0.3820
 2555TIP3    H1 7671   1.383   4.400   4.835 -0.0016 -0.7517 -0.2867
 2555TIP3    H2 7672   1.483   4.355   4.939  0.3406  0.4575 -0.0750
 2556TIP3   OH2 7673   0.733   1.301   2.830  0.3969 -0.1633 -0.0577
 2556TIP3    H1 7674   0.817   1.346   2.816 -0.5940  2.5937  1.9611
 2556TIP3    H2 7675   0.752   1.235   2.897  0.7129  1.5202  1.5839
 2557TIP3   OH2 7676   2.759   0.056   4.323 -0.8175  0.3510  0.2768
 2557TIP3    H1 7677   2.736   0.062   4.230 -1.7715  0.7309  0.5205
 2557TIP3    H2 7678   2.850   0.027   4.323 -0.8989  0.0268 -0.7717
 2558TIP3   OH2 7679   2.612   4.463   4.784 -0.0936  0.0804 -0.0900
 2558TIP3    H1 7680   2.592   4.371   4.802  3.3004 -0.4882  1.7037
 2558TIP3    H2 7681   2.564   4.511   4.851 -0.7901 -0.5062 -0.1583
 2559TIP3   OH2 7682   5.726   0.779   0.461 -0.3654 -0.2863 -0.4708
 2559TIP3    H1 7683   5.706   0.763   0.553  1.8871  1.6690  0.4779
 2559TIP3    H2 7684   5.730   0.691   0.422 -1.1067 -1.1826  1.3474
 2560TIP3   OH2 7685   3.860   2.550   4.824 -0.7183 -0.6185  0.2984
 2560TIP3    H1 7686   3.789   2.612   4.805  0.3794 -0.1534 -2.7303
 2560TIP3    H2 7687   3.915   2.596   4.888 -1.0861  0.6368 -0.2506
 2561TIP3   OH2 7688   4.682   1.286   3.078 -0.2921 -0.0008 -0.1550
 2561TIP3    H1 7689   4.734   1.255   3.004 -0.0252  1.1912 -0.4752
 2561TIP3    H2 7690   4.743   1.286   3.152  0.0918  1.1067 -0.4641
 2562TIP3   OH2 7691   0.544   3.258   0.768  0.1408  0.2336  0.7066
 2562TIP3    H1 7692   0.638   3.268   0.778  0.1955 -1.2716  2.1580
 2562TIP3    H2 7693   0.528   3.165   0.786 -1.3755 -0.0805 -1.7090
 2563TIP3   OH2 7694   4.282   2.710   2.673 -0.0813  0.4775 -0.0576
 2563TIP3    H1 7695   4.349   2.650   2.641  0.2696 -0.4380  2.1731
 2563TIP3    H2 7696   4.274   2.777   2.605  0.7560 -1.1445 -1.8492
 2564TIP3   OH2 7697   3.373   0.201   1.015 -0.1681 -0.1635 -0.0308
 2564TIP3    H1 7698   3.394   0.142   0.943  0.6676 -0.7541  0.6772
 2564TIP3    H2 7699   3.363   0.144   1.091 -0.7434  0.4787  0.3849
 2565TIP3   OH2 7700   0.932   4.713   0.205 -0.1705 -0.0583  0.1080
 2565TIP3    H1 7701   0.951   4.669   0.288  0.6091 -1.5024 -0.7978
 2565TIP3    H2 7702   1.013   4.759   0.184 -0.7183  1.1885  0.6479
 2566TIP3   OH2 7703   5.507   3.360   2.628 -0.1594  0.0014 -0.0931
 2566TIP3    H1 7704   5.562   3.399   2.560  0.4536 -0.9761 -0.1882
 2566TIP3    H2 7705   5.491   3.271   2.597 -0.0956 -0.3753  0.9142
 2567TIP3   OH2 7706   2.455   2.417   2.636  0.5868 -0.5285  1.0420
 2567TIP3    H1 7707   2.473   2.324   2.620  0.3364 -0.3363 -0.6323
 2567TIP3    H2 7708   2.359   2.422   2.639  0.5572 -0.1876 -0.0240
 2568TIP3   OH2 7709   1.074   3.653   0.236 -0.4937 -0.5520 -0.4393
 2568TIP3    H1 7710   1.124   3.720   0.189  1.5967 -3.1083 -2.1481
 2568TIP3    H2 7711   0.997   3.638   0.182 -1.3449  0.8541  0.3136
 2569TIP3   OH2 7712   2.527   2.526   1.190  0.4616 -0.1155  0.2209
 2569TIP3    H1 7713   2.492   2.600   1.238 -1.8946  0.5800 -2.2931
 2569TIP3    H2 7714   2.541   2.559   1.101  0.0195 -2.4771 -0.8064
 2570TIP3   OH2 7715   0.519   0.262   1.435  0.0212 -0.2142 -0.2973
 2570TIP3    H1 7716   0.439   0.311   1.448 -0.3441 -0.3328 -1.8661
 2570TIP3    H2 7717   0.490   0.171   1.427  0.1777 -0.1520 -1.8083
 2571TIP3   OH2 7718   5.537   5.030   4.156  0.2092  0.1028  0.5502
 2571TIP3    H1 7719   5.599   4.958   4.147 -1.6496 -1.6074  0.5500
 2571TIP3    H2 7720   5.526   5.064   4.067  0.8928  0.2050  0.5042
 2572TIP3   OH2 7721   6.328   2.209   2.052  0.2806 -0.2161  0.0991
 2572TIP3    H1 7722   6.247   2.157   2.050  0.0108  0.2066 -0.1436
 2572TIP3    H2 7723   6.298   2.299   2.054  0.7415 -0.0051 -1.2699
 2573TIP3   OH2 7724   3.846   4.512   0.983 -0.3842  0.0490  0.4927
 2573TIP3    H1 7725   3.845   4.557   0.899  3.2127  0.1683  0.3479
 2573TIP3    H2 7726   3.785   4.561   1.037 -1.4120  1.0969 -1.4957
 2574TIP3   OH2 7727   1.932   1.388   4.729 -0.4977  0.3305 -0.0240
 2574TIP3    H1 7728   1.944   1.477   4.697  2.9748 -0.2763 -0.7337
 2574TIP3    H2 7729   1.958   1.392   4.821 -0.8876  0.1262  0.0997
 2575TIP3   OH2 7730   2.765   2.542   3.627  0.0984  0.5925 -0.0966
 2575TIP3    H1 7731   2.812   2.501   3.554  0.7363  2.3484 -0.7246
 2575TIP3    H2 7732   2.719   2.470   3.669  0.9231 -0.7072 -1.3248
 2576TIP3   OH2 7733   3.117   4.582   0.780 -0.2354  0.0207 -0.0938
 2576TIP3    H1 7734   3.126   4.504   0.835 -2.0328  0.1217  0.3967
 2576TIP3    H2 7735   3.160   4.651   0.830  1.6056 -0.6430 -0.6463
 2577TIP3   OH2 7736   1.389   3.649   3.406 -0.1692  0.3933  0.0958
 2577TIP3    H1 7737   1.364   3.663   3.498  0.6227  0.3641  0.3258
 2577TIP3    H2 7738   1.484   3.641   3.409 -0.1550  0.2377 -0.7156
 2578TIP3   OH2 7739   3.034   0.129   0.743  0.2093 -0.2876  0.4585
 2578TIP3    H1 7740   3.085   0.103   0.819  0.0023  5.0374  2.8961
 2578TIP3    H2 7741   2.943   0.127   0.773 -0.0472  0.2154 -0.2458
 2579TIP3   OH2 7742   3.191   5.862   0.069 -0.5775  0.1921 -0.3362
 2579TIP3    H1 7743   3.123   5.921   0.040 -2.1216 -1.2486  0.1906
 2579TIP3    H2 7744   3.145   5.781   0.091  1.2155 -0.6163  0.6789
 2580TIP3   OH2 7745   1.321   4.875   2.330 -0.1683 -0.0055  0.0637
 2580TIP3    H1 7746   1.402   4.915   2.297 -0.0819 -0.0310  0.2419
 2580TIP3    H2 7747   1.252   4.909   2.273 -0.0935  0.3979  0.2101
 2581TIP3   OH2 7748   4.187   1.411   2.940 -0.6685 -0.5090 -0.5523
 2581TIP3    H1 7749   4.200   1.424   3.034  3.0980 -0.7363 -0.9016
 2581TIP3    H2 7750   4.135   1.331   2.934 -1.7325 -0.0213  1.2895
 2582TIP3   OH2 7751   5.959   3.761   3.284 -0.2132  0.4412 -0.0261
 2582TIP3    H1 7752   6.022   3.727   3.348  0.4661 -1.0078 -1.3947
 2582TIP3    H2 7753   5.877   3.718   3.306 -0.1241  0.4058  0.2423
 2583TIP3   OH2 7754   1.896   2.343   0.740 -0.2700 -0.3272 -0.4753
 2583TIP3    H1 7755   1.829   2.278   0.758 -0.1112 -0.2895  0.2738
 2583TIP3    H2 7756   1.973   2.292   0.713 -0.8776 -0.3324 -2.3581
 2584TIP3   OH2 7757   5.061   4.011   1.633 -0.6001  0.1765 -0.2586
 2584TIP3    H1 7758   5.150   4.005   1.667 -0.7153  2.0428  0.5191
 2584TIP3    H2 7759   5.051   4.104   1.610 -2.4228  0.0483 -0.0821
 2585TIP3   OH2 7760   4.179   4.377   1.290  0.0465  0.8387  0.6586
 2585TIP3    H1 7761   4.254   4.318   1.301  1.5112  2.1976 -1.1079
 2585TIP3    H2 7762   4.161   4.375   1.196 -2.0075  0.7570  1.0109
 2586TIP3   OH2 7763   3.753   2.943   0.334  0.2556 -0.0177  0.6395
 2586TIP3    H1 7764   3.692   2.920   0.264  0.2266  0.4471  0.5070
 2586TIP3    H2 7765   3.839   2.922   0.297  0.3262  1.2604  0.0280
 2587TIP3   OH2 7766   3.327   4.765   3.593 -0.3995 -0.2463  0.5490
 2587TIP3    H1 7767   3.305   4.726   3.508 -2.1928  0.0209  0.8397
 2587TIP3    H2 7768   3.281   4.711   3.657  0.7832 -0.3296  1.3542
 2588TIP3   OH2 7769   1.549   2.140   4.355 -0.6460 -0.5193 -0.0049
 2588TIP3    H1 7770   1.506   2.098   4.430  0.0628  0.3792  0.9399
 2588TIP3    H2 7771   1.481   2.145   4.288 -1.2087 -1.6331  0.4521
 2589TIP3   OH2 7772   3.708   5.528   0.059 -0.0959 -0.3138 -0.6990
 2589TIP3    H1 7773   3.764   5.455   0.088  0.5522  0.1479 -0.7710
 2589TIP3    H2 7774   3.638   5.486   0.010 -0.8188 -1.0710  0.8889
 2590TIP3   OH2 7775   3.232   4.376   2.170  0.4397  0.2469  0.3804
 2590TIP3    H1 7776   3.155   4.426   2.198  0.8011  1.7233 -1.1570
 2590TIP3    H2 7777   3.250   4.407   2.082  3.1321  0.3515  0.8985
 2591TIP3   OH2 7778   0.730   0.594   4.427 -0.2328 -0.3059  0.0007
 2591TIP3    H1 7779   0.817   0.629   4.444  0.7464 -0.5411 -3.7562
 2591TIP3    H2 7780   0.676   0.671   4.409 -0.0545 -0.2966 -0.5100
 2592TIP3   OH2 7781   2.980   3.640   3.252  0.4102  0.0305  0.3505
 2592TIP3    H1 7782   2.893   3.677   3.269  0.5809 -0.7731  3.5701
 2592TIP3    H2 7783   3.041   3.709   3.278  0.7251 -0.4984  1.0264
 2593TIP3   OH2 7784   1.491   1.226   3.821 -0.0814  0.0127 -0.6306
 2593TIP3    H1 7785   1.568   1.265   3.863  0.4069 -0.5731 -0.9604
 2593TIP3    H2 7786   1.465   1.156   3.882  1.3950 -1.6935 -1.8207
 2594TIP3   OH2 7787   5.385   1.688   4.383 -0.1742 -0.7837  0.3986
 2594TIP3    H1 7788   5.315   1.736   4.341 -3.0823 -3.9128  1.1809
 2594TIP3    H2 7789   5.365   1.692   4.477  0.6962 -1.7196  0.6573
 2595TIP3   OH2 7790   3.326   4.468   1.883 -0.2290 -0.6878 -0.1978
 2595TIP3    H1 7791   3.366   4.401   1.828 -0.4550 -0.8787 -0.1324
 2595TIP3    H2 7792   3.241   4.485   1.842 -0.4304 -0.8839  0.1320
 2596TIP3   OH2 7793   1.637   2.302   3.746  0.3199  0.1779  0.1993
 2596TIP3    H1 7794   1.665   2.295   3.654 -0.4216  0.6369 -0.0672
 2596TIP3    H2 7795   1.621   2.212   3.773 -0.4422  0.1103 -0.4392
 2597TIP3   OH2 7796   0.134   3.605   2.674 -0.1930  0.0059  0.8553
 2597TIP3    H1 7797   0.125   3.510   2.688  0.6117 -0.6898 -2.5421
 2597TIP3    H2 7798   0.225   3.617   2.647 -1.1983  1.0468 -2.5992
 2598TIP3   OH2 7799   5.389   1.438   4.621  0.2766 -0.2719  0.3623
 2598TIP3    H1 7800   5.327   1.483   4.563 -0.9591 -0.9065  1.1484
 2598TIP3    H2 7801   5.425   1.508   4.676  1.3915  0.3230 -1.0560
 2599TIP3   OH2 7802   5.833   3.433   3.410  0.2616  0.4369  0.1779
 2599TIP3    H1 7803   5.753   3.482   3.391  0.0017 -0.5457 -1.4540
 2599TIP3    H2 7804   5.874   3.481   3.482 -2.0777  0.6325  1.4574
 2600TIP3   OH2 7805   4.608   1.478   1.767 -0.4469  0.2374  0.0598
 2600TIP3    H1 7806   4.605   1.386   1.794 -2.8388  0.4334  0.7235
 2600TIP3    H2 7807   4.658   1.521   1.836 -0.6815 -0.3371  0.6007
 2601TIP3   OH2 7808   5.609   4.120   2.503  0.2639 -0.5905  0.4768
 2601TIP3    H1 7809   5.645   4.206   2.479  2.7639 -0.7731  3.0669
 2601TIP3    H2 7810   5.517   4.137   2.524  0.4682  1.2518  0.0612
 2602TIP3   OH2 7811   4.504   3.506   3.869 -0.0623 -0.7497  0.7302
 2602TIP3    H1 7812   4.409   3.517   3.879 -0.0185 -0.8373  1.2355
 2602TIP3    H2 7813   4.537   3.495   3.958  0.8105  2.1768  0.8600
 2603TIP3   OH2 7814   1.196   2.649   3.836 -0.0727 -0.6330  0.1312
 2603TIP3    H1 7815   1.126   2.713   3.827 -0.7169 -1.3734 -0.2539
 2603TIP3    H2 7816   1.198   2.604   3.751  1.1347 -0.3560  0.0021
 2604TIP3   OH2 7817   0.506   2.426   2.120  0.2578 -0.0034  0.3621
 2604TIP3    H1 7818   0.417   2.399   2.097  0.6313 -0.6290 -0.3828
 2604TIP3    H2 7819   0.548   2.443   2.036  2.0078 -3.4300  0.3808
 2605TIP3   OH2 7820   5.871   0.415   2.423 -0.1698  0.0834 -0.2746
 2605TIP3    H1 7821   5.817   0.488   2.392 -1.4382 -0.8184 -0.2528
 2605TIP3    H2 7822   5.907   0.446   2.506 -2.2792 -0.0059  0.7279
 2606TIP3   OH2 7823   5.954   3.794   4.327 -0.9684 -0.4220  0.2241
 2606TIP3    H1 7824   5.933   3.886   4.310 -0.9319 -0.2800  0.9179
 2606TIP3    H2 7825   5.873   3.747   4.308 -0.7006 -0.3766 -1.1019
 2607TIP3   OH2 7826   3.223   1.146   0.925  0.0729 -0.4342  0.0016
 2607TIP3    H1 7827   3.166   1.072   0.902  0.0951 -0.3704 -0.2602
 2607TIP3    H2 7828   3.282   1.154   0.850 -0.8573  0.7694 -0.6422
 2608TIP3   OH2 7829   0.982   0.314   5.032  0.4645 -0.0295  0.3611
 2608TIP3    H1 7830   0.960   0.223   5.010  0.2940 -0.4499  2.0966
 2608TIP3    H2 7831   0.908   0.345   5.084  1.4435  0.3609  1.5980
 2609TIP3   OH2 7832   5.057   3.053   2.489 -0.2291  0.0099  0.3425
 2609TIP3    H1 7833   4.981   3.078   2.541 -0.9784 -1.5731  0.0942
 2609TIP3    H2 7834   5.085   3.133   2.446 -1.3366  0.7714  0.9929
 2610TIP3   OH2 7835   2.621   1.982   1.703 -0.3360  0.2653  0.1682
 2610TIP3    H1 7836   2.534   1.966   1.740 -0.5508  0.2853 -0.3176
 2610TIP3    H2 7837   2.656   1.894   1.685 -0.8923  0.2698 -1.0712
 2611TIP3   OH2 7838   3.610   0.431   4.661 -0.9135  0.1240 -0.3958
 2611TIP3    H1 7839   3.567   0.354   4.624 -0.0625 -0.8337  0.5249
 2611TIP3    H2 7840   3.554   0.505   4.637 -0.9849 -0.5722 -2.5749
 2612TIP3   OH2 7841   0.466   0.905   3.274 -0.1404 -0.1995  0.0818
 2612TIP3    H1 7842   0.390   0.929   3.327  0.6023 -0.0328  1.0934
 2612TIP3    H2 7843   0.516   0.845   3.329  1.1156  0.6923 -0.0477
 2613TIP3   OH2 7844   5.902   0.101   1.452  0.4353  0.2816  0.3745
 2613TIP3    H1 7845   5.979   0.051   1.477  0.6617  1.2114  1.6450
 2613TIP3    H2 7846   5.846   0.098   1.529 -1.1510 -0.9479 -0.7498
 2614TIP3   OH2 7847   2.552   2.594   0.331  0.0550 -0.1122  0.1004
 2614TIP3    H1 7848   2.636   2.593   0.284 -0.0226 -0.5263 -0.0344
 2614TIP3    H2 7849   2.560   2.524   0.395 -0.6950 -1.0811 -0.8294
 2615TIP3   OH2 7850   6.316   3.679   3.254  0.2542  0.0594  0.1542
 2615TIP3    H1 7851   6.273   3.617   3.195  1.5296 -1.5313  0.8358
 2615TIP3    H2 7852   6.255   3.688   3.327  0.2471 -0.7583  0.2592
 2616TIP3   OH2 7853   6.167   3.131   2.433  0.3991 -0.0250  0.7686
 2616TIP3    H1 7854   6.166   3.208   2.489 -0.2157  0.7727 -0.2953
 2616TIP3    H2 7855   6.258   3.123   2.404  0.3175  0.8036  0.2470
 2617TIP3   OH2 7856   4.975   2.506   1.887  0.1012 -0.2363 -0.2359
 2617TIP3    H1 7857   5.025   2.584   1.911  0.1829 -0.1899 -0.5471
 2617TIP3    H2 7858   4.929   2.531   1.807  1.5329 -1.0611 -1.3822
 2618TIP3   OH2 7859   4.615   3.374   4.669  0.2919  0.4421 -0.1894
 2618TIP3    H1 7860   4.660   3.458   4.658 -0.9761  1.4564  1.6322
 2618TIP3    H2 7861   4.526   3.391   4.637  0.3126 -0.5693 -0.8211
 2619TIP3   OH2 7862   3.388   4.499   0.598 -0.1299  0.6098 -0.0811
 2619TIP3    H1 7863   3.362   4.557   0.526  0.1669  0.1054 -0.6059
 2619TIP3    H2 7864   3.464   4.452   0.564  0.5443  0.9810  0.8754
 2620TIP3   OH2 7865   5.033   3.388   2.865 -0.2295 -0.2585  0.2803
 2620TIP3    H1 7866   5.104   3.421   2.921  0.9276 -2.3838  0.1547
 2620TIP3    H2 7867   5.067   3.307   2.828 -2.0476 -0.3668 -1.3109
 2621TIP3   OH2 7868   0.762   2.411   0.896  0.0865  0.1010 -0.0730
 2621TIP3    H1 7869   0.763   2.472   0.970  3.2826  1.1656 -0.8488
 2621TIP3    H2 7870   0.716   2.457   0.827  0.0901  0.5201  0.2019
 2622TIP3   OH2 7871   2.578   0.791   0.071  0.5717  0.1888  0.3320
 2622TIP3    H1 7872   2.489   0.756   0.074  0.7260 -0.1892  0.5704
 2622TIP3    H2 7873   2.605   0.781  -0.020  0.4750  0.0439  0.3188
 2623TIP3   OH2 7874   4.327   0.201   1.468 -0.1118 -0.1154 -0.2175
 2623TIP3    H1 7875   4.290   0.247   1.543 -0.5685 -3.7443  2.0182
 2623TIP3    H2 7876   4.294   0.111   1.476  1.5606 -1.2134 -3.5975
 2624TIP3   OH2 7877   3.390   1.240   1.120 -0.3907  0.2948  0.4342
 2624TIP3    H1 7878   3.402   1.312   1.058 -1.3474 -0.3470 -0.5278
 2624TIP3    H2 7879   3.317   1.190   1.085 -0.8836 -0.1622  2.0395
 2625TIP3   OH2 7880   1.061   3.358   5.026 -0.2169  0.1093  0.5704
 2625TIP3    H1 7881   1.052   3.360   5.121  2.3552  0.1763  0.8844
 2625TIP3    H2 7882   1.146   3.316   5.011  1.7719  4.2843 -1.4707
 2626TIP3   OH2 7883   1.955   0.275   4.103  0.2619 -0.5516 -0.5346
 2626TIP3    H1 7884   1.879   0.225   4.074 -0.0777 -0.8170  0.7458
 2626TIP3    H2 7885   1.924   0.322   4.181  1.1560  0.0551 -0.5264
 2627TIP3   OH2 7886   2.464   3.534   1.293  0.6146  0.5812  0.8857
 2627TIP3    H1 7887   2.543   3.485   1.269  2.2071  3.9433 -1.6749
 2627TIP3    H2 7888   2.400   3.467   1.315  2.2982 -2.7322 -2.9447
 2628TIP3   OH2 7889   4.556   2.494   1.045 -0.4825 -0.1619  0.0319
 2628TIP3    H1 7890   4.558   2.582   1.007  1.0530  0.0886  0.6164
 2628TIP3    H2 7891   4.586   2.506   1.135  1.3019 -1.4686 -0.3326
 2629TIP3   OH2 7892   4.890   5.061   4.549 -0.6856 -0.6820  0.7324
 2629TIP3    H1 7893   4.814   5.029   4.597 -0.7321 -1.2233  0.3198
 2629TIP3    H2 7894   4.853   5.107   4.474 -0.6115 -0.4197  0.8584
 2630TIP3   OH2 7895   2.641   2.308   3.703  0.0226  0.1264 -0.1094
 2630TIP3    H1 7896   2.616   2.221   3.671 -2.5187  0.7636 -0.0668
 2630TIP3    H2 7897   2.725   2.294   3.747  0.3392 -2.0335 -1.2732
 2631TIP3   OH2 7898   5.601   1.329   0.448 -0.8228  0.4400  0.3921
 2631TIP3    H1 7899   5.620   1.262   0.513 -0.0260 -0.3624 -0.6278
 2631TIP3    H2 7900   5.620   1.412   0.492 -1.0832 -0.0357  1.4223
 2632TIP3   OH2 7901   2.917   0.554   1.979 -0.1006  0.0912  0.1789
 2632TIP3    H1 7902   2.926   0.500   2.058 -0.1433  2.4757  1.9282
 2632TIP3    H2 7903   2.830   0.594   1.988 -0.4647 -0.2259 -1.5570
 2633TIP3   OH2 7904   1.208   2.333   4.013  0.1533  0.3314  0.1196
 2633TIP3    H1 7905   1.189   2.381   3.932 -2.5249  0.2191  0.5914
 2633TIP3    H2 7906   1.227   2.244   3.984  0.8882  0.6599 -0.4571
 2634TIP3   OH2 7907   1.227   0.894   3.750  0.2461  0.2876 -0.4147
 2634TIP3    H1 7908   1.243   0.898   3.656 -1.6256  1.7200 -0.7368
 2634TIP3    H2 7909   1.223   0.801   3.769 -0.6997 -0.0444 -2.0347
 2635TIP3   OH2 7910   5.168   4.746   0.844  0.2016  0.1887 -0.3434
 2635TIP3    H1 7911   5.220   4.779   0.917  0.6753  0.3803 -0.7611
 2635TIP3    H2 7912   5.219   4.673   0.810 -0.4410 -0.4512  0.0565
 2636TIP3   OH2 7913   3.346   3.369   3.184 -0.2380 -0.0698 -0.6244
 2636TIP3    H1 7914   3.360   3.442   3.123 -1.1330 -0.3300 -1.1564
 2636TIP3    H2 7915   3.260   3.387   3.223  0.5710  0.4083  1.0187
 2637TIP3   OH2 7916   3.357   1.565   3.332 -0.1558 -0.6996 -0.1428
 2637TIP3    H1 7917   3.352   1.539   3.240 -1.3416 -1.2460  0.0564
 2637TIP3    H2 7918   3.364   1.482   3.379  1.2089 -0.3942  0.2385
 2638TIP3   OH2 7919   3.223   0.820   4.445  0.3482 -0.6446 -0.2002
 2638TIP3    H1 7920   3.302   0.873   4.440 -2.9910  5.0258 -1.5457
 2638TIP3    H2 7921   3.211   0.786   4.356  0.2217  0.3210 -0.5624
 2639TIP3   OH2 7922   4.854   0.744   3.122  0.4040 -0.5066  0.9728
 2639TIP3    H1 7923   4.921   0.753   3.054  0.6647 -0.6465  1.2109
 2639TIP3    H2 7924   4.893   0.782   3.200  0.4035 -1.0405  1.2428
 2640TIP3   OH2 7925   0.152   2.774   0.235  0.0861 -0.1453 -0.1081
 2640TIP3    H1 7926   0.113   2.757   0.320  0.4070  0.1083  0.0900
 2640TIP3    H2 7927   0.244   2.792   0.253  0.9520 -3.2780 -0.7937
 2641TIP3   OH2 7928   3.013   4.783   3.460  0.0917 -0.0113 -0.1767
 2641TIP3    H1 7929   2.988   4.801   3.551 -2.1477  1.7872 -1.0415
 2641TIP3    H2 7930   2.963   4.704   3.437 -1.6050  1.1183 -0.5980
 2642TIP3   OH2 7931   2.013   0.296   0.743 -0.2598 -0.1240  0.1438
 2642TIP3    H1 7932   2.047   0.350   0.814  0.2565  0.1827 -0.3258
 2642TIP3    H2 7933   1.964   0.227   0.787  0.0864  0.0372  0.8016
 2643TIP3   OH2 7934   3.782   0.252   5.096 -0.0671 -0.2309 -0.2221
 2643TIP3    H1 7935   3.758   0.163   5.122  1.2854 -0.1184  1.6725
 2643TIP3    H2 7936   3.705   0.285   5.049 -0.5198 -2.4338 -1.1378
 2644TIP3   OH2 7937   3.619   5.815   1.233  0.0770 -0.2014 -0.0898
 2644TIP3    H1 7938   3.618   5.780   1.144  0.1868 -0.2145 -0.0867
 2644TIP3    H2 7939   3.704   5.788   1.268  1.0548  1.8252 -0.7863
 2645TIP3   OH2 7940   1.808   2.808   1.157  0.0544 -0.1503 -0.0949
 2645TIP3    H1 7941   1.750   2.780   1.228 -0.4857  0.8984 -0.0871
 2645TIP3    H2 7942   1.756   2.794   1.077  0.2214 -0.2682 -0.1816
 2646TIP3   OH2 7943   3.586   3.143   1.839 -0.5606 -0.0054  0.0662
 2646TIP3    H1 7944   3.540   3.158   1.922 -0.4902 -1.6966  0.4427
 2646TIP3    H2 7945   3.663   3.092   1.864 -1.0840 -1.4655 -1.1461
 2647TIP3   OH2 7946   3.898   4.843   2.701  0.2948 -0.4359 -0.2584
 2647TIP3    H1 7947   3.868   4.795   2.779  0.8878 -0.0444  0.2180
 2647TIP3    H2 7948   3.819   4.853   2.648 -0.2935 -0.0092  0.6604
 2648TIP3   OH2 7949   5.372   3.748   4.982 -0.6581  0.0607  0.7534
 2648TIP3    H1 7950   5.391   3.655   4.981  0.6406  0.3077 -0.0867
 2648TIP3    H2 7951   5.306   3.760   4.914 -0.4215 -0.1632  0.4866
 2649TIP3   OH2 7952   4.596   2.581   4.499  0.0753  0.0105 -0.0207
 2649TIP3    H1 7953   4.501   2.585   4.492 -0.1589 -2.5472  0.7159
 2649TIP3    H2 7954   4.626   2.566   4.410 -0.1838  0.7561 -0.2444
 2650TIP3   OH2 7955   6.236   1.991   3.805  0.7385 -0.2250  0.3088
 2650TIP3    H1 7956   6.197   2.062   3.857  2.4441  0.0236  1.3285
 2650TIP3    H2 7957   6.251   2.029   3.719 -2.3705 -0.7131 -0.5808
 2651TIP3   OH2 7958   3.957   4.163   0.017 -0.4008 -0.3847  0.7187
 2651TIP3    H1 7959   3.966   4.156   0.112 -0.8900  0.1499  0.8117
 2651TIP3    H2 7960   3.864   4.179   0.003 -0.1603  0.6521  0.2246
 2652TIP3   OH2 7961   0.809   5.130   0.300  0.3070 -0.0610  0.6031
 2652TIP3    H1 7962   0.796   5.074   0.376  0.9712 -0.7486  0.2233
 2652TIP3    H2 7963   0.866   5.080   0.243 -1.0990 -0.0489 -0.8843
 2653TIP3   OH2 7964   3.838   2.406   3.372  0.2689 -0.1423  0.5271
 2653TIP3    H1 7965   3.888   2.332   3.339  0.5025  0.8778 -1.5614
 2653TIP3    H2 7966   3.894   2.482   3.354 -1.0381  0.7902  0.3004
 2654TIP3   OH2 7967   2.731   5.817   2.607 -0.0560 -0.2808  0.4400
 2654TIP3    H1 7968   2.791   5.754   2.567 -0.5315  1.1919 -2.9293
 2654TIP3    H2 7969   2.788   5.883   2.647  0.4682 -0.9301  0.7843
 2655TIP3   OH2 7970   3.033   4.560   4.078 -0.2582  0.0408 -0.6770
 2655TIP3    H1 7971   2.954   4.510   4.102 -0.5927  0.8606 -0.0278
 2655TIP3    H2 7972   3.101   4.527   4.136 -0.7900  1.2136  0.6680
 2656TIP3   OH2 7973   5.602   3.407   3.111  0.0691  0.0181 -0.1165
 2656TIP3    H1 7974   5.548   3.334   3.140 -0.8041  0.5850 -0.2890
 2656TIP3    H2 7975   5.572   3.427   3.023  1.0849 -0.1404 -0.5184
 2657TIP3   OH2 7976   5.551   1.840   1.310 -1.0755 -0.1141 -0.0874
 2657TIP3    H1 7977   5.472   1.848   1.363 -1.0731  0.1013 -0.1137
 2657TIP3    H2 7978   5.566   1.746   1.303 -0.6548 -0.1385  0.9252
 2658TIP3   OH2 7979   5.882   3.771   2.771  0.5884  0.1217  0.1121
 2658TIP3    H1 7980   5.855   3.795   2.859 -1.7532  1.2781 -0.8358
 2658TIP3    H2 7981   5.946   3.837   2.746 -0.1462  0.9253  0.2965
 2659TIP3   OH2 7982   0.136   2.292   1.783 -0.4951  0.1308  0.0918
 2659TIP3    H1 7983   0.147   2.266   1.875  0.5282 -0.4398 -0.1758
 2659TIP3    H2 7984   0.045   2.270   1.763 -0.9743  0.9996  1.1855
 2660TIP3   OH2 7985   0.274   5.452   4.325 -0.1467 -0.1713  0.1452
 2660TIP3    H1 7986   0.193   5.474   4.281  0.4607  1.5326 -0.1972
 2660TIP3    H2 7987   0.266   5.492   4.412  0.2646 -0.1302  0.1661
 2661TIP3   OH2 7988   3.917   5.828   0.948 -0.0999  0.1747 -0.1142
 2661TIP3    H1 7989   3.998   5.850   0.902  0.1664  0.1864  0.3529
 2661TIP3    H2 7990   3.897   5.907   1.000 -0.0165 -0.0890  0.3230
 2662TIP3   OH2 7991   1.690   0.972   4.480  0.4221  0.0216 -0.5690
 2662TIP3    H1 7992   1.637   1.022   4.417 -1.1685 -1.0890 -0.1730
 2662TIP3    H2 7993   1.743   1.038   4.524 -1.3626  1.3609 -0.2972
 2663TIP3   OH2 7994   0.682   1.318   3.275 -0.5419  0.2024  0.2786
 2663TIP3    H1 7995   0.673   1.405   3.312 -0.0028  0.8736 -1.0905
 2663TIP3    H2 7996   0.689   1.260   3.351 -0.3194  1.4040  1.2043
 2664TIP3   OH2 7997   1.029   0.296   4.098 -0.3692  0.9952 -0.4976
 2664TIP3    H1 7998   1.067   0.235   4.160 -2.3631  2.3970  2.3264
 2664TIP3    H2 7999   1.051   0.383   4.133 -1.2614  1.8608 -1.9666
 2665TIP3   OH2 8000   4.653   5.542   3.044 -0.1434 -0.0509 -0.2379
 2665TIP3    H1 8001   4.588   5.575   3.106  0.1904  0.3017 -0.0708
 2665TIP3    H2 8002   4.608   5.543   2.959 -0.4413 -0.0632 -0.0811
 2666TIP3   OH2 8003   2.462   0.159   0.574  0.2167 -0.0764  0.3980
 2666TIP3    H1 8004   2.519   0.222   0.619 -0.4574 -0.3246  1.6518
 2666TIP3    H2 8005   2.523   0.099   0.530  0.8922  2.4143 -2.3517
 2667TIP3   OH2 8006   6.103   5.654   2.766 -0.0772 -0.3083  0.2578
 2667TIP3    H1 8007   6.186   5.669   2.811 -0.5257  0.3440  0.9049
 2667TIP3    H2 8008   6.122   5.667   2.674  0.5294 -0.0880  0.4092
 2668TIP3   OH2 8009   5.262   1.263   0.228 -0.1485 -0.2465 -0.5486
 2668TIP3    H1 8010   5.280   1.182   0.276  1.6708  0.5941  0.2329
 2668TIP3    H2 8011   5.330   1.266   0.161 -0.2329  0.6240 -0.5954
 2669TIP3   OH2 8012   5.432   2.625   2.009 -0.2284  0.4128 -0.2417
 2669TIP3    H1 8013   5.348   2.609   2.053 -0.3797  3.6735  0.9394
 2669TIP3    H2 8014   5.498   2.604   2.076 -0.3337  1.9897  0.4044
 2670TIP3   OH2 8015   1.790   3.756   1.047  0.4243  0.4401  0.3777
 2670TIP3    H1 8016   1.837   3.754   1.131 -1.3092  0.4018  1.3974
 2670TIP3    H2 8017   1.801   3.668   1.012  3.1271  1.0788 -0.6451
 2671TIP3   OH2 8018   3.520   2.770   4.183  0.1896 -0.3072 -0.2481
 2671TIP3    H1 8019   3.549   2.840   4.242  0.9505  0.8143 -1.8660
 2671TIP3    H2 8020   3.579   2.697   4.201  1.7157  0.6952 -0.9380
 2672TIP3   OH2 8021   0.560   1.683   3.586 -0.1539 -0.6731  0.2666
 2672TIP3    H1 8022   0.646   1.684   3.627  0.2054  0.3825 -0.4470
 2672TIP3    H2 8023   0.536   1.776   3.579 -0.9948 -0.9188 -0.2551
 2673TIP3   OH2 8024   4.018   0.953   3.877 -0.1808  0.2055  0.3537
 2673TIP3    H1 8025   3.981   1.038   3.853 -0.3035 -0.2822 -1.2460
 2673TIP3    H2 8026   3.975   0.891   3.819  0.1410 -0.9250  1.2901
 2674TIP3   OH2 8027   4.442   2.054   3.879 -0.1425 -0.5837  0.3215
 2674TIP3    H1 8028   4.385   2.005   3.938 -1.7763 -0.6687 -1.2550
 2674TIP3    H2 8029   4.419   2.023   3.792  1.2879  0.4734 -0.4735
 2675TIP3   OH2 8030   3.209   3.912   4.909  0.1939 -0.3270  0.1181
 2675TIP3    H1 8031   3.297   3.883   4.931  0.4044  0.3344  0.1596
 2675TIP3    H2 8032   3.152   3.861   4.966  0.6150 -0.0034  0.8499
 2676TIP3   OH2 8033   4.375   1.165   0.944  0.0504 -0.5957 -0.0493
 2676TIP3    H1 8034   4.453   1.150   0.890 -0.5930 -0.7386 -0.9561
 2676TIP3    H2 8035   4.309   1.196   0.882 -0.1134  1.2694  0.9749
 2677TIP3   OH2 8036   1.870   2.119   2.680 -0.0335 -0.2304 -0.0443
 2677TIP3    H1 8037   1.915   2.113   2.764 -1.1088  0.7399  0.6186
 2677TIP3    H2 8038   1.900   2.202   2.642  0.3684 -0.6133 -0.5867
 2678TIP3   OH2 8039   6.279   2.459   3.764 -0.3740  0.0239  0.3470
 2678TIP3    H1 8040   6.264   2.420   3.678 -2.5967 -0.0806  0.7282
 2678TIP3    H2 8041   6.204   2.517   3.777 -0.2577 -0.2145  2.3543
 2679TIP3   OH2 8042   5.293   1.859   1.440  0.3313 -1.0280  0.0287
 2679TIP3    H1 8043   5.245   1.810   1.507 -0.2836  0.1339  0.4862
 2679TIP3    H2 8044   5.234   1.860   1.364 -0.8986  1.2236  0.9091
 2680TIP3   OH2 8045   4.461   4.370   0.902 -0.2123 -0.2277 -0.2848
 2680TIP3    H1 8046   4.374   4.336   0.881 -0.4418 -0.5455  1.0964
 2680TIP3    H2 8047   4.445   4.443   0.962  0.4684 -0.4605  0.2023
 2681TIP3   OH2 8048   1.029   2.624   1.011 -0.6156  0.3829 -0.2403
 2681TIP3    H1 8049   1.075   2.703   1.039  1.9822  0.3815 -3.7783
 2681TIP3    H2 8050   0.951   2.656   0.965  0.4554  0.9674 -1.7099
 2682TIP3   OH2 8051   0.304   5.737   0.340 -0.1392 -0.0334  0.5722
 2682TIP3    H1 8052   0.351   5.654   0.333 -0.7482 -0.6069  2.5954
 2682TIP3    H2 8053   0.212   5.711   0.352 -0.7405  1.0201 -1.3371
 2683TIP3   OH2 8054   0.176   1.712   5.112 -0.1238 -0.1330 -0.1709
 2683TIP3    H1 8055   0.181   1.629   5.158 -0.9780 -1.0757 -1.6774
 2683TIP3    H2 8056   0.262   1.723   5.072 -0.1973 -0.6257 -0.4751
 2684TIP3   OH2 8057   5.315   0.320   1.082  0.4702  0.3920 -0.1434
 2684TIP3    H1 8058   5.303   0.230   1.051  0.1673  0.5971 -0.6377
 2684TIP3    H2 8059   5.258   0.326   1.159  2.9730 -0.8308  1.9715
 2685TIP3   OH2 8060   4.685   3.680   4.930  0.1690  0.1366  0.5920
 2685TIP3    H1 8061   4.778   3.667   4.947  0.2688 -0.2200 -0.1635
 2685TIP3    H2 8062   4.645   3.595   4.945  0.3259 -0.3050 -1.2545
 2686TIP3   OH2 8063   2.426   2.904   0.069  0.4914 -0.0221  0.3585
 2686TIP3    H1 8064   2.432   2.812   0.095  1.0133 -0.6303 -1.7415
 2686TIP3    H2 8065   2.339   2.913   0.031  0.5184  0.2966  0.3701
 2687TIP3   OH2 8066   3.183   4.618   3.845 -0.6630  0.1623  0.0601
 2687TIP3    H1 8067   3.098   4.602   3.888 -0.1125 -2.7353  0.2536
 2687TIP3    H2 8068   3.245   4.621   3.918 -0.3039 -0.1484 -0.2350
 2688TIP3   OH2 8069   1.773   5.709   1.976 -0.0805 -0.1031  0.3302
 2688TIP3    H1 8070   1.777   5.768   1.901  0.7443 -1.2266 -0.5525
 2688TIP3    H2 8071   1.859   5.667   1.978 -0.5233 -1.0203  1.1326
 2689TIP3   OH2 8072   2.002   4.187   1.935  0.6253 -0.0562  0.0607
 2689TIP3    H1 8073   1.974   4.102   1.968 -0.6112 -0.4331 -1.7718
 2689TIP3    H2 8074   1.960   4.194   1.849  1.4056  2.0322 -0.2134
 2690TIP3   OH2 8075   2.161   1.528   5.090  0.0211  0.1951  0.0984
 2690TIP3    H1 8076   2.254   1.513   5.108 -0.2336 -1.4600  0.1702
 2690TIP3    H2 8077   2.136   1.455   5.034 -1.1225  0.9310 -0.3833
 2691TIP3   OH2 8078   0.069   0.828   0.235  0.3494 -0.1043 -0.7194
 2691TIP3    H1 8079   0.083   0.845   0.328 -0.4087 -2.2838 -0.1406
 2691TIP3    H2 8080  -0.025   0.813   0.226 -0.0946  2.8662 -2.4251
 2692TIP3   OH2 8081   0.867   0.264   3.455 -0.2958  0.4196 -0.2792
 2692TIP3    H1 8082   0.936   0.298   3.512 -0.4999  1.9463 -0.8696
 2692TIP3    H2 8083   0.859   0.330   3.386 -2.0524  0.0821 -0.4529
 2693TIP3   OH2 8084   4.684   0.464   0.604  0.5689  0.2436  0.4959
 2693TIP3    H1 8085   4.720   0.515   0.677  1.1497  1.6042 -0.6821
 2693TIP3    H2 8086   4.589   0.473   0.613  0.5288 -1.2268  2.1553
 2694TIP3   OH2 8087   3.144   1.832   4.319  0.3107 -0.1895 -0.5985
 2694TIP3    H1 8088   3.121   1.920   4.287  0.2174 -0.7239 -2.0751
 2694TIP3    H2 8089   3.070   1.807   4.374  0.2171  0.5620 -0.3776
 2695TIP3   OH2 8090   4.437   5.268   0.985 -0.2323 -0.6358 -0.2827
 2695TIP3    H1 8091   4.528   5.297   0.977  0.3722 -1.4851  2.4320
 2695TIP3    H2 8092   4.410   5.248   0.896  1.8258  0.7822 -1.3040
 2696TIP3   OH2 8093   3.776   4.031   4.317 -0.9057 -0.7694 -0.4925
 2696TIP3    H1 8094   3.823   4.113   4.303 -0.3477 -1.1886 -1.1533
 2696TIP3    H2 8095   3.843   3.963   4.305 -0.9939 -1.2781  1.5748
 2697TIP3   OH2 8096   0.448   5.597   1.845 -0.5051  0.1100 -0.0204
 2697TIP3    H1 8097   0.527   5.649   1.860  0.4984 -0.6308 -2.3799
 2697TIP3    H2 8098   0.393   5.653   1.789 -0.1292 -0.6594 -1.2041
 2698TIP3   OH2 8099   2.218   5.877   0.870 -0.0853  0.0775 -0.2051
 2698TIP3    H1 8100   2.249   5.954   0.916  0.8451 -1.0717  1.1836
 2698TIP3    H2 8101   2.283   5.810   0.888 -1.0508 -1.1502 -1.0569
 2699TIP3   OH2 8102   3.769   0.415   4.441 -0.2735  0.0512 -0.0605
 2699TIP3    H1 8103   3.701   0.390   4.378  0.7355 -0.0684 -1.1394
 2699TIP3    H2 8104   3.721   0.434   4.522 -1.4489 -1.5255 -0.3410
 2700TIP3   OH2 8105   2.293   3.367   3.051  0.0383  0.2924  0.2369
 2700TIP3    H1 8106   2.257   3.329   3.130  1.2070  1.1828  1.2440
 2700TIP3    H2 8107   2.325   3.292   3.000  3.1978 -0.1816  2.6187
 2701TIP3   OH2 8108   1.372   3.580   4.874 -0.2405 -0.1075  0.2983
 2701TIP3    H1 8109   1.364   3.571   4.969  0.2584  1.1409  0.4780
 2701TIP3    H2 8110   1.328   3.503   4.839 -2.4995  0.5359  1.4955
 2702TIP3   OH2 8111   5.357   0.642   2.018 -0.0340  0.1332  0.6439
 2702TIP3    H1 8112   5.343   0.615   1.927  1.9404 -1.5228  0.7585
 2702TIP3    H2 8113   5.400   0.727   2.012  2.5656 -1.1372 -0.1569
 2703TIP3   OH2 8114   2.786   5.944   3.029 -0.4452  0.2047 -0.4138
 2703TIP3    H1 8115   2.752   5.972   3.114  0.2854  0.9326 -0.3458
 2703TIP3    H2 8116   2.827   5.859   3.047  0.6682  0.8459  0.2174
 2704TIP3   OH2 8117   3.337   3.638   0.191  0.1000  0.0413  0.7721
 2704TIP3    H1 8118   3.310   3.612   0.103  0.1041 -0.3391  0.8806
 2704TIP3    H2 8119   3.271   3.599   0.249 -1.7359  2.8517  0.7733
 2705TIP3   OH2 8120   1.930   1.561   0.921 -0.6334 -0.0128 -0.5619
 2705TIP3    H1 8121   2.021   1.537   0.939 -0.8747  0.2659  1.2145
 2705TIP3    H2 8122   1.937   1.642   0.870  0.1434  0.7800  0.7363
 2706TIP3   OH2 8123   5.568   0.755   4.039 -0.1781  0.7076  0.0499
 2706TIP3    H1 8124   5.599   0.685   3.981 -0.3194 -0.9145  1.8546
 2706TIP3    H2 8125   5.474   0.737   4.050  0.1595  0.0120  2.0380
 2707TIP3   OH2 8126   4.095   5.701   4.451 -0.1516 -0.5498  0.5749
 2707TIP3    H1 8127   4.188   5.722   4.445 -0.0780 -0.3337  1.9662
 2707TIP3    H2 8128   4.086   5.615   4.410  0.6078 -0.4444  0.1782
 2708TIP3   OH2 8129   1.931   5.049   1.061  0.1121 -0.0761 -0.0675
 2708TIP3    H1 8130   1.987   4.981   1.099  2.6065  1.6170 -0.5011
 2708TIP3    H2 8131   1.966   5.131   1.096 -1.9013  1.1144 -0.6701
 2709TIP3   OH2 8132   1.776   1.379   0.794  0.3820  0.2266  0.4250
 2709TIP3    H1 8133   1.836   1.440   0.836 -0.2012 -0.0994  1.7760
 2709TIP3    H2 8134   1.828   1.339   0.724  1.8942 -0.4130  1.8614
 2710TIP3   OH2 8135   2.951   1.133   2.046 -0.0720  0.3805 -0.4134
 2710TIP3    H1 8136   3.009   1.059   2.031  0.2898  0.7064 -0.6391
 2710TIP3    H2 8137   2.889   1.102   2.112 -0.5946 -0.4917 -1.2867
 2711TIP3   OH2 8138   1.224   5.019   4.267  0.5368 -0.2048 -0.0217
 2711TIP3    H1 8139   1.223   5.092   4.204 -1.1694  0.1239  0.3490
 2711TIP3    H2 8140   1.301   4.968   4.242  0.5544  0.5453 -1.6563
 2712TIP3   OH2 8141   5.621   2.067   3.740 -0.4273  0.2134 -0.7330
 2712TIP3    H1 8142   5.675   2.123   3.684  0.0622  0.6953  0.2005
 2712TIP3    H2 8143   5.539   2.059   3.692 -0.8145  2.3979 -0.5654
 2713TIP3   OH2 8144   2.484   5.213   4.787 -0.1758 -0.0064  0.4077
 2713TIP3    H1 8145   2.502   5.289   4.732 -2.5974  0.0212 -0.4551
 2713TIP3    H2 8146   2.570   5.187   4.820  0.9664  1.8810 -0.8600
 2714TIP3   OH2 8147   0.989   2.340   4.854 -0.2796 -0.0836 -0.7193
 2714TIP3    H1 8148   0.984   2.302   4.942 -1.0630 -1.9951 -1.5357
 2714TIP3    H2 8149   1.078   2.374   4.848 -0.1418 -0.1362  0.7367
 2715TIP3   OH2 8150   4.164   1.237   0.065  0.1341 -0.6421  0.4582
 2715TIP3    H1 8151   4.078   1.198   0.084 -0.8202  0.4639 -1.3439
 2715TIP3    H2 8152   4.166   1.246  -0.030  0.9289  2.1822  0.6345
 2716TIP3   OH2 8153   3.117   3.427   3.348 -0.3397  0.3911  0.3281
 2716TIP3    H1 8154   3.089   3.401   3.436  0.6752  1.6022  1.0466
 2716TIP3    H2 8155   3.066   3.505   3.328  0.0259  0.6022  0.2034
 2717TIP3   OH2 8156   0.334   0.961   4.323  0.4151 -0.5767 -0.1179
 2717TIP3    H1 8157   0.295   0.979   4.408 -1.2837 -0.0181 -0.9693
 2717TIP3    H2 8158   0.261   0.966   4.261  1.8896  1.0862 -1.8955
 2718TIP3   OH2 8159   2.561   3.540   2.203  0.1705  0.0580  0.0168
 2718TIP3    H1 8160   2.540   3.631   2.224  1.1450  0.1192  0.8839
 2718TIP3    H2 8161   2.606   3.544   2.119  2.7145  0.7913  1.2947
 2719TIP3   OH2 8162   1.702   5.722   4.425 -0.4922 -0.0535  0.6287
 2719TIP3    H1 8163   1.660   5.724   4.340  0.1982 -0.5498  0.2668
 2719TIP3    H2 8164   1.770   5.655   4.417  0.3939  0.7537  1.1755
 2720TIP3   OH2 8165   2.828   5.623   3.502  0.4654  0.9225 -0.4541
 2720TIP3    H1 8166   2.776   5.701   3.520 -2.6258 -1.3032  1.1564
 2720TIP3    H2 8167   2.818   5.609   3.408  1.5913  2.7082 -0.8951
 2721TIP3   OH2 8168   2.887   3.385   2.116  0.2248 -0.5641  0.2348
 2721TIP3    H1 8169   2.899   3.440   2.194  0.9501 -2.2653  1.3746
 2721TIP3    H2 8170   2.858   3.446   2.048 -0.8017  0.9077  1.9205
 2722TIP3   OH2 8171   5.680   0.031   3.693 -0.3317 -0.2908  0.2096
 2722TIP3    H1 8172   5.734   0.104   3.724 -0.0594 -0.4157  0.0307
 2722TIP3    H2 8173   5.693  -0.038   3.758 -1.4498  0.1906  0.9829
 2723TIP3   OH2 8174   4.780   1.011   1.728  0.5609  0.0379 -0.4747
 2723TIP3    H1 8175   4.751   0.952   1.658 -0.2538 -1.2746  0.9062
 2723TIP3    H2 8176   4.854   0.966   1.769 -2.0656 -1.8384  2.7184
 2724TIP3   OH2 8177   4.026   1.666   3.161  0.7534 -0.0966 -0.5187
 2724TIP3    H1 8178   4.081   1.732   3.203  0.1140  0.0052  0.1898
 2724TIP3    H2 8179   4.085   1.594   3.141  1.5769  0.8914 -1.8071
 2725TIP3   OH2 8180   0.352  -0.006   4.291  0.3437 -0.2011 -0.0944
 2725TIP3    H1 8181   0.399   0.077   4.293  0.0419 -0.0340  0.0709
 2725TIP3    H2 8182   0.343  -0.031   4.383 -0.9827  0.3888 -0.0473
 2726TIP3   OH2 8183   3.909   3.584   0.063  0.1912  0.2113 -0.2026
 2726TIP3    H1 8184   3.990   3.622   0.098  0.6542 -0.3156 -0.6914
 2726TIP3    H2 8185   3.850   3.580   0.139  1.1562 -0.8631  0.5230
 2727TIP3   OH2 8186   2.696   1.175   3.182  0.2168 -0.1310  0.0174
 2727TIP3    H1 8187   2.732   1.264   3.180  0.9325 -0.3931  0.6666
 2727TIP3    H2 8188   2.682   1.153   3.090  0.0149  0.6496 -0.1530
 2728TIP3   OH2 8189   0.864   0.314   2.636 -0.4616  0.0597 -0.1921
 2728TIP3    H1 8190   0.843   0.397   2.592  0.2003 -0.2748 -1.1832
 2728TIP3    H2 8191   0.831   0.247   2.576 -1.1693 -0.4063  0.6960
 2729TIP3   OH2 8192   4.226   3.877   0.432  0.2784  0.2274 -0.2299
 2729TIP3    H1 8193   4.242   3.853   0.524  0.5934 -0.4528 -0.4577
 2729TIP3    H2 8194   4.231   3.972   0.431 -0.1436  0.2642  0.5395
 2730TIP3   OH2 8195   0.399   4.185   3.534  0.0333  0.4902  0.2168
 2730TIP3    H1 8196   0.477   4.134   3.513 -0.5818 -0.6176  0.5876
 2730TIP3    H2 8197   0.389   4.244   3.459 -0.8127 -1.8209 -1.5774
 2731TIP3   OH2 8198   3.030   5.208   3.504  0.0628 -0.5458  0.3534
 2731TIP3    H1 8199   3.061   5.119   3.490  1.6438 -0.0556  0.5420
 2731TIP3    H2 8200   3.109   5.260   3.513 -0.8314  0.8355  0.5960
 2732TIP3   OH2 8201   4.197   1.074   2.149 -0.2450  0.5998 -0.0484
 2732TIP3    H1 8202   4.279   1.034   2.175 -1.1434  0.3887  2.7740
 2732TIP3    H2 8203   4.131   1.005   2.162 -1.5463  2.2529  3.0415
 2733TIP3   OH2 8204   3.287   2.200   4.360  0.4248 -0.1873  0.0520
 2733TIP3    H1 8205   3.373   2.240   4.342  0.4088  0.7767  1.9285
 2733TIP3    H2 8206   3.282   2.196   4.455 -1.1029 -1.4357 -0.0492
 2734TIP3   OH2 8207   2.863   5.703   3.137  0.6974 -0.0655 -0.2231
 2734TIP3    H1 8208   2.862   5.607   3.139  2.0849 -0.0931  0.2327
 2734TIP3    H2 8209   2.778   5.729   3.171  0.8216 -1.1318  0.9588
 2735TIP3   OH2 8210   5.203   4.195   2.370  0.4559  0.3421 -0.0616
 2735TIP3    H1 8211   5.282   4.142   2.355  0.2900 -0.1041  0.5860
 2735TIP3    H2 8212   5.138   4.157   2.311  0.6736  0.5909 -0.4623
 2736TIP3   OH2 8213   1.804   0.796   4.672 -0.2377 -0.0486  0.3859
 2736TIP3    H1 8214   1.741   0.855   4.630  0.4208 -0.3205 -1.0350
 2736TIP3    H2 8215   1.876   0.789   4.609  0.4863 -1.0069  1.2874
 2737TIP3   OH2 8216   2.908   0.769   4.797  0.5359 -0.5574  0.4471
 2737TIP3    H1 8217   2.851   0.820   4.855  0.0219 -1.1517  0.4781
 2737TIP3    H2 8218   2.996   0.786   4.829  0.4711  1.0793 -0.1556
 2738TIP3   OH2 8219   5.139   0.481   3.787  0.2258  0.0318 -0.3577
 2738TIP3    H1 8220   5.164   0.392   3.762  0.7679  0.1218 -0.1448
 2738TIP3    H2 8221   5.053   0.494   3.747  0.1940 -0.5495 -0.4784
 2739TIP3   OH2 8222   2.963   3.733   1.379  0.3136  0.5226  0.4629
 2739TIP3    H1 8223   2.951   3.658   1.439  0.3483  0.2178  0.0908
 2739TIP3    H2 8224   2.934   3.700   1.294 -2.4317  1.7757  0.8066
 2740TIP3   OH2 8225   4.104   2.900   3.172 -0.0720  0.3422  0.2943
 2740TIP3    H1 8226   4.092   2.962   3.100 -0.6904  0.8826  0.8492
 2740TIP3    H2 8227   4.121   2.816   3.129  2.9860  1.2430 -0.5080
 2741TIP3   OH2 8228   3.029   5.550   0.951 -0.2804 -0.0005 -0.6437
 2741TIP3    H1 8229   2.994   5.462   0.937 -0.2182  0.1346 -1.7239
 2741TIP3    H2 8230   2.962   5.609   0.916 -0.3832  0.4013  0.1922
 2742TIP3   OH2 8231   4.592   3.020   2.789  0.2477 -0.2233  0.1888
 2742TIP3    H1 8232   4.623   2.962   2.859  1.5669  1.6084  1.2240
 2742TIP3    H2 8233   4.526   3.075   2.832  0.4484  0.3535 -0.2330
 2743TIP3   OH2 8234   1.840   4.696   0.135 -0.2583 -0.1483 -1.0745
 2743TIP3    H1 8235   1.847   4.629   0.068  0.0498 -2.1747  0.8794
 2743TIP3    H2 8236   1.770   4.666   0.193 -0.9003  1.8115 -0.7464
 2744TIP3   OH2 8237   2.927   5.003   4.486  0.1674 -0.2322 -0.9868
 2744TIP3    H1 8238   2.892   5.091   4.497 -0.9533 -0.9131  1.8996
 2744TIP3    H2 8239   2.889   4.972   4.404 -0.4029  1.5135 -1.4244
 2745TIP3   OH2 8240   4.167   3.046   0.611  0.3117  0.2501 -0.1591
 2745TIP3    H1 8241   4.150   2.969   0.666  0.9130  0.3798  0.2199
 2745TIP3    H2 8242   4.262   3.048   0.602  0.3396  1.1995  0.2006
 2746TIP3   OH2 8243   3.744   4.609   5.119 -0.5575 -0.2544 -0.5764
 2746TIP3    H1 8244   3.692   4.659   5.182 -0.8398 -1.5296  0.2394
 2746TIP3    H2 8245   3.728   4.652   5.035  1.8656  3.1389  0.4892
 2747TIP3   OH2 8246   5.607   5.125   1.520 -0.4179  0.2456 -0.8251
 2747TIP3    H1 8247   5.580   5.157   1.434  1.6006  0.8645 -1.2746
 2747TIP3    H2 8248   5.702   5.136   1.521 -0.3576 -0.0831  1.3562
 2748TIP3   OH2 8249   3.127   0.692   3.281 -0.1980  0.0234 -0.2382
 2748TIP3    H1 8250   3.221   0.693   3.300  0.0584 -0.4152 -1.3687
 2748TIP3    H2 8251   3.086   0.727   3.359  0.8508 -0.5832  0.6118
 2749TIP3   OH2 8252   3.511   0.585   4.369 -0.2844 -0.3326  0.2520
 2749TIP3    H1 8253   3.470   0.619   4.290  0.4381  0.0246  0.0237
 2749TIP3    H2 8254   3.593   0.634   4.377  0.4467 -1.5284  0.3099
 2750TIP3   OH2 8255   2.147   4.443   2.006  0.5050  0.5459 -0.0489
 2750TIP3    H1 8256   2.082   4.382   1.971  0.9556  1.5382 -2.9238
 2750TIP3    H2 8257   2.103   4.529   2.004  1.5246  1.0783 -1.1268
 2751TIP3   OH2 8258   5.008   2.543   3.083  0.1434 -0.6515 -0.1547
 2751TIP3    H1 8259   4.951   2.498   3.021 -0.9363 -0.2865  0.5384
 2751TIP3    H2 8260   4.949   2.574   3.152  1.0886  0.3094  0.2596
 2752TIP3   OH2 8261   0.242   2.985   0.823 -0.3215  0.1237  0.1888
 2752TIP3    H1 8262   0.182   3.057   0.844 -1.5730 -0.9486  0.4268
 2752TIP3    H2 8263   0.228   2.920   0.892  1.1538 -0.1503  0.2612
 2753TIP3   OH2 8264   5.023   3.701   1.314  0.1015  0.3378  0.4632
 2753TIP3    H1 8265   5.099   3.644   1.326  0.4830  0.9142  0.8271
 2753TIP3    H2 8266   4.949   3.641   1.304  0.0559 -0.2414  3.4510
 2754TIP3   OH2 8267   3.378   1.974   1.996  0.1455 -0.3104  0.8227
 2754TIP3    H1 8268   3.362   1.955   2.088  3.7644 -2.3545  1.2029
 2754TIP3    H2 8269   3.421   2.059   1.995 -0.4252 -0.0100  0.8919
 2755TIP3   OH2 8270   4.912   0.912   1.250 -0.0294  0.4581 -0.1753
 2755TIP3    H1 8271   4.855   0.948   1.183 -0.4018  0.3480  0.0806
 2755TIP3    H2 8272   4.860   0.844   1.293  0.9337 -0.9626 -1.1831
 2756TIP3   OH2 8273   3.545   3.127   3.745  0.2044  0.1124  0.1967
 2756TIP3    H1 8274   3.615   3.118   3.810  0.9184  1.2878 -0.3758
 2756TIP3    H2 8275   3.590   3.151   3.664 -0.6873 -1.2488 -0.7371
 2757TIP3   OH2 8276   5.598   1.863   0.589  0.3204 -0.0766 -0.3476
 2757TIP3    H1 8277   5.657   1.933   0.561 -0.9987  1.8006  1.2510
 2757TIP3    H2 8278   5.654   1.802   0.636  1.5599 -0.3314 -2.0435
 2758TIP3   OH2 8279   3.435   3.798   4.971 -0.0249  0.4435  0.5048
 2758TIP3    H1 8280   3.518   3.779   5.016  0.2975  1.6319  0.4421
 2758TIP3    H2 8281   3.418   3.719   4.919  0.6235 -0.1590  1.1704
 2759TIP3   OH2 8282   4.917   4.951   4.163 -0.3650 -0.2290 -0.6061
 2759TIP3    H1 8283   5.004   4.926   4.132 -0.5994 -0.5170 -1.0497
 2759TIP3    H2 8284   4.859   4.932   4.089 -0.5341  1.8851 -1.0944
 2760TIP3   OH2 8285   2.790   1.496   0.838  0.1489  0.3151  0.3953
 2760TIP3    H1 8286   2.738   1.571   0.809 -1.5872 -0.1736  2.0405
 2760TIP3    H2 8287   2.726   1.438   0.880  1.8188 -1.0125  1.2033
 2761TIP3   OH2 8288   0.058   1.945   0.114  0.0974 -0.1686  0.0221
 2761TIP3    H1 8289   0.127   1.903   0.063 -0.2823 -0.9640  0.1503
 2761TIP3    H2 8290  -0.023   1.910   0.078 -0.3307  1.7056 -0.9858
 2762TIP3   OH2 8291   4.455   2.122   0.749  0.2104  0.3322 -0.2078
 2762TIP3    H1 8292   4.514   2.161   0.814 -0.5909  0.1294  0.6716
 2762TIP3    H2 8293   4.369   2.158   0.772  0.1416  1.5958 -2.2169
 2763TIP3   OH2 8294   1.021   3.927   0.361 -0.2430  0.2975 -0.1079
 2763TIP3    H1 8295   0.991   3.969   0.442  0.2225 -0.2511  0.3561
 2763TIP3    H2 8296   1.116   3.937   0.362  0.0028 -1.7290  0.5816
 2764TIP3   OH2 8297   5.560   2.658   1.296  0.2509  0.4356 -0.0032
 2764TIP3    H1 8298   5.564   2.563   1.294 -0.2045  0.3872  0.7720
 2764TIP3    H2 8299   5.467   2.678   1.282  0.2810  0.7431  0.2256
 2765TIP3   OH2 8300  -0.028   4.390   2.965 -0.2344 -0.0428  0.1575
 2765TIP3    H1 8301   0.047   4.371   2.909  0.6001  1.2873  0.7802
 2765TIP3    H2 8302   0.009   4.397   3.053 -1.3136 -0.7374  0.6855
 2766TIP3   OH2 8303   3.693   4.931   2.937 -0.2945 -0.5170 -0.1308
 2766TIP3    H1 8304   3.692   4.877   3.016  1.7576 -1.3431 -0.6056
 2766TIP3    H2 8305   3.786   4.946   2.919 -0.7481  0.8666 -1.5871
 2767TIP3   OH2 8306   3.360   1.688   3.904  0.0799 -0.7452 -0.1371
 2767TIP3    H1 8307   3.304   1.677   3.981  0.8112 -1.6455  0.2822
 2767TIP3    H2 8308   3.299   1.694   3.831 -0.5922 -0.8137  0.4032
 2768TIP3   OH2 8309   3.479   3.762   2.357 -0.0746  0.1510 -0.0208
 2768TIP3    H1 8310   3.554   3.729   2.408 -1.5895 -0.8995  1.6339
 2768TIP3    H2 8311   3.469   3.699   2.286 -0.7547 -1.0265  1.0799
 2769TIP3   OH2 8312   5.809   3.344   2.569 -0.5289  0.0737  0.7030
 2769TIP3    H1 8313   5.748   3.327   2.641 -0.0828 -0.9716  0.8424
 2769TIP3    H2 8314   5.847   3.259   2.548  0.4726  0.6123  0.2388
 2770TIP3   OH2 8315   3.412   2.907   3.625 -0.0549 -0.2155  0.1325
 2770TIP3    H1 8316   3.490   2.956   3.649 -1.3582  1.2507  1.6437
 2770TIP3    H2 8317   3.340   2.952   3.669 -1.6456 -2.1354 -0.3120
 2771TIP3   OH2 8318   3.829   1.845   0.274  0.1374  0.0130 -1.0980
 2771TIP3    H1 8319   3.744   1.870   0.309  0.2394  0.7355 -1.3571
 2771TIP3    H2 8320   3.820   1.752   0.253  0.4385 -0.8542  2.0078
 2772TIP3   OH2 8321   3.995   2.306   2.515 -0.0069 -0.4871 -0.3649
 2772TIP3    H1 8322   4.070   2.353   2.480  0.7945 -0.8445  0.8325
 2772TIP3    H2 8323   4.028   2.260   2.591 -1.6894  0.2896  0.9142
 2773TIP3   OH2 8324   5.198   5.580   4.533 -0.0659  0.3398 -0.1300
 2773TIP3    H1 8325   5.181   5.583   4.439 -0.2739  0.2168 -0.0959
 2773TIP3    H2 8326   5.291   5.602   4.541 -0.2536  1.2433 -0.2995
 2774TIP3   OH2 8327   2.377   2.383   1.447 -0.1338 -0.5459  0.4117
 2774TIP3    H1 8328   2.288   2.415   1.459 -0.7771 -2.5653  1.4661
 2774TIP3    H2 8329   2.433   2.460   1.460 -1.7103  0.8608 -0.7557
 2775TIP3   OH2 8330   2.885   4.460   1.007 -0.5269  0.4419  0.9175
 2775TIP3    H1 8331   2.807   4.504   0.973 -0.8016 -0.0915  0.8536
 2775TIP3    H2 8332   2.859   4.368   1.017  0.4228  0.0376 -0.1482
 2776TIP3   OH2 8333   3.407   4.989   0.449 -0.4795  0.3962  0.2870
 2776TIP3    H1 8334   3.402   4.943   0.365 -2.0979  0.6411  0.2212
 2776TIP3    H2 8335   3.483   5.047   0.440  0.2451 -0.6451 -0.4520
 2777TIP3   OH2 8336   4.781   2.336   4.064 -0.0342 -0.0413  0.3138
 2777TIP3    H1 8337   4.760   2.246   4.039 -0.6385  0.8543 -2.8876
 2777TIP3    H2 8338   4.876   2.342   4.052 -0.1399  0.0031 -0.5876
 2778TIP3   OH2 8339   3.243   0.462   3.190 -0.6190  0.1848 -0.2802
 2778TIP3    H1 8340   3.195   0.540   3.216 -0.6309 -0.3827  1.5042
 2778TIP3    H2 8341   3.215   0.394   3.252  0.3590 -0.8962 -0.9745
 2779TIP3   OH2 8342   3.278   4.033   3.594 -0.0403 -0.5338 -0.7263
 2779TIP3    H1 8343   3.314   4.009   3.679  0.6518 -2.6374 -1.5522
 2779TIP3    H2 8344   3.221   3.960   3.570 -1.2651  0.6377 -1.4944
 2780TIP3   OH2 8345   0.173   4.569   1.978  0.8783  0.2465  0.5120
 2780TIP3    H1 8346   0.180   4.659   1.947 -0.7683  0.0863 -0.4532
 2780TIP3    H2 8347   0.142   4.577   2.068 -1.7532  0.7084 -0.3211
 2781TIP3   OH2 8348   1.098   2.398   1.719  0.2663 -0.3138  0.0582
 2781TIP3    H1 8349   1.122   2.491   1.726 -0.9920  0.1344 -1.0912
 2781TIP3    H2 8350   1.002   2.399   1.714  0.2598 -1.6604 -0.2689
 2782TIP3   OH2 8351   5.352   2.131   3.200  0.2540  0.3402  0.9643
 2782TIP3    H1 8352   5.312   2.045   3.213 -2.2068  1.2671  0.0440
 2782TIP3    H2 8353   5.320   2.160   3.115  0.7086  2.3404  1.4222
 2783TIP3   OH2 8354   2.607   0.033   0.372 -0.1308 -0.2554 -0.1439
 2783TIP3    H1 8355   2.682   0.019   0.315  0.6596  0.0435  0.7838
 2783TIP3    H2 8356   2.532   0.002   0.322  0.7388 -1.5762 -0.6679
 2784TIP3   OH2 8357   0.294   4.563   5.101  0.0733  0.0964  0.2991
 2784TIP3    H1 8358   0.347   4.511   5.161 -0.8724 -0.0325  1.0588
 2784TIP3    H2 8359   0.249   4.626   5.158  0.4235  1.0683 -0.4840
 2785TIP3   OH2 8360   1.689   2.339   2.463 -0.0619  0.2599  0.1524
 2785TIP3    H1 8361   1.639   2.260   2.440 -0.1250  1.0327 -2.8255
 2785TIP3    H2 8362   1.781   2.313   2.451 -0.0368  0.3723  0.1017
 2786TIP3   OH2 8363   4.186   4.005   2.569 -0.5725 -0.0269  0.3640
 2786TIP3    H1 8364   4.281   4.010   2.567 -0.5211 -1.1908 -0.9764
 2786TIP3    H2 8365   4.165   3.992   2.662  0.3223  3.6809  1.2455
 2787TIP3   OH2 8366   3.396   0.253   1.923 -0.1019 -0.2693  0.3095
 2787TIP3    H1 8367   3.440   0.169   1.913 -0.5551 -0.6516  1.3212
 2787TIP3    H2 8368   3.303   0.233   1.908  0.0317  0.5288 -1.8289
 2788TIP3   OH2 8369   1.358   1.893   1.698 -0.6518 -0.2205  0.2514
 2788TIP3    H1 8370   1.436   1.856   1.656  0.1759 -0.0995  1.6225
 2788TIP3    H2 8371   1.316   1.945   1.630  0.5337 -0.1903 -0.4779
 2789TIP3   OH2 8372   1.094   1.314   2.908 -0.5218 -0.1350  0.6337
 2789TIP3    H1 8373   1.020   1.319   2.969 -0.3568  0.5307  0.7832
 2789TIP3    H2 8374   1.098   1.400   2.868 -0.2507 -0.3876  0.1193
 2790TIP3   OH2 8375   5.043   5.421   2.327  0.3932  0.1101 -0.0162
 2790TIP3    H1 8376   4.967   5.365   2.341 -0.0682  1.1968  2.3101
 2790TIP3    H2 8377   5.013   5.487   2.265  0.1721 -0.7331 -0.8295
 2791TIP3   OH2 8378   0.359   4.487   2.633 -0.0777 -0.5218 -0.0139
 2791TIP3    H1 8379   0.425   4.490   2.563 -0.6539 -1.2739 -0.6100
 2791TIP3    H2 8380   0.337   4.579   2.649  1.6602 -0.2069  0.7447
 2792TIP3   OH2 8381   3.813   3.198   5.054  0.4367  0.2091 -0.3825
 2792TIP3    H1 8382   3.843   3.277   5.100 -0.3832  1.4009 -1.8133
 2792TIP3    H2 8383   3.826   3.218   4.962 -1.5831 -0.5527 -0.8760
 2793TIP3   OH2 8384   4.006   3.898   4.260  0.5971  0.5315 -0.6210
 2793TIP3    H1 8385   3.945   3.865   4.194 -0.9830  0.5000  0.7785
 2793TIP3    H2 8386   4.055   3.967   4.216 -1.0197  1.1081 -1.5951
 2794TIP3   OH2 8387   4.141   3.077   2.290 -0.4594  0.0531 -0.0206
 2794TIP3    H1 8388   4.123   3.071   2.196 -1.6314 -0.3685  0.2126
 2794TIP3    H2 8389   4.137   3.171   2.310  1.8425  0.3666 -0.7389
 2795TIP3   OH2 8390   2.682   1.184   0.562  0.0200 -0.0689 -0.3591
 2795TIP3    H1 8391   2.597   1.148   0.585 -0.1790  1.6546  1.9595
 2795TIP3    H2 8392   2.721   1.209   0.646  1.9343  1.0948 -1.5225
 2796TIP3   OH2 8393   3.496   5.712   0.825  0.1199 -0.1327 -0.5632
 2796TIP3    H1 8394   3.506   5.786   0.764  0.4464  2.2696  2.1694
 2796TIP3    H2 8395   3.574   5.716   0.879 -0.3204 -1.9576  0.2617
 2797TIP3   OH2 8396   0.741   2.445   1.191 -0.3688 -0.4604 -0.4218
 2797TIP3    H1 8397   0.749   2.531   1.150  0.4491 -1.0880 -1.6223
 2797TIP3    H2 8398   0.821   2.435   1.243 -0.8972 -0.1252  0.4821
 2798TIP3   OH2 8399   5.754   0.079   1.738  0.1888  0.1435 -0.6003
 2798TIP3    H1 8400   5.756  -0.009   1.701  3.0552  0.0593 -0.5211
 2798TIP3    H2 8401   5.699   0.071   1.816 -1.2360 -1.0578 -1.6880
 2799TIP3   OH2 8402   0.559   3.785   3.605  0.8865  0.6537 -0.5020
 2799TIP3    H1 8403   0.583   3.737   3.526 -0.5244  0.9433 -1.1375
 2799TIP3    H2 8404   0.594   3.873   3.592  3.3622 -0.0806  0.6057
 2800TIP3   OH2 8405   2.355   4.825   1.010  0.2845 -0.7389  0.0491
 2800TIP3    H1 8406   2.320   4.737   1.025 -0.7185 -0.2597  0.6165
 2800TIP3    H2 8407   2.416   4.814   0.938 -0.0300 -1.8583 -0.0703
 2801TIP3   OH2 8408   3.594   3.724   3.792  0.1139 -0.2164  0.1316
 2801TIP3    H1 8409   3.504   3.693   3.784 -0.8276  1.4429  2.9055
 2801TIP3    H2 8410   3.631   3.672   3.863  0.5884  0.5755  0.4853
 2802TIP3   OH2 8411   5.450   1.707   0.995 -0.2795 -0.2954  0.1680
 2802TIP3    H1 8412   5.415   1.756   0.921  1.0844  0.0101 -0.3019
 2802TIP3    H2 8413   5.493   1.772   1.049  2.3754 -0.9920 -0.9415
 2803TIP3   OH2 8414   5.312   4.543   0.665  0.0184  0.0248  0.4269
 2803TIP3    H1 8415   5.378   4.572   0.603  0.0406  1.6337  1.1597
 2803TIP3    H2 8416   5.354   4.472   0.713  0.8274  0.3062  0.1538
 2804TIP3   OH2 8417   2.919   5.145   2.305  0.1148 -0.3526  0.1246
 2804TIP3    H1 8418   2.984   5.126   2.373 -0.8852 -0.3052  1.1246
 2804TIP3    H2 8419   2.940   5.234   2.276  0.4698 -0.3225  0.4612
 2805TIP3   OH2 8420   0.598   5.768   4.454 -0.1268 -0.0712  0.4411
 2805TIP3    H1 8421   0.620   5.851   4.411 -1.6977 -0.7248 -1.8199
 2805TIP3    H2 8422   0.502   5.767   4.456 -0.1476 -1.8733  0.2580
 2806TIP3   OH2 8423   3.996   2.016   3.614  0.2411  0.2284  0.7977
 2806TIP3    H1 8424   3.906   1.999   3.640  0.5233 -1.5922  0.7439
 2806TIP3    H2 8425   4.037   1.929   3.610  1.9724  0.9928  0.7330
 2807TIP3   OH2 8426   1.954   3.989   0.072  0.2573  0.2346  0.2881
 2807TIP3    H1 8427   2.038   4.015   0.034  0.2132  1.0005  0.6874
 2807TIP3    H2 8428   1.976   3.952   0.157  0.2313 -0.1049  0.1504
 2808TIP3   OH2 8429   4.719   4.328   4.677 -0.3729 -0.6051  0.3987
 2808TIP3    H1 8430   4.648   4.278   4.719  0.8689 -0.6012  2.6353
 2808TIP3    H2 8431   4.772   4.360   4.750  1.4577  0.1199 -1.1847
 2809TIP3   OH2 8432   5.563   3.368   1.856  0.4712 -0.0357 -0.5926
 2809TIP3    H1 8433   5.606   3.368   1.770 -0.0873 -0.0014 -0.8763
 2809TIP3    H2 8434   5.530   3.279   1.866 -0.7128  0.3297 -1.0579
 2810TIP3   OH2 8435   0.316   3.449   1.949 -0.7549  0.0831  0.2200
 2810TIP3    H1 8436   0.370   3.410   1.879 -0.4759  0.6638  0.1095
 2810TIP3    H2 8437   0.380   3.477   2.015 -0.9145  0.8224  0.0651
 2811TIP3   OH2 8438   0.450   2.477   4.114 -0.0267  0.3071 -0.0787
 2811TIP3    H1 8439   0.498   2.542   4.164  0.8672 -0.5453  0.2036
 2811TIP3    H2 8440   0.503   2.398   4.120 -0.5855 -0.1833 -1.2429
 2812TIP3   OH2 8441   3.834   1.757   1.520 -0.0775 -0.7091 -0.2555
 2812TIP3    H1 8442   3.913   1.809   1.502  0.8155 -1.6211  0.9050
 2812TIP3    H2 8443   3.790   1.806   1.589 -0.4486 -0.3058 -0.7649
 2813TIP3   OH2 8444   4.927   3.996   2.471  0.3678  0.1996 -0.6556
 2813TIP3    H1 8445   4.961   3.979   2.384  0.5053 -1.1755 -0.3610
 2813TIP3    H2 8446   4.916   4.091   2.475  2.7131  0.5627 -1.2939
 2814TIP3   OH2 8447   3.310   5.973   1.646 -0.6715 -0.2753 -0.2883
 2814TIP3    H1 8448   3.375   5.933   1.589  1.6438  1.9790  0.6047
 2814TIP3    H2 8449   3.306   5.915   1.723 -0.0859 -0.6735 -0.5535
 2815TIP3   OH2 8450   4.426   2.428   0.751  0.2247  0.1481  0.3930
 2815TIP3    H1 8451   4.431   2.522   0.765 -1.3349  0.0871  1.6030
 2815TIP3    H2 8452   4.428   2.418   0.655  1.5582  1.2878  0.2597
 2816TIP3   OH2 8453   0.686   2.144   0.827 -0.7585  0.6587 -0.0201
 2816TIP3    H1 8454   0.696   2.191   0.909 -1.6664  1.7473 -0.5061
 2816TIP3    H2 8455   0.762   2.086   0.823 -0.3461  1.0816  1.2501
 2817TIP3   OH2 8456   3.868   5.203   1.407 -0.2450 -0.7178 -0.1991
 2817TIP3    H1 8457   3.892   5.197   1.499 -1.6828 -1.9425  0.1289
 2817TIP3    H2 8458   3.779   5.236   1.407 -0.2389 -0.6747 -1.1493
 2818TIP3   OH2 8459   0.252   3.811   2.186 -0.0616 -0.6576  0.1841
 2818TIP3    H1 8460   0.236   3.903   2.164  1.9556 -0.5805 -1.2229
 2818TIP3    H2 8461   0.254   3.810   2.282 -0.8030  0.6216  0.2450
 2819TIP3   OH2 8462   5.291   5.626   2.640 -0.0846  0.4241 -0.2559
 2819TIP3    H1 8463   5.272   5.689   2.709  1.1617 -1.3888  1.8831
 2819TIP3    H2 8464   5.278   5.540   2.681 -1.8037 -0.8065 -3.0366
 2820TIP3   OH2 8465   2.184   4.423   2.273  0.4713  0.3622  0.0412
 2820TIP3    H1 8466   2.194   4.437   2.179 -1.5992  1.0874 -0.1274
 2820TIP3    H2 8467   2.138   4.501   2.303 -0.9320 -0.8747  1.2453
 2821TIP3   OH2 8468   3.792   3.876   3.635  0.2922 -0.6292  0.0023
 2821TIP3    H1 8469   3.749   3.956   3.667 -1.1612 -0.9630 -1.0085
 2821TIP3    H2 8470   3.734   3.805   3.664  0.4935 -1.1488 -0.8538
 2822TIP3   OH2 8471   0.160   0.244   4.050  0.2909 -0.1956  0.1311
 2822TIP3    H1 8472   0.215   0.321   4.064 -0.4487  0.8687 -2.2994
 2822TIP3    H2 8473   0.191   0.206   3.968  0.0387 -1.9879  0.8168
 2823TIP3   OH2 8474   2.363   4.819   4.768  0.3003  0.1134 -0.3366
 2823TIP3    H1 8475   2.327   4.739   4.729  1.7443 -0.1092 -1.3003
 2823TIP3    H2 8476   2.452   4.796   4.792  0.1196  0.8983  1.1989
 2824TIP3   OH2 8477   5.669   5.915   3.472  0.2977  0.0372  0.0819
 2824TIP3    H1 8478   5.711   5.969   3.405  0.0294 -0.1592 -0.2486
 2824TIP3    H2 8479   5.578   5.944   3.472  0.2036 -0.2595  0.0614
 2825TIP3   OH2 8480   4.168   1.404   3.219 -0.1089  0.2265 -0.5165
 2825TIP3    H1 8481   4.206   1.317   3.213 -0.9202 -0.1949  0.2290
 2825TIP3    H2 8482   4.081   1.390   3.256 -0.8351  1.1910 -1.7445
 2826TIP3   OH2 8483   4.133   4.762   2.598  0.3056  0.4367 -0.2177
 2826TIP3    H1 8484   4.050   4.810   2.605 -0.8350 -1.3662 -0.8964
 2826TIP3    H2 8485   4.178   4.781   2.681 -2.3823 -1.3774  1.8425
 2827TIP3   OH2 8486   4.883   4.170   4.523 -0.8661 -0.5778  0.5767
 2827TIP3    H1 8487   4.842   4.239   4.575 -0.5858  1.3441 -1.5983
 2827TIP3    H2 8488   4.814   4.139   4.464  0.0545  1.0216 -1.4688
 2828TIP3   OH2 8489   4.609   5.583   0.169 -0.3191 -0.2592 -0.1005
 2828TIP3    H1 8490   4.524   5.542   0.151 -1.2101  0.9706  1.0472
 2828TIP3    H2 8491   4.586   5.668   0.207  1.4187 -0.4209  1.4392
 2829TIP3   OH2 8492   6.022   4.246   0.183 -0.2422  0.2526 -0.4826
 2829TIP3    H1 8493   5.953   4.182   0.201  0.3157 -0.2426 -0.0632
 2829TIP3    H2 8494   6.052   4.224   0.095  1.3887 -1.4651  0.4217
 2830TIP3   OH2 8495   2.600   1.068   1.432 -0.5281  0.6392 -1.0146
 2830TIP3    H1 8496   2.602   1.067   1.336  0.5960  2.3476 -1.0522
 2830TIP3    H2 8497   2.690   1.052   1.459 -1.0787 -1.3742 -0.1464
 2831TIP3   OH2 8498   4.052   3.338   2.367 -0.3400  0.0664 -0.1372
 2831TIP3    H1 8499   4.084   3.418   2.409  0.0986 -1.0327  1.7292
 2831TIP3    H2 8500   3.957   3.350   2.362 -0.2821  0.6926  0.1835
 2832TIP3   OH2 8501   3.280   2.706   2.747 -0.3154 -0.4068 -0.7345
 2832TIP3    H1 8502   3.347   2.656   2.793  1.3757  1.1505 -1.3949
 2832TIP3    H2 8503   3.260   2.779   2.806  0.1201  0.2826 -1.4266
 2833TIP3   OH2 8504   1.283   0.579   1.017  0.4205 -0.4100  0.0563
 2833TIP3    H1 8505   1.198   0.552   0.982  0.7008 -1.2889  0.0189
 2833TIP3    H2 8506   1.264   0.658   1.067 -0.3084 -0.2205 -0.4947
 2834TIP3   OH2 8507   6.111   2.725   5.088  0.3297  0.2367 -0.0049
 2834TIP3    H1 8508   6.024   2.749   5.120 -0.1420  0.0094 -1.0655
 2834TIP3    H2 8509   6.171   2.776   5.142 -0.3646 -0.7136  1.7399
 2835TIP3   OH2 8510   4.009   0.202   2.014 -0.1936 -0.0584  0.0675
 2835TIP3    H1 8511   4.042   0.123   1.972  1.2644  0.0138  0.9829
 2835TIP3    H2 8512   3.998   0.264   1.943  1.5635 -0.1502 -0.3417
 2836TIP3   OH2 8513   5.186   1.946   3.867 -0.6829  0.3011  0.2053
 2836TIP3    H1 8514   5.183   2.033   3.906 -0.2328  0.4238 -0.0264
 2836TIP3    H2 8515   5.229   1.959   3.782 -0.5201 -0.1641  0.2137
 2837TIP3   OH2 8516   4.285   1.502   4.589 -0.1199  0.1057 -0.3591
 2837TIP3    H1 8517   4.196   1.538   4.587 -0.7772 -1.4730 -2.0181
 2837TIP3    H2 8518   4.324   1.540   4.668 -2.4524  0.3948  0.7396
 2838TIP3   OH2 8519   5.280   2.569   3.222  0.0986  0.0083 -0.2323
 2838TIP3    H1 8520   5.190   2.548   3.198  0.3615 -0.4227 -0.8832
 2838TIP3    H2 8521   5.328   2.486   3.211  0.0618 -0.5320  2.8712
 2839TIP3   OH2 8522   4.634   2.029   3.562  0.4315 -0.4623 -0.0839
 2839TIP3    H1 8523   4.633   2.099   3.627  1.2288 -1.9298  1.5854
 2839TIP3    H2 8524   4.686   2.064   3.490 -0.8876  1.3896 -0.2142
 2840TIP3   OH2 8525   3.447   4.465   4.448  0.3767 -0.1633 -0.1130
 2840TIP3    H1 8526   3.493   4.436   4.369 -1.3221 -1.1764 -0.7948
 2840TIP3    H2 8527   3.492   4.545   4.473  1.7540 -0.4804 -1.3900
 2841TIP3   OH2 8528   1.376   1.752   4.658 -0.5944 -0.7205  0.5730
 2841TIP3    H1 8529   1.401   1.832   4.612 -2.6342 -0.4393 -0.1440
 2841TIP3    H2 8530   1.371   1.685   4.590  0.7458 -1.4291  1.1160
 2842TIP3   OH2 8531   1.854   4.952   1.884  0.5700  0.3526 -0.3497
 2842TIP3    H1 8532   1.899   4.983   1.963  0.2042 -0.8648  0.3593
 2842TIP3    H2 8533   1.882   4.862   1.874 -1.1976 -0.2503 -0.2418
 2843TIP3   OH2 8534   5.377   4.185   4.065  0.1023  0.3405 -0.2751
 2843TIP3    H1 8535   5.355   4.094   4.089  1.8611  0.5637  2.7061
 2843TIP3    H2 8536   5.358   4.235   4.144 -0.3265  2.5346 -1.7033
 2844TIP3   OH2 8537   4.325   3.799   4.675 -0.0771 -0.4156  0.0541
 2844TIP3    H1 8538   4.262   3.864   4.706 -0.0239 -0.5278  0.4020
 2844TIP3    H2 8539   4.410   3.831   4.706  0.0576 -0.1857 -0.5434
 2845TIP3   OH2 8540   4.823   2.873   0.370  0.0161 -0.1920 -0.2503
 2845TIP3    H1 8541   4.757   2.897   0.306  0.0248 -0.2064 -0.2645
 2845TIP3    H2 8542   4.891   2.827   0.320 -0.2182 -0.6511 -0.1530
 2846TIP3   OH2 8543   5.050   4.486   3.981 -0.2381  0.1856 -0.1049
 2846TIP3    H1 8544   4.984   4.522   4.039  1.0543 -0.1113  1.6364
 2846TIP3    H2 8545   5.035   4.530   3.897 -2.8257 -0.1597  0.0958
 2847TIP3   OH2 8546   5.220   3.276   2.315  0.7359 -0.2574  0.0317
 2847TIP3    H1 8547   5.275   3.353   2.304  1.2793 -0.7943 -1.3511
 2847TIP3    H2 8548   5.164   3.275   2.237 -2.7757  1.3761  2.2798
 2848TIP3   OH2 8549   4.773   0.095   3.695  0.5406  0.1267 -0.4124
 2848TIP3    H1 8550   4.699   0.131   3.745 -1.0677 -2.3527 -0.8252
 2848TIP3    H2 8551   4.802   0.168   3.641 -3.0864  0.7766 -1.8288
 2849TIP3   OH2 8552   1.790   2.754   4.843  0.1122  0.5812 -0.1786
 2849TIP3    H1 8553   1.703   2.715   4.857  0.9831 -1.1984  0.6070
 2849TIP3    H2 8554   1.783   2.799   4.759 -1.4306  0.0862 -0.3431
 2850TIP3   OH2 8555   1.637   3.013   0.057 -0.3025 -0.0920 -0.2763
 2850TIP3    H1 8556   1.563   2.953   0.046 -1.8215  1.4830  0.7710
 2850TIP3    H2 8557   1.645   3.058  -0.027 -1.5639  0.7712  0.0279
 2851TIP3   OH2 8558   2.693   5.284   2.673 -0.2709  0.8005  0.3046
 2851TIP3    H1 8559   2.617   5.241   2.712 -0.1281 -0.5212 -0.7986
 2851TIP3    H2 8560   2.766   5.226   2.693  0.6472  2.4743  2.0826
 2852TIP3   OH2 8561   0.242   4.457   0.577  0.3853 -0.7629 -0.2269
 2852TIP3    H1 8562   0.160   4.446   0.626  0.7053  0.2244  0.5452
 2852TIP3    H2 8563   0.295   4.381   0.602  1.0143  0.3165  1.9352
 2853TIP3   OH2 8564   4.999   2.719   1.518 -0.1350  0.7696 -0.0845
 2853TIP3    H1 8565   4.962   2.661   1.584 -0.5713 -0.5554 -1.4337
 2853TIP3    H2 8566   4.995   2.806   1.557 -0.2352  0.0021  1.6731
 2854TIP3   OH2 8567   2.115   0.739   2.115 -0.2151 -0.6133  0.0467
 2854TIP3    H1 8568   2.147   0.671   2.055 -0.8354 -0.6048 -0.2975
 2854TIP3    H2 8569   2.137   0.822   2.072 -1.4702 -0.6100 -0.6105
 2855TIP3   OH2 8570   2.084   1.183   4.321  0.2786  0.2135  0.4353
 2855TIP3    H1 8571   2.093   1.199   4.415  0.1030  1.7815  0.2152
 2855TIP3    H2 8572   2.163   1.133   4.297  0.3379 -0.1710  1.3959
 2856TIP3   OH2 8573   3.623   2.587   3.337 -0.3915 -0.8241  0.1516
 2856TIP3    H1 8574   3.706   2.546   3.310 -0.6489 -0.9692 -0.4423
 2856TIP3    H2 8575   3.572   2.515   3.373 -0.1872 -0.6967  0.7084
 2857TIP3   OH2 8576   1.606   1.844   3.573 -0.0658 -0.2187 -0.4054
 2857TIP3    H1 8577   1.684   1.809   3.529 -0.3233 -0.1545 -0.9280
 2857TIP3    H2 8578   1.533   1.805   3.525 -0.3538  0.2304 -0.3296
 2858TIP3   OH2 8579   6.244   4.681   4.267  0.4109  0.1002  0.1622
 2858TIP3    H1 8580   6.332   4.646   4.263  0.2020 -0.4012 -0.1515
 2858TIP3    H2 8581   6.254   4.774   4.246  1.1242  0.5238  2.2310
 2859TIP3   OH2 8582   1.233   4.372   2.563 -0.3025 -0.5167  0.1184
 2859TIP3    H1 8583   1.326   4.351   2.575  0.0644  0.2359 -1.1561
 2859TIP3    H2 8584   1.208   4.417   2.644  1.3356  2.1074 -0.6794
 2860TIP3   OH2 8585   0.432   4.126   5.070 -0.2535 -0.0251  0.2792
 2860TIP3    H1 8586   0.361   4.181   5.103 -0.1380  0.0099  0.4675
 2860TIP3    H2 8587   0.450   4.160   4.982  0.9035  1.2714  0.9892
 2861TIP3   OH2 8588   2.228   1.020   0.959  0.2498 -0.1118  0.3959
 2861TIP3    H1 8589   2.276   1.051   0.882  0.1155  2.0676  1.1448
 2861TIP3    H2 8590   2.136   1.024   0.934  0.2806 -3.3336 -0.6848
 2862TIP3   OH2 8591   1.871   1.123   0.355  0.4851  0.3160  0.3089
 2862TIP3    H1 8592   1.873   1.169   0.271  0.4124  0.1713  0.2264
 2862TIP3    H2 8593   1.877   1.030   0.331  1.0441  0.3002  0.4952
 2863TIP3   OH2 8594   5.145   1.673   1.606 -0.4872 -0.2528  0.0278
 2863TIP3    H1 8595   5.115   1.660   1.516  2.7994 -0.5995 -1.1611
 2863TIP3    H2 8596   5.102   1.603   1.655 -3.2444  0.6128 -0.9495
 2864TIP3   OH2 8597   1.541   0.215   2.768 -0.2824  0.3699  0.2920
 2864TIP3    H1 8598   1.484   0.281   2.806 -0.9808 -0.0372 -0.0191
 2864TIP3    H2 8599   1.606   0.265   2.719 -1.5122  0.8386 -0.9472
 2865TIP3   OH2 8600   2.882   2.742   0.585 -0.2103 -0.1863 -0.1907
 2865TIP3    H1 8601   2.857   2.688   0.510  1.4599 -1.0256 -0.1752
 2865TIP3    H2 8602   2.975   2.724   0.599 -0.3949  0.1673  1.9030
 2866TIP3   OH2 8603   1.356   3.244   4.887 -0.3152  0.4434 -0.1529
 2866TIP3    H1 8604   1.340   3.202   4.971  0.4543 -0.0468 -0.2473
 2866TIP3    H2 8605   1.278   3.224   4.835  0.1492 -1.1342 -0.2968
 2867TIP3   OH2 8606   0.345   5.192   4.388  0.3093 -0.1989 -0.2635
 2867TIP3    H1 8607   0.390   5.259   4.337  0.4458  0.5973  0.8595
 2867TIP3    H2 8608   0.253   5.220   4.387 -0.0040 -1.2148 -1.6276
 2868TIP3   OH2 8609   6.205   3.020   4.838 -0.2319  0.4337 -0.0019
 2868TIP3    H1 8610   6.222   3.051   4.750  0.2900  2.0145  0.6258
 2868TIP3    H2 8611   6.214   3.097   4.894 -0.2993 -0.5685  1.4727
 2869TIP3   OH2 8612   0.105   4.394   2.709  0.1115  0.2790  0.0271
 2869TIP3    H1 8613   0.180   4.441   2.673  1.0574 -0.4378  0.9960
 2869TIP3    H2 8614   0.029   4.442   2.677  0.9408  0.5837 -1.6049
 2870TIP3   OH2 8615   0.477   4.850   0.393  1.0095  0.2712  0.4035
 2870TIP3    H1 8616   0.439   4.931   0.425 -1.2197 -0.3925 -0.3790
 2870TIP3    H2 8617   0.431   4.781   0.441  1.6534 -0.5583 -0.1328
 2871TIP3   OH2 8618   1.067   1.049   0.190  0.2796  0.8032  0.0209
 2871TIP3    H1 8619   1.020   0.973   0.157 -0.7344  0.9208  1.1217
 2871TIP3    H2 8620   1.156   1.040   0.155 -0.2117 -0.1005 -1.0457
 2872TIP3   OH2 8621   5.769   4.344   4.721  0.2533  0.6761 -0.0504
 2872TIP3    H1 8622   5.686   4.358   4.675  0.4943  0.7651 -0.4640
 2872TIP3    H2 8623   5.748   4.361   4.813 -0.0718  1.2103 -0.2134
 2873TIP3   OH2 8624   4.941   3.664   2.484 -0.1259  0.2568  0.5961
 2873TIP3    H1 8625   4.924   3.711   2.402  1.2344  0.5988  0.4779
 2873TIP3    H2 8626   4.858   3.624   2.507 -0.4220 -0.2330 -1.2006
 2874TIP3   OH2 8627   0.452   4.294   3.952  0.2122  0.0162 -0.0416
 2874TIP3    H1 8628   0.461   4.249   4.036 -0.4121 -0.7094 -0.3539
 2874TIP3    H2 8629   0.531   4.270   3.903  0.6638  0.5840  0.3952
 2875TIP3   OH2 8630   2.703   4.245   3.721  0.6921  0.1819  0.0063
 2875TIP3    H1 8631   2.724   4.325   3.770 -1.8362  1.6376 -1.0339
 2875TIP3    H2 8632   2.647   4.195   3.780 -1.0939  1.2108 -0.7257
 2876TIP3   OH2 8633   0.950   3.460   3.343  0.4507 -0.3582  0.0321
 2876TIP3    H1 8634   1.013   3.392   3.322  0.8626  0.2325 -0.7103
 2876TIP3    H2 8635   0.982   3.537   3.296  0.7135  0.7085  1.8328
 2877TIP3   OH2 8636   4.297   5.947   3.402  0.0549  0.4369  0.6017
 2877TIP3    H1 8637   4.369   5.884   3.394  1.1344  1.7683 -0.6899
 2877TIP3    H2 8638   4.234   5.904   3.461  1.3386 -1.2711  0.8070
 2878TIP3   OH2 8639   3.125   1.549   4.521 -0.6401  0.1545  0.0039
 2878TIP3    H1 8640   3.121   1.469   4.470 -1.9363 -0.5592  1.1801
 2878TIP3    H2 8641   3.059   1.538   4.589  2.3002  0.1832  3.1159
 2879TIP3   OH2 8642   1.714   2.610   2.766  0.3096 -0.3537 -0.1829
 2879TIP3    H1 8643   1.688   2.530   2.720  1.3769 -0.7922 -0.0400
 2879TIP3    H2 8644   1.659   2.611   2.845 -0.1014 -0.6520 -0.4618
 2880TIP3   OH2 8645   4.393   5.348   4.335  0.2643 -0.1502  0.2074
 2880TIP3    H1 8646   4.427   5.361   4.424  1.5568 -0.5949 -0.1880
 2880TIP3    H2 8647   4.300   5.369   4.341  0.8625  2.8275  1.0090
 2881TIP3   OH2 8648   3.158   3.109   4.858  0.4205 -0.0633 -0.8307
 2881TIP3    H1 8649   3.118   3.086   4.774  0.7636  1.7916 -1.5517
 2881TIP3    H2 8650   3.133   3.200   4.872  1.4106  0.0268  0.4704
 2882TIP3   OH2 8651   2.353   5.190   1.034 -0.0635 -0.0274  0.4539
 2882TIP3    H1 8652   2.382   5.272   0.995  0.5083 -1.0379 -1.3767
 2882TIP3    H2 8653   2.432   5.150   1.069  0.0302 -0.6709 -0.4390
 2883TIP3   OH2 8654   2.315   5.149   5.033 -0.1634  0.0624 -0.0161
 2883TIP3    H1 8655   2.354   5.157   4.946 -1.7090  1.1267 -0.6537
 2883TIP3    H2 8656   2.223   5.171   5.020 -0.2150  1.4068  2.0837
 2884TIP3   OH2 8657   1.442   0.363   1.085  0.1485  0.0184  0.2726
 2884TIP3    H1 8658   1.408   0.439   1.039  1.5264  1.7235  1.9278
 2884TIP3    H2 8659   1.369   0.331   1.138 -0.0745  1.0417  0.5932
 2885TIP3   OH2 8660   4.918   0.942   4.795 -0.4642 -0.1790  0.0103
 2885TIP3    H1 8661   4.925   0.966   4.702  0.6008 -2.0325 -0.4499
 2885TIP3    H2 8662   4.995   0.981   4.836 -1.0286  0.7899  0.1597
 2886TIP3   OH2 8663   1.209   0.743   1.345 -0.1597  0.5890  1.0030
 2886TIP3    H1 8664   1.225   0.806   1.274 -0.2149 -0.1668  0.3028
 2886TIP3    H2 8665   1.125   0.704   1.323 -0.0164  0.1112  1.3089
 2887TIP3   OH2 8666   5.529   0.897   4.909 -0.0098  0.0359 -0.4697
 2887TIP3    H1 8667   5.540   0.965   4.843 -0.2417  0.8141  0.2833
 2887TIP3    H2 8668   5.468   0.934   4.973  1.5269  0.0193  1.1116
 2888TIP3   OH2 8669  -0.003   5.628   0.042 -0.0057  0.4210 -0.1566
 2888TIP3    H1 8670   0.071   5.645   0.101 -0.2894 -2.0184  1.0543
 2888TIP3    H2 8671  -0.044   5.549   0.078 -1.8964  0.4441 -2.0692
 2889TIP3   OH2 8672   2.455   3.922   4.672  0.2598 -0.4069 -0.4124
 2889TIP3    H1 8673   2.507   3.899   4.749 -1.6500 -1.1136  0.7041
 2889TIP3    H2 8674   2.419   4.009   4.692  1.2088  0.2332 -1.3293
 2890TIP3   OH2 8675   2.496   5.793   1.596 -0.6334 -0.3547  0.2013
 2890TIP3    H1 8676   2.566   5.833   1.648 -1.2010 -0.5811  1.1553
 2890TIP3    H2 8677   2.496   5.842   1.514  0.5032 -0.2118  0.2646
 2891TIP3   OH2 8678   3.908   2.240   5.147  0.0545 -0.1672  0.4568
 2891TIP3    H1 8679   3.976   2.205   5.089  1.2412  0.2395  1.5543
 2891TIP3    H2 8680   3.837   2.176   5.142  0.6818 -0.8244 -0.3879
 2892TIP3   OH2 8681   2.533   2.911   4.375 -0.3104 -0.1486  0.1366
 2892TIP3    H1 8682   2.626   2.935   4.381 -0.4955  0.8081 -0.6147
 2892TIP3    H2 8683   2.489   2.974   4.431 -0.5918 -0.0470 -0.1977
 2893TIP3   OH2 8684   3.752   2.166   2.120 -0.5448  0.1789 -0.1012
 2893TIP3    H1 8685   3.818   2.125   2.177  0.1747 -0.0233 -1.0612
 2893TIP3    H2 8686   3.797   2.179   2.037 -1.1412  1.8091 -0.1970
 2894TIP3   OH2 8687   2.537   0.233   3.511 -0.3227 -0.1209 -2.0175
 2894TIP3    H1 8688   2.582   0.271   3.587 -3.7367 -1.6414  1.0504
 2894TIP3    H2 8689   2.500   0.309   3.466 -1.1308  0.7272 -0.0734
 2895TIP3   OH2 8690   4.889   3.831   4.725  0.0417 -0.2687 -0.4625
 2895TIP3    H1 8691   4.958   3.837   4.659 -0.1038  0.3056 -0.5697
 2895TIP3    H2 8692   4.927   3.777   4.794  0.5043 -0.1760 -0.6386
 2896TIP3   OH2 8693   0.440   2.790   4.243  0.2205 -0.5734 -0.3362
 2896TIP3    H1 8694   0.428   2.872   4.195 -0.3060 -0.8477 -0.6765
 2896TIP3    H2 8695   0.434   2.816   4.335 -3.3113 -0.6561 -0.4024
 2897TIP3   OH2 8696   1.383   3.633   2.545 -0.1562 -0.3020  0.4479
 2897TIP3    H1 8697   1.472   3.640   2.581  0.1943  2.7067 -0.6837
 2897TIP3    H2 8698   1.395   3.584   2.464 -0.0219 -2.1407  1.5204
 2898TIP3   OH2 8699   3.282   1.236   2.801 -0.1458 -0.0064  0.9528
 2898TIP3    H1 8700   3.375   1.243   2.823  0.6664  1.8192 -2.5024
 2898TIP3    H2 8701   3.274   1.151   2.758  0.4200  0.6979 -0.5950
 2899TIP3   OH2 8702   3.588   4.137   1.686  0.3076  0.4903 -0.6241
 2899TIP3    H1 8703   3.539   4.081   1.626  0.3676  0.4948 -0.6774
 2899TIP3    H2 8704   3.678   4.103   1.682 -0.0127 -0.6378  0.7776
 2900TIP3   OH2 8705   4.635   0.513   4.298 -0.0125  0.0650  0.3614
 2900TIP3    H1 8706   4.599   0.446   4.240  0.0927 -0.2603  0.6667
 2900TIP3    H2 8707   4.576   0.588   4.287 -0.4826 -0.2856  0.4647
 2901TIP3   OH2 8708   2.638   5.889   0.786 -0.2358  0.2679  0.1257
 2901TIP3    H1 8709   2.625   5.983   0.785 -1.3749  0.1747  2.2083
 2901TIP3    H2 8710   2.569   5.854   0.730 -1.4720  0.5492  1.4173
 2902TIP3   OH2 8711   1.118   2.058   2.937 -0.5295 -0.0511  0.3745
 2902TIP3    H1 8712   1.034   2.075   2.979 -0.8977 -0.9010 -0.0024
 2902TIP3    H2 8713   1.111   2.098   2.850 -0.8644 -0.8614  0.0244
 2903TIP3   OH2 8714   1.225   5.415   3.032 -0.6884 -0.2915  0.2758
 2903TIP3    H1 8715   1.190   5.398   3.120 -0.8682  0.3105  0.3252
 2903TIP3    H2 8716   1.193   5.502   3.010  0.6980  0.2372  0.2672
 2904TIP3   OH2 8717   3.799   1.217   3.076  0.2662  0.4672 -0.2746
 2904TIP3    H1 8718   3.885   1.220   3.119 -1.1614  1.0141  2.8556
 2904TIP3    H2 8719   3.787   1.125   3.053  1.2151  0.1692  0.3553
 2905TIP3   OH2 8720   5.195   0.366   4.923  0.1385 -0.1481 -0.5867
 2905TIP3    H1 8721   5.162   0.277   4.932  2.1032 -0.7426  1.8660
 2905TIP3    H2 8722   5.289   0.355   4.909  0.5049  1.5243  0.3406
 2906TIP3   OH2 8723   3.113   0.441   2.960  0.2234 -0.1904  0.0625
 2906TIP3    H1 8724   3.157   0.501   2.900  0.7539  0.5533  1.1523
 2906TIP3    H2 8725   3.172   0.435   3.035 -0.8219 -0.4040  0.8908
 2907TIP3   OH2 8726   0.256   3.748   0.799 -0.3740  0.4824  0.1148
 2907TIP3    H1 8727   0.193   3.820   0.797  0.6102  1.4241  1.2254
 2907TIP3    H2 8728   0.241   3.705   0.884  1.5783  1.8070  1.2057
 2908TIP3   OH2 8729   2.336   2.540   4.238  0.2275 -0.3363 -0.4496
 2908TIP3    H1 8730   2.393   2.470   4.269  1.4323  0.3357 -1.1103
 2908TIP3    H2 8731   2.370   2.564   4.152 -1.6295 -0.5638 -1.3159
 2909TIP3   OH2 8732   3.291   0.015   1.216  0.1690  0.4345 -0.0428
 2909TIP3    H1 8733   3.251  -0.071   1.228  2.0576 -0.9932 -2.8422
 2909TIP3    H2 8734   3.269   0.063   1.295 -0.3988 -2.8537  1.9705
 2910TIP3   OH2 8735   0.723   1.572   3.073 -0.9654  0.3041 -0.2694
 2910TIP3    H1 8736   0.675   1.570   3.156 -1.7940  0.2098 -0.7431
 2910TIP3    H2 8737   0.773   1.491   3.072  0.8830  1.3559  1.1871
 2911TIP3   OH2 8738   2.744   5.702   0.506 -0.0357  0.0806  0.3355
 2911TIP3    H1 8739   2.653   5.689   0.479  0.0792 -1.7954  0.7286
 2911TIP3    H2 8740   2.783   5.615   0.501  1.5115  0.7033  1.0134
 2912TIP3   OH2 8741   5.837   1.617   4.041 -0.0480  0.5826 -0.2548
 2912TIP3    H1 8742   5.831   1.651   3.952 -0.7608  1.6783  0.1899
 2912TIP3    H2 8743   5.827   1.694   4.097 -0.4365 -0.1953  0.7792
 2913TIP3   OH2 8744   5.402   2.191   5.103 -0.4823 -0.0665 -0.0875
 2913TIP3    H1 8745   5.490   2.227   5.104  0.0104 -1.2331 -0.1989
 2913TIP3    H2 8746   5.353   2.249   5.045  0.5423 -0.1337 -1.0556
 2914TIP3   OH2 8747   0.451   1.387   2.479 -0.4027 -0.3691  0.9348
 2914TIP3    H1 8748   0.419   1.446   2.548 -0.2195 -0.7958  1.3887
 2914TIP3    H2 8749   0.522   1.338   2.520  1.7297  1.3961 -0.3835
 2915TIP3   OH2 8750   2.790   3.998   4.490 -0.2760  0.5939 -0.3203
 2915TIP3    H1 8751   2.844   4.076   4.478  0.7526 -0.3619 -2.6582
 2915TIP3    H2 8752   2.704   4.022   4.454  0.2949  0.4429 -1.8801
 2916TIP3   OH2 8753   0.930   4.484   0.041  0.5061 -0.7250  0.0069
 2916TIP3    H1 8754   0.983   4.415   0.081 -1.2020 -1.5320  0.9749
 2916TIP3    H2 8755   0.925   4.552   0.108 -1.5578 -1.6687  0.9200
 2917TIP3   OH2 8756   1.131   3.986   0.914  0.4912  0.5994  0.2678
 2917TIP3    H1 8757   1.167   4.064   0.870 -0.8510  1.4932  0.7197
 2917TIP3    H2 8758   1.099   3.932   0.842  0.0721  1.1607  0.0216
 2918TIP3   OH2 8759   5.070   1.785   1.131 -0.1343 -0.4431 -0.2176
 2918TIP3    H1 8760   5.015   1.759   1.057  0.3431 -1.1372 -0.3447
 2918TIP3    H2 8761   5.123   1.857   1.097  1.8259 -2.2999 -1.3826
 2919TIP3   OH2 8762   3.382   0.379   2.157 -0.9367  0.4362  0.3337
 2919TIP3    H1 8763   3.325   0.325   2.212  0.4178 -0.8421  0.5282
 2919TIP3    H2 8764   3.359   0.354   2.068 -0.5486 -0.2379  0.4162
 2920TIP3   OH2 8765   2.444   2.319   4.391  0.4372  0.4729 -0.3086
 2920TIP3    H1 8766   2.496   2.296   4.467  1.3752 -0.4557 -1.2060
 2920TIP3    H2 8767   2.453   2.245   4.331 -1.4590  0.5254 -0.7469
 2921TIP3   OH2 8768   3.813   2.876   2.517  0.0082 -0.3598 -0.0205
 2921TIP3    H1 8769   3.863   2.816   2.572  1.6086  0.7386 -0.1948
 2921TIP3    H2 8770   3.722   2.856   2.536  0.5069 -1.1727  1.7586
 2922TIP3   OH2 8771   3.706   2.276   2.768 -0.0980  0.1856 -0.4573
 2922TIP3    H1 8772   3.760   2.206   2.732 -3.1364 -1.6027 -1.9667
 2922TIP3    H2 8773   3.695   2.253   2.860 -0.9142 -1.3137 -0.8990
 2923TIP3   OH2 8774   1.240   4.954   1.775 -0.4326  0.2420  0.1073
 2923TIP3    H1 8775   1.254   4.880   1.716 -0.4313  0.4077 -0.1015
 2923TIP3    H2 8776   1.151   4.942   1.808 -0.6875  0.5210 -0.4588
 2924TIP3   OH2 8777   3.705   2.428   1.567 -0.3101 -0.4099 -0.1805
 2924TIP3    H1 8778   3.795   2.405   1.547  0.2210 -0.1425  1.6910
 2924TIP3    H2 8779   3.698   2.521   1.544 -0.0737 -0.4009 -0.2172
 2925TIP3   OH2 8780   4.655   1.186   1.968  0.3757  0.6640  0.0166
 2925TIP3    H1 8781   4.702   1.216   2.046  0.8564  1.4124 -0.5498
 2925TIP3    H2 8782   4.723   1.177   1.901 -0.1209  0.6228 -0.4891
 2926TIP3   OH2 8783   3.448   2.271   1.331 -0.2147  0.1369 -0.3993
 2926TIP3    H1 8784   3.399   2.214   1.389 -0.1010 -1.8204 -2.1198
 2926TIP3    H2 8785   3.539   2.244   1.341  0.1217  1.3996  0.2110
 2927TIP3   OH2 8786   1.080   2.466   4.605 -0.2257  0.2314 -0.6542
 2927TIP3    H1 8787   1.151   2.493   4.664  0.2064  1.5221 -1.7180
 2927TIP3    H2 8788   1.000   2.494   4.649 -0.1021 -0.9808  0.4244
 2928TIP3   OH2 8789   2.760   1.459   3.706  0.4345  0.3574 -0.1990
 2928TIP3    H1 8790   2.850   1.483   3.683  0.5897  0.3259  0.3767
 2928TIP3    H2 8791   2.710   1.480   3.627  0.8841  0.7230 -0.3969
 2929TIP3   OH2 8792   5.943   4.616   4.044  0.4439  0.0275  0.0194
 2929TIP3    H1 8793   5.892   4.538   4.065  1.3132 -0.3347  0.8749
 2929TIP3    H2 8794   5.892   4.661   3.977 -0.9051 -0.4054  0.7108
 2930TIP3   OH2 8795   2.763   3.450   2.658  0.1095 -0.5650  0.0301
 2930TIP3    H1 8796   2.792   3.484   2.574  0.8934 -0.8298  0.1881
 2930TIP3    H2 8797   2.843   3.426   2.704 -0.2504  0.4086  1.2208
 2931TIP3   OH2 8798   0.792   2.501   2.906  0.1097  0.2984  0.4738
 2931TIP3    H1 8799   0.697   2.493   2.897  0.1422 -2.4165  1.4133
 2931TIP3    H2 8800   0.805   2.521   2.999  0.4582  2.2417  0.0397
 2932TIP3   OH2 8801   2.866   1.653   0.234 -0.2880 -0.9663 -0.3626
 2932TIP3    H1 8802   2.849   1.581   0.295  0.0222  0.1206  1.0788
 2932TIP3    H2 8803   2.960   1.645   0.214  0.4444  0.5263  1.9633
 2933TIP3   OH2 8804   1.498   0.227   4.028 -0.4327  0.0017  0.6878
 2933TIP3    H1 8805   1.569   0.165   4.009  0.8136  1.3114  0.8359
 2933TIP3    H2 8806   1.515   0.256   4.118 -0.9533  0.5980  0.6010
 2934TIP3   OH2 8807   5.787   0.662   1.823  0.5544 -0.0227 -0.1909
 2934TIP3    H1 8808   5.721   0.731   1.817  1.4011  0.8194 -0.2571
 2934TIP3    H2 8809   5.739   0.581   1.811 -0.6643  0.4647  1.0331
 2935TIP3   OH2 8810   2.530   2.309   0.716 -0.3714 -0.0863  0.0277
 2935TIP3    H1 8811   2.564   2.284   0.802 -1.7015 -1.4984  0.1699
 2935TIP3    H2 8812   2.471   2.238   0.691 -0.4520  0.5706 -1.8125
 2936TIP3   OH2 8813   3.331   5.936   0.671  0.0023  0.0187  0.8634
 2936TIP3    H1 8814   3.364   6.025   0.665  1.1014 -0.2975  1.9362
 2936TIP3    H2 8815   3.337   5.902   0.581  0.9098  0.5533  0.7149
 2937TIP3   OH2 8816   3.421   5.005   0.123 -0.4026  0.1532  0.1387
 2937TIP3    H1 8817   3.479   4.993   0.048  0.4394  0.1606  0.7695
 2937TIP3    H2 8818   3.363   5.076   0.097  0.5829  0.9001 -0.1119
 2938TIP3   OH2 8819   2.119   3.238   1.598 -0.4540 -0.6246 -0.2739
 2938TIP3    H1 8820   2.145   3.249   1.689 -0.9828  1.3104 -0.3052
 2938TIP3    H2 8821   2.159   3.155   1.571  2.7830  0.4841  0.6637
 2939TIP3   OH2 8822   0.945   3.007   0.607  0.5024  0.0921  0.7006
 2939TIP3    H1 8823   1.022   3.059   0.583  1.0605 -0.9951  0.0554
 2939TIP3    H2 8824   0.879   3.072   0.632  0.3941  1.2941 -2.2908
 2940TIP3   OH2 8825   5.009   5.514   0.406 -0.0459  0.2813 -0.0181
 2940TIP3    H1 8826   4.919   5.484   0.396  0.3888 -0.5429 -1.8928
 2940TIP3    H2 8827   5.061   5.433   0.412  0.4789  0.7169  2.7633
 2941TIP3   OH2 8828   0.256   2.292   3.561  0.7585 -0.3513  0.0436
 2941TIP3    H1 8829   0.259   2.237   3.639  1.3313  0.4688  0.6164
 2941TIP3    H2 8830   0.348   2.303   3.536  0.5599 -1.0758 -1.0975
 2942TIP3   OH2 8831   3.925   4.507   0.038  0.5669  0.4064 -0.3832
 2942TIP3    H1 8832   3.913   4.470  -0.050 -0.0249 -1.1011  0.3108
 2942TIP3    H2 8833   4.020   4.509   0.050  0.6317 -0.0094 -0.8002
 2943TIP3   OH2 8834   4.905   3.319   3.123 -0.2959  0.1184  1.0569
 2943TIP3    H1 8835   4.931   3.395   3.174 -0.3483 -0.1029  1.4157
 2943TIP3    H2 8836   4.942   3.334   3.036  0.9503 -0.1438  1.5311
 2944TIP3   OH2 8837   2.535   3.539   0.128  0.2953  0.3167  0.9040
 2944TIP3    H1 8838   2.475   3.559   0.057  1.3394  2.0207  0.4426
 2944TIP3    H2 8839   2.514   3.448   0.153  0.9704 -0.9547 -2.6508
 2945TIP3   OH2 8840   1.666   0.545   1.776  0.0439 -0.0116 -0.1087
 2945TIP3    H1 8841   1.727   0.475   1.752 -1.9782 -1.8702 -0.1558
 2945TIP3    H2 8842   1.715   0.600   1.837  1.9293 -1.0808 -0.5722
 2946TIP3   OH2 8843   0.594   0.523   1.793  0.4820  0.7968  0.3482
 2946TIP3    H1 8844   0.545   0.458   1.844  1.1747 -0.8034 -0.9180
 2946TIP3    H2 8845   0.543   0.603   1.800 -0.4361  0.1147  1.9465
 2947TIP3   OH2 8846   0.230   1.528   1.262  0.0020 -0.4260  0.4938
 2947TIP3    H1 8847   0.148   1.536   1.312 -0.4356 -1.0227 -0.1215
 2947TIP3    H2 8848   0.259   1.439   1.277  0.1569 -0.4390  0.1261
 2948TIP3   OH2 8849   4.039   5.129   2.369 -0.0614 -0.1077 -0.5830
 2948TIP3    H1 8850   3.989   5.099   2.293 -0.3123  0.1154 -0.5086
 2948TIP3    H2 8851   3.973   5.144   2.436  0.0879  0.3427 -0.5330
 2949TIP3   OH2 8852   0.888   0.730   3.979  0.1070  0.4018  0.1064
 2949TIP3    H1 8853   0.799   0.710   4.007 -0.6812  0.8050 -1.9263
 2949TIP3    H2 8854   0.903   0.672   3.903  2.5084 -1.4386  1.7928
 2950TIP3   OH2 8855   6.134   5.915   3.148  0.4461 -0.5157 -0.0809
 2950TIP3    H1 8856   6.056   5.889   3.098  0.4249 -1.6097  0.4977
 2950TIP3    H2 8857   6.115   5.889   3.238 -0.0806  2.6144  0.8513
 2951TIP3   OH2 8858   3.024   4.936   2.943 -0.4845 -0.3852  0.1794
 2951TIP3    H1 8859   3.089   4.867   2.952 -0.0439 -0.4306 -2.5290
 2951TIP3    H2 8860   2.956   4.913   3.007 -0.0348 -2.9371 -0.1430
 2952TIP3   OH2 8861   1.241   5.457   1.273 -0.1284 -0.1047  0.0748
 2952TIP3    H1 8862   1.222   5.428   1.362 -1.9508  2.4080  0.6141
 2952TIP3    H2 8863   1.204   5.388   1.217 -1.4626 -0.4127  1.2741
 2953TIP3   OH2 8864   0.784   3.027   3.081 -0.1677 -0.0066 -0.3474
 2953TIP3    H1 8865   0.744   3.015   3.167 -0.2634 -0.5167 -0.4543
 2953TIP3    H2 8866   0.864   2.974   3.084 -0.8232 -1.0709 -0.9912
 2954TIP3   OH2 8867   5.319   4.369   0.195  0.2554  0.7780 -0.1288
 2954TIP3    H1 8868   5.407   4.368   0.157 -0.8485  0.7546 -2.8863
 2954TIP3    H2 8869   5.330   4.327   0.280  2.2890 -2.9572 -1.9657
 2955TIP3   OH2 8870   3.300   1.047   3.412 -0.3556  0.0257 -0.3858
 2955TIP3    H1 8871   3.226   1.056   3.352  0.4210  0.4804 -1.3071
 2955TIP3    H2 8872   3.362   0.991   3.365 -1.2068 -2.6678  1.4747
 2956TIP3   OH2 8873   2.951   4.577   1.378 -0.0872 -0.6719  0.2820
 2956TIP3    H1 8874   2.931   4.639   1.448 -0.5767 -0.2763 -0.2011
 2956TIP3    H2 8875   2.905   4.611   1.301  2.0965  0.0702 -0.8035
 2957TIP3   OH2 8876   5.239   5.911   1.779  0.4861  0.0667 -0.1309
 2957TIP3    H1 8877   5.312   5.850   1.793 -0.6245 -0.7301  2.9934
 2957TIP3    H2 8878   5.266   5.991   1.824 -0.0740  0.1427  0.0800
 2958TIP3   OH2 8879   0.259   1.225   2.615  0.2254 -0.0952 -0.8640
 2958TIP3    H1 8880   0.251   1.260   2.526  0.6627  0.5447 -0.6571
 2958TIP3    H2 8881   0.341   1.262   2.648  0.3012 -0.6917 -0.3524
 2959TIP3   OH2 8882   2.628   4.847   4.669 -0.2960 -0.1681  0.1316
 2959TIP3    H1 8883   2.691   4.781   4.642 -0.0876  0.4995 -1.1230
 2959TIP3    H2 8884   2.591   4.880   4.587 -1.1514  0.5358  0.7706
 2960TIP3   OH2 8885   4.903   1.227   2.593  0.4299  0.3625 -0.4823
 2960TIP3    H1 8886   4.842   1.268   2.655  0.8337  0.8915 -0.4357
 2960TIP3    H2 8887   4.886   1.133   2.602 -0.0978  0.4810 -0.1768
 2961TIP3   OH2 8888   2.164   1.893   1.511 -0.0737  0.2154 -0.0029
 2961TIP3    H1 8889   2.149   1.957   1.441 -1.8967 -1.2118 -1.0012
 2961TIP3    H2 8890   2.218   1.826   1.470  0.2375  0.1727  0.4693
 2962TIP3   OH2 8891   4.474   5.029   3.498 -0.7454  0.1465  0.1251
 2962TIP3    H1 8892   4.503   5.120   3.492 -0.2543  0.1017  1.5024
 2962TIP3    H2 8893   4.511   4.987   3.420 -0.2716  0.9476 -0.0934
 2963TIP3   OH2 8894   3.374   0.721   2.362 -0.2678  0.2725  0.3087
 2963TIP3    H1 8895   3.377   0.810   2.328 -0.0142 -0.6380 -2.3064
 2963TIP3    H2 8896   3.415   0.726   2.448  1.9864  2.2890 -0.7695
 2964TIP3   OH2 8897   5.674   0.320   0.032  0.4185  0.3846  0.3224
 2964TIP3    H1 8898   5.662   0.407  -0.007  0.1091 -0.0432 -0.5590
 2964TIP3    H2 8899   5.589   0.300   0.072  0.6107  0.6428  0.8858
 2965TIP3   OH2 8900   0.976   0.478   1.380 -0.1627  0.5788  0.4635
 2965TIP3    H1 8901   0.887   0.504   1.404 -0.2752  0.2529  0.4124
 2965TIP3    H2 8902   1.004   0.543   1.316 -1.8788 -1.4945 -2.6355
 2966TIP3   OH2 8903   5.017   2.942   4.284 -0.1544 -0.5398 -0.6813
 2966TIP3    H1 8904   4.927   2.976   4.282 -1.1320 -2.9508 -1.7365
 2966TIP3    H2 8905   5.023   2.892   4.365  0.4519  0.0680 -0.3388
 2967TIP3   OH2 8906   0.333   0.936   0.228  0.4919  0.2349  0.1282
 2967TIP3    H1 8907   0.243   0.905   0.231  1.0870 -1.9206 -1.4048
 2967TIP3    H2 8908   0.386   0.856   0.229  2.3555  1.4123  0.3941
 2968TIP3   OH2 8909   5.907   5.746   1.432  0.0761 -0.0023  0.4022
 2968TIP3    H1 8910   5.898   5.757   1.527 -1.1437 -0.0357  0.3059
 2968TIP3    H2 8911   5.908   5.835   1.398 -0.0606 -0.0032  0.3968
 2969TIP3   OH2 8912   2.912   2.126   2.106 -0.3563  0.2417 -0.4853
 2969TIP3    H1 8913   2.912   2.098   2.015 -0.9334  0.9638 -0.7206
 2969TIP3    H2 8914   2.982   2.076   2.147 -1.5512 -1.7848 -0.7943
 2970TIP3   OH2 8915   3.981   5.909   0.516 -0.4114 -0.4789 -0.3885
 2970TIP3    H1 8916   3.913   5.955   0.467 -0.5153  0.7257  0.8265
 2970TIP3    H2 8917   4.061   5.923   0.467 -0.5788  0.3603 -0.4257
 2971TIP3   OH2 8918   1.894   3.173   3.508  0.2505  0.1892  0.1084
 2971TIP3    H1 8919   1.881   3.114   3.582 -0.1168  1.9329  1.5040
 2971TIP3    H2 8920   1.972   3.224   3.531 -0.8341  1.9217  0.1578
 2972TIP3   OH2 8921   4.718   2.933   3.027  0.1576  0.3044  0.1891
 2972TIP3    H1 8922   4.663   2.981   3.088  0.7426  0.0606  0.9257
 2972TIP3    H2 8923   4.707   2.841   3.052 -0.7897  0.0490 -1.0721
 2973TIP3   OH2 8924   2.808   3.314   1.466  0.3834  0.3292  0.1299
 2973TIP3    H1 8925   2.756   3.288   1.389 -0.4888  0.5864  0.6182
 2973TIP3    H2 8926   2.755   3.286   1.541  0.7494  1.0000  0.6429
 2974TIP3   OH2 8927   2.915   4.436   5.034 -0.2383  0.3663 -0.1102
 2974TIP3    H1 8928   2.938   4.419   4.942 -0.6434  0.6981 -0.2726
 2974TIP3    H2 8929   2.891   4.528   5.036 -1.9542 -0.0647 -0.0225
 2975TIP3   OH2 8930   6.068   2.094   4.553  0.3197 -0.3570 -0.4248
 2975TIP3    H1 8931   6.071   2.102   4.649  2.6160  0.4752 -0.5018
 2975TIP3    H2 8932   6.039   2.180   4.523 -2.0984 -1.1158 -0.5018
 2976TIP3   OH2 8933   2.940   4.011   2.356  0.5917 -0.5767  0.1777
 2976TIP3    H1 8934   2.868   4.042   2.411  0.1852  1.1583 -1.2322
 2976TIP3    H2 8935   3.012   4.072   2.374  1.1674 -1.3004  0.3587
 2977TIP3   OH2 8936   1.291   2.688   4.140 -0.2443 -0.2322  0.1187
 2977TIP3    H1 8937   1.344   2.625   4.189  1.9361  1.1726 -0.2875
 2977TIP3    H2 8938   1.281   2.648   4.054 -0.1794 -0.6835  0.3148
 2978TIP3   OH2 8939   0.788   2.579   0.183 -0.9808  0.7607 -0.2006
 2978TIP3    H1 8940   0.761   2.627   0.261  0.1510  0.7975  0.1696
 2978TIP3    H2 8941   0.883   2.577   0.186 -0.8428  1.7224 -2.1439
 2979TIP3   OH2 8942   2.462   2.675   3.485  0.1349 -0.2477  0.2610
 2979TIP3    H1 8943   2.453   2.582   3.463  0.9408 -0.1779 -0.4226
 2979TIP3    H2 8944   2.407   2.720   3.422 -0.2279 -0.2571  0.5698
 2980TIP3   OH2 8945   3.731   5.550   0.522  0.6890  0.3811  0.0349
 2980TIP3    H1 8946   3.765   5.610   0.588  0.8705  1.6178 -1.1423
 2980TIP3    H2 8947   3.687   5.607   0.458 -0.5437 -0.8839 -0.2864
 2981TIP3   OH2 8948   5.930   1.168   4.540 -0.2216  0.2663 -0.5032
 2981TIP3    H1 8949   6.004   1.227   4.529 -0.1871 -0.1675 -3.1116
 2981TIP3    H2 8950   5.967   1.091   4.583  0.6890  0.3349 -1.1446
 2982TIP3   OH2 8951   4.633   1.143   0.823 -0.3572  0.0483 -0.1184
 2982TIP3    H1 8952   4.651   1.236   0.810 -3.0159  0.9183  1.6010
 2982TIP3    H2 8953   4.650   1.128   0.916 -2.6181 -0.4087  0.2846
 2983TIP3   OH2 8954   2.464   1.443   3.823  0.0375 -0.1529 -0.1559
 2983TIP3    H1 8955   2.487   1.350   3.820 -0.3331 -0.2236 -1.3266
 2983TIP3    H2 8956   2.541   1.487   3.787 -0.6137 -0.1944 -1.6733
 2984TIP3   OH2 8957   3.141   4.540   2.586  0.0539 -0.1511 -0.5602
 2984TIP3    H1 8958   3.227   4.583   2.589  0.5886 -1.1759 -0.4863
 2984TIP3    H2 8959   3.099   4.575   2.508  0.4670  0.4934 -0.5037
 2985TIP3   OH2 8960   5.565   4.430   3.063 -0.1637 -0.0597 -1.0201
 2985TIP3    H1 8961   5.552   4.344   3.101 -0.8335  0.4376 -0.0736
 2985TIP3    H2 8962   5.494   4.440   3.000  0.3129 -0.4514 -1.6390
 2986TIP3   OH2 8963   4.612   5.180   4.834  0.5626  0.1766  0.2897
 2986TIP3    H1 8964   4.633   5.266   4.799  1.8215 -0.6662 -1.1638
 2986TIP3    H2 8965   4.524   5.161   4.802  0.5604  0.6343  0.0225
 2987TIP3   OH2 8966   5.588   4.637   4.390  0.0815  0.5835  0.0942
 2987TIP3    H1 8967   5.564   4.556   4.434  1.0237  0.6544  0.7655
 2987TIP3    H2 8968   5.611   4.610   4.301  0.7906  0.0409  0.4309
 2988TIP3   OH2 8969   5.724   1.178   2.768 -0.5485  0.1930  0.2712
 2988TIP3    H1 8970   5.703   1.110   2.703 -1.2872  1.5819 -1.0065
 2988TIP3    H2 8971   5.765   1.248   2.717  0.4515  0.6233  1.5993
 2989TIP3   OH2 8972   5.352   2.966   2.725 -0.3700 -0.3702 -0.5343
 2989TIP3    H1 8973   5.325   2.874   2.718 -0.3421 -0.4251  0.0557
 2989TIP3    H2 8974   5.423   2.965   2.789 -2.5557  0.4744  2.1047
 2990TIP3   OH2 8975   3.294   3.113   1.490  0.4111  0.3778 -0.2737
 2990TIP3    H1 8976   3.268   3.188   1.544 -0.4979  0.5065 -0.8662
 2990TIP3    H2 8977   3.280   3.143   1.400  2.0603  0.2273 -0.6113
 2991TIP3   OH2 8978   2.826   3.301   4.836 -0.1465 -0.0588 -0.7675
 2991TIP3    H1 8979   2.831   3.207   4.825  1.3185 -0.1275  0.2488
 2991TIP3    H2 8980   2.745   3.326   4.791 -1.0985 -1.9136 -0.1967
 2992TIP3   OH2 8981   0.097   1.829   2.658  0.5083  0.4631 -0.3934
 2992TIP3    H1 8982   0.153   1.848   2.733 -0.7188 -2.1435  1.2976
 2992TIP3    H2 8983   0.023   1.889   2.668  0.0312 -0.3132  0.8818
 2993TIP3   OH2 8984   0.035   2.718   0.762 -0.0493 -0.1862 -0.0424
 2993TIP3    H1 8985  -0.014   2.799   0.749  2.7831  1.4084 -2.0313
 2993TIP3    H2 8986   0.078   2.702   0.678  0.7628 -2.9045  0.7722
 2994TIP3   OH2 8987   0.418   1.939   0.095 -0.0354  0.5292 -0.1850
 2994TIP3    H1 8988   0.454   1.893   0.019  0.8905 -0.3220  0.7309
 2994TIP3    H2 8989   0.495   1.967   0.145 -0.5606 -0.9508  1.6056
 2995TIP3   OH2 8990   2.424   3.173   1.548  0.6668 -0.2707  0.2071
 2995TIP3    H1 8991   2.453   3.221   1.470 -0.0868  0.1476  0.1835
 2995TIP3    H2 8992   2.386   3.092   1.513 -0.4019  0.2726  0.0749
 2996TIP3   OH2 8993   5.954   5.830   0.466  0.1135 -0.1577  0.0334
 2996TIP3    H1 8994   5.986   5.909   0.509 -0.9258  0.5829 -0.5047
 2996TIP3    H2 8995   6.017   5.813   0.396  0.0392  0.5222 -0.2034
 2997TIP3   OH2 8996   4.480   3.157   2.266 -0.4637  0.7536  0.2042
 2997TIP3    H1 8997   4.469   3.189   2.355 -1.2142  0.2687  0.2932
 2997TIP3    H2 8998   4.409   3.200   2.216 -0.3344  0.6660 -0.0586
 2998TIP3   OH2 8999   4.622   1.525   3.982 -0.1488 -0.0861 -0.2374
 2998TIP3    H1 9000   4.713   1.556   3.986 -0.2794  0.2259  2.1223
 2998TIP3    H2 9001   4.629   1.430   3.977  0.4206 -0.2565  2.2914
 2999TIP3   OH2 9002   4.379   5.460   2.381 -0.3764  0.3004  0.5472
 2999TIP3    H1 9003   4.341   5.455   2.468  0.5240 -1.3725  0.8962
 2999TIP3    H2 9004   4.473   5.458   2.396 -0.0754  3.1911 -0.3526
 3000TIP3   OH2 9005   1.718   4.575   0.384 -0.1253  0.7177 -0.1867
 3000TIP3    H1 9006   1.772   4.517   0.439  0.1553  0.8442 -0.3255
 3000TIP3    H2 9007   1.655   4.516   0.342  0.3223  0.4748 -0.5221
 3001TIP3   OH2 9008   2.505   4.519   4.497 -0.1805  0.6691  0.0317
 3001TIP3    H1 9009   2.586   4.515   4.446 -1.0815 -0.0315 -1.4515
 3001TIP3    H2 9010   2.532   4.503   4.587  1.3015  0.2470 -0.4537
 3002TIP3   OH2 9011   1.204   3.252   1.404 -0.3555  0.1319 -0.5978
 3002TIP3    H1 9012   1.295   3.269   1.380  0.0924 -0.3340  0.7007
 3002TIP3    H2 9013   1.183   3.169   1.363 -0.7653  1.0588 -2.3315
 3003TIP3   OH2 9014   1.366   3.929   1.552 -0.0309 -0.1117 -0.0350
 3003TIP3    H1 9015   1.390   3.837   1.564  0.6769 -0.0197 -0.6854
 3003TIP3    H2 9016   1.428   3.977   1.607 -1.3680 -0.0826  1.5240
 3004TIP3   OH2 9017   4.246   0.882   2.804  0.0410  0.0473  0.0726
 3004TIP3    H1 9018   4.257   0.790   2.828 -1.3752 -0.5872 -1.5235
 3004TIP3    H2 9019   4.189   0.918   2.872  0.1969 -0.3693  0.4270
 3005TIP3   OH2 9020   2.789   1.904   0.230  0.4831 -0.0775 -0.2483
 3005TIP3    H1 9021   2.838   1.944   0.302  0.6134 -1.4212  0.4416
 3005TIP3    H2 9022   2.811   1.811   0.235  0.1656 -0.2478 -1.7828
 3006TIP3   OH2 9023   2.445   2.435   2.937 -0.4818  0.3198  0.0711
 3006TIP3    H1 9024   2.488   2.485   2.867 -1.2940  0.5417 -0.2811
 3006TIP3    H2 9025   2.509   2.433   3.008 -0.6366  2.3830  0.3210
 3007TIP3   OH2 9026   5.139   0.193   3.735 -0.4664 -0.5425 -0.1094
 3007TIP3    H1 9027   5.147   0.174   3.642  0.2433 -0.9491  0.0279
 3007TIP3    H2 9028   5.202   0.134   3.777 -0.8285 -0.4111  0.6320
 3008TIP3   OH2 9029   1.936   3.716   3.744  0.1809  0.0841  0.4061
 3008TIP3    H1 9030   1.941   3.808   3.720 -1.3482 -0.2493 -1.5206
 3008TIP3    H2 9031   1.867   3.713   3.810 -1.6315  0.1122 -1.3681
 3009TIP3   OH2 9032   1.379   1.962   0.226 -0.0482 -0.4933  0.1675
 3009TIP3    H1 9033   1.409   1.989   0.140 -0.8268 -0.7326 -0.1836
 3009TIP3    H2 9034   1.286   1.987   0.229 -0.4032 -1.7585  0.3850
 3010TIP3   OH2 9035   0.280   5.486   4.608 -0.3296  0.6095 -0.3372
 3010TIP3    H1 9036   0.220   5.418   4.576 -1.5861  1.1668  0.7364
 3010TIP3    H2 9037   0.354   5.438   4.643 -1.4041 -0.2732  0.8234
 3011TIP3   OH2 9038   4.885   3.523   4.123 -0.1872 -0.3177  0.2524
 3011TIP3    H1 9039   4.853   3.448   4.072  0.0804 -0.7100  0.6510
 3011TIP3    H2 9040   4.865   3.599   4.069 -0.8162 -0.6452  0.0164
 3012TIP3   OH2 9041   3.744   3.087   0.030  0.5069  0.1665 -0.5915
 3012TIP3    H1 9042   3.796   3.160   0.064  0.8541 -1.1074  1.8133
 3012TIP3    H2 9043   3.806   3.014   0.027 -0.1624 -0.3812 -1.7059
 3013TIP3   OH2 9044   1.815   1.402   1.163 -0.0224  0.6867 -0.2658
 3013TIP3    H1 9045   1.875   1.428   1.093  0.6582  0.7282  0.3231
 3013TIP3    H2 9046   1.794   1.311   1.142 -0.0996  0.8018 -0.7124
 3014TIP3   OH2 9047   2.629   2.335   0.444  0.8627  0.2559 -0.2540
 3014TIP3    H1 9048   2.597   2.247   0.426 -2.3388  1.7023 -2.4869
 3014TIP3    H2 9049   2.629   2.342   0.540 -1.1189 -1.4359 -0.0731
 3015TIP3   OH2 9050   5.197   2.173   2.226 -0.2546  0.4244 -0.1202
 3015TIP3    H1 9051   5.243   2.202   2.147  1.8230  2.6597  1.7519
 3015TIP3    H2 9052   5.136   2.244   2.246  0.1313  0.4849  0.9169
 3016TIP3   OH2 9053   2.119   0.097   0.917  0.2188 -0.1543 -0.1380
 3016TIP3    H1 9054   2.076   0.101   1.003 -0.6991 -1.8465 -0.4642
 3016TIP3    H2 9055   2.120   0.187   0.886  0.3754  0.4637  1.5512
 3017TIP3   OH2 9056   4.944   4.567   3.699 -0.2530  0.0596 -0.7153
 3017TIP3    H1 9057   4.978   4.496   3.645 -0.6497  0.2976 -1.2893
 3017TIP3    H2 9058   4.859   4.536   3.729  1.2749 -1.4828  2.5574
 3018TIP3   OH2 9059   5.491   0.174   5.178 -0.0305 -0.2039 -0.6655
 3018TIP3    H1 9060   5.431   0.100   5.165 -1.5599  1.0060 -0.7787
 3018TIP3    H2 9061   5.558   0.162   5.111 -1.4983 -0.2943 -2.2065
 3019TIP3   OH2 9062   2.589   2.054   3.616 -0.2024 -0.3477 -0.4602
 3019TIP3    H1 9063   2.561   2.013   3.698 -0.2537 -1.2839 -0.9273
 3019TIP3    H2 9064   2.679   2.024   3.604  0.1856  0.6683 -0.2084
 3020TIP3   OH2 9065   2.054   1.074   3.664  0.2673 -0.3974 -0.1344
 3020TIP3    H1 9066   2.139   1.110   3.689 -0.3265  1.1847 -0.2716
 3020TIP3    H2 9067   1.995   1.101   3.734 -0.9449  2.1413 -1.9648
 3021TIP3   OH2 9068   1.808   0.430   4.314 -0.0090 -0.4172  0.3171
 3021TIP3    H1 9069   1.783   0.346   4.353 -2.2151  0.6259  1.3035
 3021TIP3    H2 9070   1.786   0.495   4.381  1.3791  0.9957 -0.5373
 3022TIP3   OH2 9071   4.774   0.444   3.915  0.0131 -0.0061 -0.0573
 3022TIP3    H1 9072   4.829   0.437   3.837  0.6093  2.4877  0.0527
 3022TIP3    H2 9073   4.713   0.515   3.896 -1.3236 -0.8356  0.9214
 3023TIP3   OH2 9074   4.679   2.968   0.150  0.8633  1.1756  0.0957
 3023TIP3    H1 9075   4.771   2.973   0.123  0.7638 -0.5216 -0.6732
 3023TIP3    H2 9076   4.629   2.978   0.069  0.3835  1.3094  0.4005
 3024TIP3   OH2 9077   6.203   1.588   3.207  0.0284 -0.1680  0.0286
 3024TIP3    H1 9078   6.239   1.499   3.206 -2.1392 -1.0994 -0.5164
 3024TIP3    H2 9079   6.280   1.645   3.212  1.4566 -2.0642  0.7958
 3025TIP3   OH2 9080   3.383   4.171   3.385  0.4453  0.4004  0.8755
 3025TIP3    H1 9081   3.327   4.150   3.459 -0.3000  1.0304  0.4971
 3025TIP3    H2 9082   3.363   4.262   3.364 -1.4204 -0.5272 -1.8628
 3026TIP3   OH2 9083   2.037   3.196   4.352  0.1678  0.0686  0.5077
 3026TIP3    H1 9084   1.973   3.129   4.374  1.3613 -0.8086  1.5273
 3026TIP3    H2 9085   2.092   3.157   4.285  1.3848 -0.3490  1.6990
 3027TIP3   OH2 9086   4.755   0.992   0.461  0.4389 -0.9135 -0.0001
 3027TIP3    H1 9087   4.733   0.924   0.397  0.8492 -0.9615 -0.0887
 3027TIP3    H2 9088   4.842   1.021   0.437  0.0283  0.0798 -0.3369
 3028TIP3   OH2 9089   1.356   3.419   0.138  0.4232 -0.1065  0.4938
 3028TIP3    H1 9090   1.288   3.430   0.071  0.7062  1.8494  0.4750
 3028TIP3    H2 9091   1.397   3.336   0.117 -1.6606 -1.1480  0.2487
 3029TIP3   OH2 9092   3.441   0.293   4.100 -0.4824 -0.1665  0.2670
 3029TIP3    H1 9093   3.423   0.271   4.191 -1.8235 -0.5177 -0.0721
 3029TIP3    H2 9094   3.358   0.325   4.065 -0.1216 -0.5016 -0.9619
 3030TIP3   OH2 9095   3.521   3.205   4.809 -0.4220  0.1410 -0.3935
 3030TIP3    H1 9096   3.525   3.152   4.889  2.3304  0.2260 -0.4097
 3030TIP3    H2 9097   3.584   3.275   4.822 -0.9718  1.0086 -2.0746
 3031TIP3   OH2 9098   6.131   3.150   0.246 -0.0834 -0.3986  0.1552
 3031TIP3    H1 9099   6.150   3.197   0.327 -1.9853  1.4315 -0.3931
 3031TIP3    H2 9100   6.069   3.081   0.272  0.0526 -0.4351  0.3889
 3032TIP3   OH2 9101   3.646   3.475   1.151 -0.3273  0.3191 -0.7321
 3032TIP3    H1 9102   3.689   3.537   1.208 -0.7867  0.2322 -0.2853
 3032TIP3    H2 9103   3.667   3.505   1.062  1.2077 -0.1127 -0.5413
 3033TIP3   OH2 9104   2.727   3.781   3.224 -0.3811  0.1450  0.0022
 3033TIP3    H1 9105   2.716   3.811   3.315  1.2772 -0.1509  0.3306
 3033TIP3    H2 9106   2.788   3.843   3.186  0.8650 -1.1456 -0.1617
 3034TIP3   OH2 9107   2.339   3.469   1.659  0.0691  0.1996 -0.4275
 3034TIP3    H1 9108   2.327   3.400   1.594 -0.7191 -0.5746  0.5003
 3034TIP3    H2 9109   2.406   3.435   1.718  0.4463  0.6999 -0.5594
 3035TIP3   OH2 9110   3.023   3.157   2.078  0.4469  0.0883 -0.1242
 3035TIP3    H1 9111   2.987   3.244   2.094 -1.8105 -0.6541 -0.7601
 3035TIP3    H2 9112   2.996   3.105   2.154 -0.4040 -0.6312 -0.8871
 3036TIP3   OH2 9113   0.078   4.004   3.637 -0.8708  0.3241 -0.7441
 3036TIP3    H1 9114   0.129   3.987   3.716 -0.8880 -0.1456 -0.8277
 3036TIP3    H2 9115   0.117   3.946   3.571 -1.7619 -0.3439 -0.7042
 3037TIP3   OH2 9116   0.347   3.088   3.187  0.2104 -0.1265  0.0262
 3037TIP3    H1 9117   0.281   3.105   3.120 -0.9415 -0.3479  1.0527
 3037TIP3    H2 9118   0.350   2.993   3.195 -1.0068 -0.0837  1.5103
 3038TIP3   OH2 9119   2.138   1.805   2.574  0.7082 -0.5001  0.4410
 3038TIP3    H1 9120   2.094   1.720   2.567 -1.9954  0.6807  1.5490
 3038TIP3    H2 9121   2.129   1.829   2.666  2.3860  0.5371  0.3750
 3039TIP3   OH2 9122   1.482   2.122   5.014 -0.0391 -0.6396  0.4201
 3039TIP3    H1 9123   1.572   2.088   5.022 -0.1533 -1.6062 -1.7626
 3039TIP3    H2 9124   1.430   2.046   4.988 -1.4838 -0.0481  1.4506
 3040TIP3   OH2 9125   4.470   2.175   2.085 -0.8995 -0.0588 -0.1216
 3040TIP3    H1 9126   4.398   2.185   2.147 -1.1462 -0.0086 -0.4127
 3040TIP3    H2 9127   4.475   2.260   2.041 -0.8326 -0.1473 -0.2843
 3041TIP3   OH2 9128   2.722   2.214   4.959 -0.4030 -0.2282 -0.0983
 3041TIP3    H1 9129   2.652   2.272   4.930 -0.1395  1.6550  2.6612
 3041TIP3    H2 9130   2.677   2.131   4.979 -1.3894  0.1085 -0.8609
 3042TIP3   OH2 9131   1.545   4.881   3.300  0.0971  0.2003 -0.2062
 3042TIP3    H1 9132   1.571   4.967   3.331 -0.3846  0.2045  0.1962
 3042TIP3    H2 9133   1.566   4.881   3.207  4.7151 -0.9490  0.5881
 3043TIP3   OH2 9134   3.314   0.522   1.288 -0.1687 -0.2303 -0.9022
 3043TIP3    H1 9135   3.363   0.549   1.366  0.4237  0.2157 -1.4141
 3043TIP3    H2 9136   3.234   0.482   1.322  0.1993 -0.2710 -0.0633
 3044TIP3   OH2 9137   6.265   5.173   4.215  0.0526  0.3578  0.3440
 3044TIP3    H1 9138   6.189   5.204   4.265 -1.8632 -0.6108 -1.7802
 3044TIP3    H2 9139   6.297   5.251   4.170 -0.8614  0.4721 -0.1473
 3045TIP3   OH2 9140   3.828   2.831   3.599 -0.1609 -0.3321 -0.2759
 3045TIP3    H1 9141   3.835   2.745   3.557 -2.5136  0.4890 -2.6489
 3045TIP3    H2 9142   3.865   2.892   3.534  0.4620  0.5676  0.8937
 3046TIP3   OH2 9143   0.740   3.960   1.949 -0.0986 -0.0714 -0.3511
 3046TIP3    H1 9144   0.814   3.961   1.888  1.1323  0.1099  1.0695
 3046TIP3    H2 9145   0.781   3.951   2.035 -1.6839  0.9968  0.5635
 3047TIP3   OH2 9146   0.423   1.470   3.836 -0.0110 -0.4763 -0.4312
 3047TIP3    H1 9147   0.356   1.537   3.823  0.1928 -0.3565 -0.8701
 3047TIP3    H2 9148   0.491   1.513   3.888 -0.3105 -0.6251  0.0943
 3048TIP3   OH2 9149   5.670   3.312   1.358 -0.6147 -0.3248  0.3383
 3048TIP3    H1 9150   5.600   3.327   1.295  0.7194 -0.5291 -1.2658
 3048TIP3    H2 9151   5.672   3.217   1.370  1.5641 -0.7759 -2.4026
 3049TIP3   OH2 9152   6.147   5.190   4.662  0.1188  0.2245 -0.3991
 3049TIP3    H1 9153   6.208   5.156   4.596 -0.6589  1.1582 -1.6477
 3049TIP3    H2 9154   6.076   5.229   4.611 -0.6571  0.7226  1.0075
 3050TIP3   OH2 9155   2.935   5.647   2.526  0.6238  0.5732  0.2208
 3050TIP3    H1 9156   2.954   5.694   2.607  1.4834  0.6721 -0.0250
 3050TIP3    H2 9157   3.003   5.580   2.522  0.3308  0.2995 -0.2109
 3051TIP3   OH2 9158   2.818   3.823   3.771  0.4136  0.1627 -0.1622
 3051TIP3    H1 9159   2.900   3.814   3.819  0.0647 -1.1922  0.2372
 3051TIP3    H2 9160   2.836   3.888   3.703  1.6070  0.3786  0.3492
 3052TIP3   OH2 9161   3.513   1.776   3.444 -0.4063 -0.4905  0.4237
 3052TIP3    H1 9162   3.529   1.721   3.521  1.9785 -1.2842 -0.5445
 3052TIP3    H2 9163   3.479   1.715   3.378 -0.8182 -0.1561  0.3240
 3053TIP3   OH2 9164   3.529   5.345   0.235  0.1814 -0.0103 -0.4709
 3053TIP3    H1 9165   3.548   5.257   0.203 -1.3885 -0.6537  0.2593
 3053TIP3    H2 9166   3.570   5.348   0.321 -1.8835 -0.9803  0.6048
 3054TIP3   OH2 9167   2.928   0.352   3.908  0.4667 -0.7170  0.0817
 3054TIP3    H1 9168   2.862   0.403   3.954 -0.0374  0.1066 -1.4863
 3054TIP3    H2 9169   2.886   0.268   3.892  0.2522 -0.6312  0.1835
 3055TIP3   OH2 9170   2.844   3.367   3.107  0.4770 -0.5186 -0.6350
 3055TIP3    H1 9171   2.936   3.388   3.127  0.1010 -1.7416  3.0299
 3055TIP3    H2 9172   2.797   3.449   3.124  0.2134 -1.4140  4.1701
 3056TIP3   OH2 9173   4.072   3.557   1.425  0.1645 -0.1957 -0.2984
 3056TIP3    H1 9174   4.017   3.604   1.363 -0.3894 -0.7823 -0.2585
 3056TIP3    H2 9175   4.101   3.624   1.487 -1.2067 -0.0099  0.1851
 3057TIP3   OH2 9176   6.186   5.861   2.136 -0.1954 -0.5628  0.2873
 3057TIP3    H1 9177   6.140   5.922   2.193 -1.2897 -1.8933  0.8964
 3057TIP3    H2 9178   6.271   5.848   2.178 -1.1242 -1.8246  1.9019
 3058TIP3   OH2 9179   5.005   5.762   0.572  0.4326  0.3349  0.5595
 3058TIP3    H1 9180   5.011   5.706   0.494  2.4501  0.4742  0.5628
 3058TIP3    H2 9181   4.990   5.849   0.536  0.0954  0.2190  0.4069
 3059TIP3   OH2 9182   1.267   2.975   1.313 -0.6661 -0.0230 -0.0652
 3059TIP3    H1 9183   1.351   2.981   1.270 -1.1305  1.4451 -0.8110
 3059TIP3    H2 9184   1.285   2.930   1.396  0.4060 -1.9451 -1.2767
 3060TIP3   OH2 9185   4.221   3.634   0.803 -0.0935  0.5489  0.5988
 3060TIP3    H1 9186   4.223   3.619   0.898 -0.7324  1.0855  0.7054
 3060TIP3    H2 9187   4.269   3.716   0.791 -1.1922  1.2140  0.6223
 3061TIP3   OH2 9188   3.790   2.461   4.553  0.6370  0.8296 -0.0154
 3061TIP3    H1 9189   3.776   2.551   4.582 -0.6571  0.0127  2.1249
 3061TIP3    H2 9190   3.864   2.430   4.604  0.6582  0.4821 -0.2562
 3062TIP3   OH2 9191   5.888   4.888   2.923 -0.2973  0.4122  0.3746
 3062TIP3    H1 9192   5.826   4.855   2.989 -0.2177  0.1478  0.3200
 3062TIP3    H2 9193   5.901   4.813   2.864 -1.9759  1.2364 -1.1437
 3063TIP3   OH2 9194   3.518   5.903   4.939  0.1506  0.0727  0.0809
 3063TIP3    H1 9195   3.428   5.870   4.932  0.5607 -1.8968  2.5424
 3063TIP3    H2 9196   3.509   5.999   4.932 -2.1569 -0.0635  0.4572
 3064TIP3   OH2 9197   1.684   3.610   0.350 -0.2432 -0.0325 -0.4408
 3064TIP3    H1 9198   1.738   3.649   0.418 -3.3010  1.0704  1.5676
 3064TIP3    H2 9199   1.673   3.519   0.377 -0.6504  0.1555  0.0522
 3065TIP3   OH2 9200   4.131   4.461   4.583  0.5316 -0.0565 -0.6262
 3065TIP3    H1 9201   4.173   4.536   4.625 -0.8589  1.3814 -1.6921
 3065TIP3    H2 9202   4.151   4.472   4.490  0.5140 -1.1788 -0.7768
 3066TIP3   OH2 9203   0.551   0.040   0.047 -0.1557 -0.2285  0.5023
 3066TIP3    H1 9204   0.634  -0.001   0.071 -0.4893 -0.2494  1.6544
 3066TIP3    H2 9205   0.574   0.101  -0.023  0.5599 -1.4266 -0.3625
 3067TIP3   OH2 9206   0.245   2.069   2.099  0.0240  0.3595  0.0306
 3067TIP3    H1 9207   0.216   1.978   2.087  2.7363 -0.5202 -0.3834
 3067TIP3    H2 9208   0.164   2.120   2.090 -1.4905 -1.9248 -0.4095
 3068TIP3   OH2 9209   3.725   2.430   3.634  0.2083 -0.0848  0.0001
 3068TIP3    H1 9210   3.777   2.374   3.692  1.3549 -0.5146 -1.3794
 3068TIP3    H2 9211   3.782   2.445   3.558 -1.3675  0.1374 -1.1919
 3069TIP3   OH2 9212   6.200   3.206   1.265  0.2317 -0.1897  0.2983
 3069TIP3    H1 9213   6.204   3.214   1.360 -0.9797 -3.8804  0.8165
 3069TIP3    H2 9214   6.291   3.197   1.238  0.5072 -0.3454  1.2528
 3070TIP3   OH2 9215   5.774   1.527   3.482  0.0853 -0.1424  0.0177
 3070TIP3    H1 9216   5.745   1.618   3.476  1.7498  0.4172 -0.1528
 3070TIP3    H2 9217   5.785   1.499   3.391 -0.0422 -0.3817  0.0750
 3071TIP3   OH2 9218   5.946   1.982   2.617 -0.4212 -0.1690  0.0063
 3071TIP3    H1 9219   5.884   1.922   2.656 -0.6454 -0.2550 -0.4682
 3071TIP3    H2 9220   5.911   2.069   2.636 -0.5969 -0.2138 -0.1086
 3072TIP3   OH2 9221   3.697   5.669   1.011  0.0851  0.0446  0.5339
 3072TIP3    H1 9222   3.769   5.726   0.986  0.5091 -1.5855 -2.4162
 3072TIP3    H2 9223   3.738   5.588   1.041 -0.3393 -1.5445 -2.7877
 3073TIP3   OH2 9224   1.713   1.820   2.033 -0.0889  0.3932 -0.3276
 3073TIP3    H1 9225   1.733   1.726   2.038 -1.8427 -0.1910 -2.7493
 3073TIP3    H2 9226   1.708   1.848   2.125 -0.6055 -2.1223  0.4989
 3074TIP3   OH2 9227   5.093   4.051   3.975 -0.1038 -0.0700  0.0267
 3074TIP3    H1 9228   5.041   4.116   3.927 -1.5105 -0.4784  0.9277
 3074TIP3    H2 9229   5.038   4.028   4.050  0.9591 -1.3043  0.4541
 3075TIP3   OH2 9230   5.694   3.832   2.541  0.2743  0.2173  0.6002
 3075TIP3    H1 9231   5.676   3.926   2.539 -0.1990  0.1340  0.7292
 3075TIP3    H2 9232   5.786   3.825   2.565  0.3412  0.6503  0.4699
 3076TIP3   OH2 9233   5.247   4.022   3.555 -0.0314  0.6393 -0.3953
 3076TIP3    H1 9234   5.324   3.983   3.516 -0.1294  0.9894 -0.9538
 3076TIP3    H2 9235   5.217   3.958   3.619 -0.0805 -0.1131 -1.1541
 3077TIP3   OH2 9236   4.664   4.301   1.327 -0.3421 -0.1031 -0.0733
 3077TIP3    H1 9237   4.622   4.292   1.413  0.2539 -0.4636  0.1820
 3077TIP3    H2 9238   4.664   4.396   1.311  0.1538  0.0205  0.6304
 3078TIP3   OH2 9239   0.760   5.770   2.663  0.6679  0.6780  0.0503
 3078TIP3    H1 9240   0.761   5.809   2.750  0.5871 -1.4410  1.0654
 3078TIP3    H2 9241   0.676   5.797   2.625 -0.0657  0.2427  1.3178
 3079TIP3   OH2 9242   2.622   5.449   4.916  0.4580 -0.2283  0.0394
 3079TIP3    H1 9243   2.597   5.447   4.824  2.2089 -1.1893 -0.4723
 3079TIP3    H2 9244   2.564   5.513   4.956 -2.2967 -1.8272 -1.1071
 3080TIP3   OH2 9245   0.796   4.038   1.638 -0.0013  0.5378  0.2564
 3080TIP3    H1 9246   0.723   4.085   1.681  0.9151  2.4400 -0.1548
 3080TIP3    H2 9247   0.780   4.049   1.545  0.5471  0.5385  0.1609
 3081TIP3   OH2 9248   1.129   0.926   5.101 -0.0952  0.4455 -0.3729
 3081TIP3    H1 9249   1.046   0.913   5.146 -0.2830  1.4734 -0.3876
 3081TIP3    H2 9250   1.137   0.851   5.042 -0.5829 -0.1181  0.2659
 3082TIP3   OH2 9251   4.077   0.257   1.295 -0.3546  0.5728 -0.6641
 3082TIP3    H1 9252   4.152   0.206   1.326 -0.7583 -0.5800 -1.4911
 3082TIP3    H2 9253   4.105   0.294   1.212 -0.5188  0.6093 -0.7032
 3083TIP3   OH2 9254   5.401   5.699   3.796 -0.0972 -0.0994 -0.1562
 3083TIP3    H1 9255   5.325   5.715   3.852  1.3124  1.4517  1.4336
 3083TIP3    H2 9256   5.418   5.782   3.753  1.5900  0.0924  0.7550
 3084TIP3   OH2 9257   4.740   0.186   0.772 -0.5443  0.8105 -0.2653
 3084TIP3    H1 9258   4.759   0.276   0.744  1.0551  0.2799 -1.0024
 3084TIP3    H2 9259   4.787   0.176   0.855  1.3729 -0.0648 -1.3887
 3085TIP3   OH2 9260   3.426   1.231   0.691 -0.6450  0.3344  0.1653
 3085TIP3    H1 9261   3.464   1.257   0.607  0.0956 -0.5517  0.2034
 3085TIP3    H2 9262   3.347   1.182   0.667 -1.4034  1.5685  0.0621
 3086TIP3   OH2 9263   0.057   3.955   0.863  0.1416  0.0812 -0.1369
 3086TIP3    H1 9264  -0.038   3.958   0.850  0.4555  1.3113 -2.7568
 3086TIP3    H2 9265   0.069   3.978   0.955 -2.0763  0.1429  0.1889
 3087TIP3   OH2 9266   0.654   5.026   4.396 -0.5569 -0.8833 -0.6625
 3087TIP3    H1 9267   0.604   4.982   4.464 -2.3326 -0.8937 -1.9149
 3087TIP3    H2 9268   0.632   5.119   4.406  2.2809 -0.2905  1.2367
 3088TIP3   OH2 9269   5.271   1.830   0.443 -0.0705  0.3363 -0.2598
 3088TIP3    H1 9270   5.257   1.815   0.349 -0.1578 -0.1773 -0.1699
 3088TIP3    H2 9271   5.361   1.801   0.459  0.7036  2.4045 -0.5812
 3089TIP3   OH2 9272   3.207   5.796   2.440  0.1280  0.6502  0.1540
 3089TIP3    H1 9273   3.138   5.749   2.394  1.4906 -0.3654 -0.9528
 3089TIP3    H2 9274   3.267   5.825   2.370  0.7043  1.7138  1.0528
 3090TIP3   OH2 9275   1.064   1.748   3.835 -0.0649 -0.4303 -0.5075
 3090TIP3    H1 9276   0.991   1.688   3.826  1.1483 -1.7645 -2.2134
 3090TIP3    H2 9277   1.141   1.696   3.813  1.3473  1.0887  0.5563
 3091TIP3   OH2 9278   0.579   3.013   2.508  0.3517 -0.0357  0.1080
 3091TIP3    H1 9279   0.499   2.981   2.467 -0.5145  0.6287  1.2565
 3091TIP3    H2 9280   0.647   2.998   2.441 -0.6269 -1.0096 -0.7064
 3092TIP3   OH2 9281   1.540   1.332   2.225 -0.0602 -0.2041  0.1990
 3092TIP3    H1 9282   1.582   1.258   2.181  0.8933 -0.3430  1.2902
 3092TIP3    H2 9283   1.513   1.297   2.310  0.1331  0.6131  0.6046
 3093TIP3   OH2 9284   0.315   0.093   0.577 -0.2022 -0.1432 -0.3489
 3093TIP3    H1 9285   0.394   0.139   0.606 -0.3932 -0.0415  0.0254
 3093TIP3    H2 9286   0.347   0.024   0.519  0.3244 -1.2311  1.1797
 3094TIP3   OH2 9287   5.170   4.223   1.855 -0.3901 -0.2255 -0.0764
 3094TIP3    H1 9288   5.080   4.214   1.885 -0.5520 -1.2266 -0.8141
 3094TIP3    H2 9289   5.221   4.175   1.920 -0.4732 -0.3224 -0.0828
 3095TIP3   OH2 9290   2.923   5.838   0.362 -0.4380  0.0848 -0.1114
 3095TIP3    H1 9291   2.851   5.795   0.407 -0.0582  1.6004  2.1642
 3095TIP3    H2 9292   2.999   5.783   0.382 -0.2786  0.7241  1.1788
 3096TIP3   OH2 9293   5.930   1.729   0.214  0.0024  0.4566 -0.0543
 3096TIP3    H1 9294   5.977   1.714   0.296  0.0104  0.6217 -0.0288
 3096TIP3    H2 9295   5.933   1.644   0.169 -0.1312  0.3247  0.1824
 3097TIP3   OH2 9296   5.579   1.179   4.426 -0.2799  0.1378  0.7049
 3097TIP3    H1 9297   5.604   1.206   4.338  1.4963  0.3927  1.2506
 3097TIP3    H2 9298   5.483   1.174   4.423 -0.2106 -1.2327 -1.6103
 3098TIP3   OH2 9299   6.241   2.464   4.750  0.1221 -0.0337  0.5807
 3098TIP3    H1 9300   6.214   2.555   4.748  0.8920  0.2368  1.6047
 3098TIP3    H2 9301   6.280   2.448   4.664 -1.1239  0.2387 -0.0455
 3099TIP3   OH2 9302   0.545   4.366   4.593  0.0484  0.5755  0.0158
 3099TIP3    H1 9303   0.554   4.433   4.526  1.2257  0.2013 -0.2301
 3099TIP3    H2 9304   0.594   4.291   4.558 -0.8560 -0.2551  0.4841
 3100TIP3   OH2 9305   1.664   1.591   1.315  0.8440  0.2726 -0.3970
 3100TIP3    H1 9306   1.618   1.578   1.398  2.0240  0.0271  0.2417
 3100TIP3    H2 9307   1.694   1.504   1.290  0.9426  0.4256 -0.8172
 3101TIP3   OH2 9308   1.099   4.371   3.603  0.1791  0.5400 -0.0121
 3101TIP3    H1 9309   1.059   4.284   3.607  1.4507 -0.0785 -0.3516
 3101TIP3    H2 9310   1.192   4.355   3.618  0.3747  1.8935  0.2910
 3102TIP3   OH2 9311   2.224   0.172   4.132  0.4637  0.1470 -0.1809
 3102TIP3    H1 9312   2.134   0.190   4.106 -0.1537 -1.5103  0.6655
 3102TIP3    H2 9313   2.266   0.258   4.134 -0.9397  0.8997 -1.0975
 3103TIP3   OH2 9314   0.470   0.387   0.624 -0.2704 -0.1861  0.2306
 3103TIP3    H1 9315   0.430   0.360   0.706  0.5139 -3.9549 -0.4112
 3103TIP3    H2 9316   0.396   0.400   0.564 -0.7633 -1.5759  0.4984
 3104TIP3   OH2 9317   5.749   5.698   3.186 -0.2643  0.0426 -0.0333
 3104TIP3    H1 9318   5.738   5.791   3.201 -0.9094 -0.0730  0.2171
 3104TIP3    H2 9319   5.819   5.693   3.120  0.2566  0.6647  0.4573
 3105TIP3   OH2 9320   2.860   5.553   4.353  0.3709  0.0424 -0.3242
 3105TIP3    H1 9321   2.818   5.632   4.320 -1.3258  0.3865  2.3255
 3105TIP3    H2 9322   2.906   5.582   4.432  1.6957 -1.2247 -0.5842
 3106TIP3   OH2 9323   3.937   5.658   4.954  0.1439 -0.0804 -0.0578
 3106TIP3    H1 9324   3.984   5.619   4.881  1.4325  0.4787  0.4300
 3106TIP3    H2 9325   3.875   5.719   4.914 -0.4695 -1.1211 -0.7288
 3107TIP3   OH2 9326   4.566   5.175   1.628  0.0452 -0.0844 -0.3851
 3107TIP3    H1 9327   4.607   5.122   1.559  0.8850 -0.2439  0.2272
 3107TIP3    H2 9328   4.610   5.149   1.708 -0.9614  0.0722  0.2329
 3108TIP3   OH2 9329   0.101   1.471   0.629  0.3017 -0.2283 -0.1325
 3108TIP3    H1 9330   0.143   1.553   0.651 -0.5480  0.9432 -2.5681
 3108TIP3    H2 9331   0.172   1.407   0.626  1.0587  0.5097  1.1162
 3109TIP3   OH2 9332   3.927   3.247   0.202 -0.3452 -0.3265  0.0270
 3109TIP3    H1 9333   3.996   3.313   0.204 -0.5978 -0.0373 -0.5155
 3109TIP3    H2 9334   3.954   3.182   0.267  0.4612 -0.2404 -0.2054
 3110TIP3   OH2 9335   0.857   5.878   3.615  0.0099  0.7814  0.0309
 3110TIP3    H1 9336   0.815   5.883   3.701 -0.7703  0.4117 -0.3283
 3110TIP3    H2 9337   0.898   5.791   3.614 -1.8778 -0.1596 -0.8165
 3111TIP3   OH2 9338   0.006   0.375   4.853 -0.4190 -0.1407 -0.4070
 3111TIP3    H1 9339   0.088   0.351   4.809 -0.5579  0.4143 -0.9905
 3111TIP3    H2 9340  -0.049   0.411   4.783 -0.2667  1.7554  0.3690
 3112TIP3   OH2 9341   0.232   4.248   2.485 -0.5745 -0.2443 -0.2714
 3112TIP3    H1 9342   0.202   4.288   2.566  1.3101  2.5399 -0.8215
 3112TIP3    H2 9343   0.298   4.184   2.513 -0.4437  0.1941  0.4365
 3113TIP3   OH2 9344   3.635   0.405   1.834  0.0111 -0.3051 -0.1469
 3113TIP3    H1 9345   3.704   0.385   1.897 -0.9302  1.2532  1.4870
 3113TIP3    H2 9346   3.556   0.368   1.872 -0.3955 -0.3375 -1.0040
 3114TIP3   OH2 9347   0.846   4.382   4.994  0.2971  0.2998  0.0882
 3114TIP3    H1 9348   0.840   4.449   5.063 -1.4740  2.1506 -1.6943
 3114TIP3    H2 9349   0.939   4.363   4.987  0.6359  0.9019  2.1680
 3115TIP3   OH2 9350   5.239   3.071   1.665  0.1162  0.7264 -0.0622
 3115TIP3    H1 9351   5.248   2.982   1.697  2.7232  1.2117  0.8152
 3115TIP3    H2 9352   5.157   3.071   1.616 -0.3081 -1.9360  0.4987
 3116TIP3   OH2 9353   5.359   1.429   1.435  0.2491  0.2979  0.4503
 3116TIP3    H1 9354   5.305   1.357   1.470  0.0729  0.3409  0.2706
 3116TIP3    H2 9355   5.313   1.456   1.356  1.7511 -1.2073 -1.0328
 3117TIP3   OH2 9356   2.222   0.398   5.131  0.3589  0.1584  0.1097
 3117TIP3    H1 9357   2.218   0.481   5.083 -1.1494 -0.7744 -1.4774
 3117TIP3    H2 9358   2.306   0.402   5.177 -0.2409  3.1133  1.1617
 3118TIP3   OH2 9359   5.227   5.966   2.362  0.1449 -0.4748  0.1638
 3118TIP3    H1 9360   5.187   5.880   2.367  1.3995 -1.1421 -0.5454
 3118TIP3    H2 9361   5.258   5.984   2.450  0.1262 -0.8802  0.2542
 3119TIP3   OH2 9362   2.191   2.966   4.533 -0.0402 -0.2739  0.0570
 3119TIP3    H1 9363   2.198   2.987   4.626  0.6762 -0.9618  0.1668
 3119TIP3    H2 9364   2.199   3.051   4.489  0.2577 -0.0147  0.5944
 3120TIP3   OH2 9365   0.754   5.590   2.955  0.2365 -0.5295 -0.3139
 3120TIP3    H1 9366   0.709   5.662   2.910 -0.1731 -0.6189 -0.0528
 3120TIP3    H2 9367   0.847   5.603   2.934  0.5563  1.7934  2.0188
 3121TIP3   OH2 9368   4.303   2.334   1.095  0.1294 -0.0317  0.2502
 3121TIP3    H1 9369   4.266   2.308   1.011 -0.8668  1.1129  0.2956
 3121TIP3    H2 9370   4.369   2.400   1.073 -0.2876  0.4309  0.3654
 3122TIP3   OH2 9371   2.686   4.968   1.425  0.2008  0.1741 -0.4228
 3122TIP3    H1 9372   2.727   4.938   1.344  0.5805  0.9358 -0.5314
 3122TIP3    H2 9373   2.597   4.934   1.422  0.5196 -0.6516 -0.6774
 3123TIP3   OH2 9374   2.217   2.165   3.133 -0.7699  0.3288 -0.2496
 3123TIP3    H1 9375   2.194   2.257   3.137 -1.3431  0.1925 -0.3779
 3123TIP3    H2 9376   2.177   2.126   3.210  1.0074  0.5087  0.8063
 3124TIP3   OH2 9377   1.753   4.204   3.457 -0.9135 -0.1736 -0.3737
 3124TIP3    H1 9378   1.724   4.151   3.531  1.7831 -0.7654  0.3535
 3124TIP3    H2 9379   1.837   4.167   3.431  0.1087  2.4371 -1.1937
 3125TIP3   OH2 9380   1.593   2.622   3.845 -0.4633 -0.5064 -0.1376
 3125TIP3    H1 9381   1.512   2.673   3.848  0.1432  0.5833 -1.5772
 3125TIP3    H2 9382   1.564   2.533   3.826 -1.2933  0.0240 -1.4988
 3126TIP3   OH2 9383   2.136   3.801   3.934 -0.5672  0.1129 -0.2438
 3126TIP3    H1 9384   2.195   3.751   3.877  0.9905  1.3196  0.2317
 3126TIP3    H2 9385   2.049   3.789   3.895 -0.2413 -2.6450 -0.3223
 3127TIP3   OH2 9386   0.823   1.786   0.689 -0.8578  1.0623  0.3041
 3127TIP3    H1 9387   0.874   1.866   0.697  0.2196  0.4254  0.0480
 3127TIP3    H2 9388   0.883   1.724   0.647 -1.0399 -0.4361  2.1240
 3128TIP3   OH2 9389   2.903   0.151   2.082  0.0741 -0.7769 -0.0517
 3128TIP3    H1 9390   2.873   0.084   2.144  0.2958 -1.4802 -0.6870
 3128TIP3    H2 9391   2.878   0.234   2.123 -1.1547 -1.2715  0.2531
 3129TIP3   OH2 9392   3.900   4.240   1.263  0.6719 -0.2682 -0.4991
 3129TIP3    H1 9393   3.994   4.230   1.274  0.3759 -1.4390  1.6957
 3129TIP3    H2 9394   3.866   4.150   1.265 -0.5740  0.1851  0.0161
 3130TIP3   OH2 9395   1.188   5.835   1.954 -0.6322  0.2972 -0.4180
 3130TIP3    H1 9396   1.146   5.848   1.869  0.3174 -0.2852 -0.9998
 3130TIP3    H2 9397   1.252   5.766   1.939 -0.3658  0.2619  0.7516
 3131TIP3   OH2 9398   2.735   1.434   3.130 -0.2440 -0.4526  0.2475
 3131TIP3    H1 9399   2.737   1.485   3.211  1.4152  0.3641 -0.2568
 3131TIP3    H2 9400   2.684   1.487   3.070 -0.0473 -0.2327  0.2697
 3132TIP3   OH2 9401   2.223   4.889   3.306 -0.2981  0.5837  0.3369
 3132TIP3    H1 9402   2.195   4.860   3.219  0.8490  2.8332 -0.8703
 3132TIP3    H2 9403   2.147   4.934   3.342 -0.0319  1.8685 -0.6223
 3133TIP3   OH2 9404   2.184   0.096   1.720  0.2011 -0.3318  0.0417
 3133TIP3    H1 9405   2.213   0.043   1.794  0.3220  0.0652  0.2771
 3133TIP3    H2 9406   2.104   0.140   1.751  1.0357  0.9563  0.4400
 3134TIP3   OH2 9407   5.016   3.246   0.896  0.2426 -0.4323  0.6957
 3134TIP3    H1 9408   4.982   3.334   0.879  0.8506 -0.3168 -0.0020
 3134TIP3    H2 9409   4.942   3.198   0.933 -1.4285 -0.8083 -2.7169
 3135TIP3   OH2 9410   0.515   2.466   1.837 -0.1700  0.0522  0.5136
 3135TIP3    H1 9411   0.433   2.498   1.875 -0.4048 -0.3377  0.3464
 3135TIP3    H2 9412   0.538   2.531   1.772 -0.0475  0.4528  0.9550
 3136TIP3   OH2 9413   3.595   5.024   1.589 -0.7421  0.1801 -0.1783
 3136TIP3    H1 9414   3.657   4.976   1.644 -1.7001  0.6282  1.3587
 3136TIP3    H2 9415   3.609   5.116   1.613 -0.7024  0.4535 -1.2089
 3137TIP3   OH2 9416   2.432   0.855   0.394 -0.1375  0.3462 -0.2806
 3137TIP3    H1 9417   2.512   0.873   0.344  0.2701 -1.8226 -0.4924
 3137TIP3    H2 9418   2.364   0.908   0.351  0.6093  0.0266 -1.9207
 3138TIP3   OH2 9419   2.903   1.155   3.561  0.0724 -0.2766  0.1730
 3138TIP3    H1 9420   2.979   1.113   3.603  0.2997 -0.5089 -0.4575
 3138TIP3    H2 9421   2.912   1.247   3.583  1.1693 -0.1273 -0.8276
 3139TIP3   OH2 9422   2.469   2.850   2.998  0.1367  0.5854 -0.8189
 3139TIP3    H1 9423   2.404   2.780   3.004  1.7116 -0.8993 -0.0185
 3139TIP3    H2 9424   2.527   2.823   2.926  2.2649 -0.3740  1.1214
 3140TIP3   OH2 9425   4.477   4.678   5.030  0.8366  0.3016 -0.6183
 3140TIP3    H1 9426   4.489   4.715   5.117  0.9394 -0.0472 -0.4853
 3140TIP3    H2 9427   4.447   4.589   5.045  1.4676  0.0266 -0.9358
 3141TIP3   OH2 9428   5.563   5.476   3.830 -0.1786 -0.1600 -0.4711
 3141TIP3    H1 9429   5.538   5.428   3.750  0.0772 -0.9792 -0.0714
 3141TIP3    H2 9430   5.510   5.556   3.828  0.6457  0.3943 -2.0528
 3142TIP3   OH2 9431   3.528   3.672   2.083 -0.4535 -0.1134 -0.0599
 3142TIP3    H1 9432   3.519   3.698   1.991 -0.7030  0.7765  0.2007
 3142TIP3    H2 9433   3.575   3.589   2.080  1.1231  0.7519 -0.9200
 3143TIP3   OH2 9434   2.523   0.163   0.083  0.0003 -0.7222 -0.4635
 3143TIP3    H1 9435   2.480   0.122   0.159  2.9095 -1.6746  0.7980
 3143TIP3    H2 9436   2.549   0.089   0.028  0.7955 -0.2474 -0.7413
 3144TIP3   OH2 9437   5.721   1.176   3.634  0.1331  1.0032  0.0314
 3144TIP3    H1 9438   5.748   1.146   3.547 -0.1708  1.4986 -0.2397
 3144TIP3    H2 9439   5.646   1.233   3.617  0.0090  1.0237  0.6298
 3145TIP3   OH2 9440   1.033   5.150   0.851 -0.1340 -0.0833 -0.1970
 3145TIP3    H1 9441   0.999   5.238   0.865  0.8512  0.4588 -1.0801
 3145TIP3    H2 9442   1.048   5.144   0.757  0.5166 -0.9283 -0.0586
 3146TIP3   OH2 9443   3.098   1.959   2.248  0.0531 -0.5136  0.0573
 3146TIP3    H1 9444   3.084   1.995   2.336 -0.0880 -0.1594 -0.1058
 3146TIP3    H2 9445   3.188   1.928   2.248 -0.1023 -0.9686  0.4845
 3147TIP3   OH2 9446   4.366   3.317   0.341  0.3765  0.6955  0.1915
 3147TIP3    H1 9447   4.408   3.241   0.302  0.5747  1.5835 -1.3986
 3147TIP3    H2 9448   4.301   3.280   0.401  0.8748 -0.7063 -0.0910
 3148TIP3   OH2 9449   3.608   5.228   1.293  0.3375  0.6102 -0.1322
 3148TIP3    H1 9450   3.524   5.225   1.341  0.3160  0.2831 -0.1842
 3148TIP3    H2 9451   3.629   5.136   1.278  0.9316  0.6732  0.2739
 3149TIP3   OH2 9452   3.947   2.067   4.048  0.0003 -0.8477 -0.3386
 3149TIP3    H1 9453   3.918   1.996   3.991  0.5928 -2.1758  0.9383
 3149TIP3    H2 9454   4.042   2.054   4.056  0.3496  0.9402 -1.1811
 3150TIP3   OH2 9455   1.398   0.681   3.993  0.3274 -0.4981 -0.1517
 3150TIP3    H1 9456   1.455   0.757   3.979  1.7757 -1.1843  1.6097
 3150TIP3    H2 9457   1.370   0.689   4.085  0.3703 -1.9873  0.0134
 3151TIP3   OH2 9458   2.185   1.451   3.871 -0.0603 -0.5210  0.1907
 3151TIP3    H1 9459   2.166   1.426   3.961 -0.7050  0.2815  0.2911
 3151TIP3    H2 9460   2.280   1.464   3.870 -0.0870 -0.2452  0.8336
 3152TIP3   OH2 9461   5.954   3.064   3.081 -0.2710 -0.3438 -0.4761
 3152TIP3    H1 9462   6.040   3.105   3.071  0.4852 -0.9265  2.5126
 3152TIP3    H2 9463   5.973   2.977   3.117 -2.0752 -1.0851 -1.2265
 3153TIP3   OH2 9464   4.003   3.984   2.124 -0.4732  0.2891  0.4813
 3153TIP3    H1 9465   4.098   3.986   2.115 -0.4866 -1.3896 -0.5740
 3153TIP3    H2 9466   3.972   4.058   2.072  0.1864 -0.5090 -1.1038
 3154TIP3   OH2 9467   0.078   1.775   4.858 -0.2687 -0.1145  0.1814
 3154TIP3    H1 9468   0.110   1.757   4.947 -1.4558 -0.4433  0.5505
 3154TIP3    H2 9469   0.119   1.708   4.804  2.2072  1.3519  0.0507
 3155TIP3   OH2 9470   5.308   1.219   1.621  1.0466  0.2125  0.0799
 3155TIP3    H1 9471   5.307   1.236   1.715  0.3072 -0.6458  0.2440
 3155TIP3    H2 9472   5.223   1.178   1.603  1.2547  0.1999 -0.9240
 3156TIP3   OH2 9473   6.002   2.599   3.223  0.1601  0.5727  0.5060
 3156TIP3    H1 9474   6.095   2.608   3.206  0.6264 -0.5411  2.1951
 3156TIP3    H2 9475   5.991   2.629   3.314 -0.6893 -1.4718  1.1531
 3157TIP3   OH2 9476   1.494   4.250   1.299  0.5188  0.6770  0.2413
 3157TIP3    H1 9477   1.576   4.235   1.251  1.3122 -0.4105  1.8736
 3157TIP3    H2 9478   1.440   4.175   1.276  0.4054  0.8083  0.0727
 3158TIP3   OH2 9479   2.218   1.506   1.841 -0.2494  0.7731  0.3953
 3158TIP3    H1 9480   2.293   1.535   1.789 -1.0333  0.3615 -1.0535
 3158TIP3    H2 9481   2.254   1.446   1.906  0.5658 -0.4020 -1.0806
 3159TIP3   OH2 9482   1.387   4.451   0.569 -0.2966 -0.1659  0.4052
 3159TIP3    H1 9483   1.324   4.503   0.619 -1.6325 -0.0661 -1.2535
 3159TIP3    H2 9484   1.335   4.413   0.498  1.1839 -1.6045  0.0207
 3160TIP3   OH2 9485   4.953   4.397   2.885  0.0222 -0.1880 -0.2558
 3160TIP3    H1 9486   5.016   4.325   2.888  0.8207  0.3969 -1.7902
 3160TIP3    H2 9487   4.909   4.394   2.970  0.5541 -2.0071  0.0021
 3161TIP3   OH2 9488   4.208   5.760   3.952 -0.4540  0.0576 -0.5741
 3161TIP3    H1 9489   4.152   5.816   4.006 -0.1697 -0.2417  0.0365
 3161TIP3    H2 9490   4.238   5.691   4.011  2.3852  1.4289 -0.2543
 3162TIP3   OH2 9491   3.730   1.084   4.998  0.0199 -0.1896 -0.1643
 3162TIP3    H1 9492   3.673   1.060   5.071 -1.7043 -0.6469 -1.5959
 3162TIP3    H2 9493   3.751   1.001   4.956 -1.9760  0.2901 -2.2739
 3163TIP3   OH2 9494   4.261   5.100   2.829  0.5130  0.0686  0.2546
 3163TIP3    H1 9495   4.226   5.189   2.830  1.1455  0.3305 -0.4112
 3163TIP3    H2 9496   4.337   5.103   2.887  1.8568  0.5371 -1.4448
 3164TIP3   OH2 9497   3.982   2.844   0.242  0.1317  0.2815  0.0201
 3164TIP3    H1 9498   4.058   2.844   0.300  0.7467 -1.3898 -0.6954
 3164TIP3    H2 9499   4.016   2.810   0.159 -1.1270  0.7752 -0.7323
 3165TIP3   OH2 9500   1.850   3.488   1.369 -0.1569 -0.1068 -0.1235
 3165TIP3    H1 9501   1.937   3.510   1.336 -0.2183  0.5719  0.1508
 3165TIP3    H2 9502   1.795   3.484   1.291 -0.3681  1.7863 -0.1341
 3166TIP3   OH2 9503   5.842   4.727   0.631  0.2114  0.3702 -0.1112
 3166TIP3    H1 9504   5.927   4.729   0.673  0.7884 -0.0452 -1.2234
 3166TIP3    H2 9505   5.855   4.675   0.552 -1.2719 -0.4033  0.1185
 3167TIP3   OH2 9506   5.517   5.718   5.109  0.0531  0.1142 -0.0815
 3167TIP3    H1 9507   5.477   5.635   5.084  0.2610 -0.2585  0.8039
 3167TIP3    H2 9508   5.459   5.755   5.175  0.0549  0.5910 -0.3423
 3168TIP3   OH2 9509   4.296   5.139   2.331 -0.2803  0.3278 -0.1779
 3168TIP3    H1 9510   4.206   5.149   2.363 -0.7120 -2.5801 -0.2178
 3168TIP3    H2 9511   4.304   5.045   2.312  2.8647  0.4538  0.0969
 3169TIP3   OH2 9512   2.217   2.949   1.898  0.0802 -0.3453  0.3243
 3169TIP3    H1 9513   2.213   3.044   1.885 -0.2043 -0.5110 -0.9989
 3169TIP3    H2 9514   2.236   2.938   1.991  0.7860  1.0184  0.3717
 3170TIP3   OH2 9515   0.977   5.636   3.564  0.0409  0.0523 -0.0453
 3170TIP3    H1 9516   0.999   5.655   3.473  1.5334  0.2012  0.3185
 3170TIP3    H2 9517   0.888   5.601   3.561  0.0298  0.1645 -1.5398
 3171TIP3   OH2 9518   5.828   1.550   0.896 -0.5104 -0.0914 -0.5325
 3171TIP3    H1 9519   5.804   1.462   0.868 -0.9920  0.5713 -2.3100
 3171TIP3    H2 9520   5.918   1.541   0.928 -0.5709 -1.2256 -0.6362
 3172TIP3   OH2 9521   5.484   5.763   0.099  0.1497  0.6133 -0.1451
 3172TIP3    H1 9522   5.479   5.849   0.142 -1.3183  0.8039 -0.6198
 3172TIP3    H2 9523   5.550   5.715   0.148 -1.0837  0.9928  2.0114
 3173TIP3   OH2 9524   5.821   3.077   2.167  0.1965  0.0368  0.1271
 3173TIP3    H1 9525   5.756   3.091   2.236 -0.6384 -0.4651 -0.5321
 3173TIP3    H2 9526   5.781   3.011   2.109  0.6197  0.8375 -1.1294
 3174TIP3   OH2 9527   1.405   1.842   4.225  0.0231 -0.1770 -0.2481
 3174TIP3    H1 9528   1.395   1.936   4.213 -0.3236 -0.3152 -1.1050
 3174TIP3    H2 9529   1.428   1.809   4.139  0.6445 -0.8171  0.1557
 3175TIP3   OH2 9530   1.628   5.341   0.109 -0.3215 -0.1603 -0.4025
 3175TIP3    H1 9531   1.613   5.333   0.203 -0.2941 -0.8507 -0.4544
 3175TIP3    H2 9532   1.707   5.395   0.103 -0.9192  0.7799 -0.0631
 3176TIP3   OH2 9533   6.151   1.522   0.055  0.5439  0.5115 -0.4877
 3176TIP3    H1 9534   6.183   1.434   0.033  1.1296  0.8873 -1.1893
 3176TIP3    H2 9535   6.099   1.510   0.134  0.9163 -0.4124 -0.3760
 3177TIP3   OH2 9536   5.160   3.649   0.014  0.0217  0.0934 -0.7270
 3177TIP3    H1 9537   5.198   3.568   0.048  0.5311  0.5248 -0.2490
 3177TIP3    H2 9538   5.096   3.675   0.081 -0.9535 -0.4907 -1.4034
 3178TIP3   OH2 9539   3.027   4.160   2.914  0.2180  0.1921 -0.1069
 3178TIP3    H1 9540   2.948   4.158   2.860  0.3910 -3.3130 -0.4587
 3178TIP3    H2 9541   3.094   4.198   2.856 -0.1423 -1.2906 -1.5665
 3179TIP3   OH2 9542   0.750   0.310   0.673 -0.2019 -0.1245 -0.5867
 3179TIP3    H1 9543   0.672   0.336   0.623 -0.3237  1.4892  0.3947
 3179TIP3    H2 9544   0.723   0.315   0.764  1.5515  2.4256 -0.1126
 3180TIP3   OH2 9545   2.404   3.663   2.444  0.3203  0.5889 -0.3515
 3180TIP3    H1 9546   2.329   3.614   2.477  1.5617 -0.4434  1.1031
 3180TIP3    H2 9547   2.452   3.600   2.390  0.7241  0.9039 -0.3650
 3181TIP3   OH2 9548   0.886   4.807   3.946 -0.6727 -0.1363  0.1513
 3181TIP3    H1 9549   0.978   4.822   3.968 -0.4864  0.1209 -0.7617
 3181TIP3    H2 9550   0.837   4.850   4.017 -0.0967  0.6314  0.1030
 3182TIP3   OH2 9551   5.067   1.130   4.941 -0.1932  0.0701 -0.1163
 3182TIP3    H1 9552   4.990   1.159   4.990  0.3242  0.2886  0.5842
 3182TIP3    H2 9553   5.106   1.211   4.907 -0.3472 -0.0510 -0.5876
 3183TIP3   OH2 9554   3.144   2.451   1.449  0.6374 -1.0632  0.4830
 3183TIP3    H1 9555   3.164   2.476   1.540 -0.2983  0.8652  0.2152
 3183TIP3    H2 9556   3.219   2.480   1.399  0.3538 -0.4518  0.4095
 3184TIP3   OH2 9557   2.157   2.198   0.812  0.3441  0.1799  0.3518
 3184TIP3    H1 9558   2.136   2.105   0.804  1.3544  0.0344 -1.2076
 3184TIP3    H2 9559   2.165   2.214   0.906 -1.2399 -0.9574  0.7089
 3185TIP3   OH2 9560   5.655   0.288   2.704  0.3106  0.0896 -0.3015
 3185TIP3    H1 9561   5.687   0.242   2.627  1.4870  0.8915 -0.3278
 3185TIP3    H2 9562   5.577   0.334   2.674 -0.5747 -1.4304 -0.4017
 3186TIP3   OH2 9563   4.064   4.065   3.059 -0.1760 -0.2954 -0.0805
 3186TIP3    H1 9564   4.137   4.127   3.051 -0.2132 -0.1855  0.4287
 3186TIP3    H2 9565   4.091   3.989   3.008 -0.6103  0.5852 -1.6947
 3187TIP3   OH2 9566   0.947   4.297   0.699  0.7334  0.4581 -0.3806
 3187TIP3    H1 9567   0.861   4.320   0.734  2.1259  1.9870  2.3611
 3187TIP3    H2 9568   0.941   4.316   0.605 -1.9868  0.1291 -0.3562
 3188TIP3   OH2 9569   2.854   3.510   1.817  0.4826 -0.0780  0.2953
 3188TIP3    H1 9570   2.834   3.557   1.737  2.3652  1.0991  0.4626
 3188TIP3    H2 9571   2.946   3.531   1.836  1.0525 -2.7763  1.0908
 3189TIP3   OH2 9572   2.601   5.861   4.021 -0.3874 -0.0269 -0.1432
 3189TIP3    H1 9573   2.595   5.805   3.943  1.2393  0.0063 -0.3085
 3189TIP3    H2 9574   2.514   5.855   4.060 -0.2396 -2.8853 -0.0351
 3190TIP3   OH2 9575   0.288   3.722   1.793 -0.3803 -0.1426 -0.1454
 3190TIP3    H1 9576   0.361   3.785   1.792  1.1350 -1.7737  0.6766
 3190TIP3    H2 9577   0.311   3.661   1.863 -0.4607 -3.0347 -2.4483
 3191TIP3   OH2 9578   3.944   2.289   2.982  0.2077 -0.7045 -0.2781
 3191TIP3    H1 9579   3.888   2.366   2.972  0.1856  0.0013  3.8243
 3191TIP3    H2 9580   3.883   2.216   2.994  0.1825 -0.5958  0.2690
 3192TIP3   OH2 9581   5.580   1.198   2.510 -0.5885  0.0984  0.4987
 3192TIP3    H1 9582   5.640   1.232   2.444 -1.1616  1.3645  0.5991
 3192TIP3    H2 9583   5.565   1.107   2.484  0.4379  0.1090 -0.1918
 3193TIP3   OH2 9584   0.835   5.114   2.700 -0.2913  0.0289 -0.3287
 3193TIP3    H1 9585   0.819   5.059   2.623  0.6426  0.8000 -1.0934
 3193TIP3    H2 9586   0.913   5.077   2.741 -0.1689  0.2681 -0.3478
 3194TIP3   OH2 9587   3.965   2.137   2.319  0.0866  0.0620  0.2065
 3194TIP3    H1 9588   3.971   2.207   2.384  2.4203  0.1251  0.0062
 3194TIP3    H2 9589   3.998   2.175   2.238  0.7167 -1.0454 -0.0868
 3195TIP3   OH2 9590   5.151   0.507   2.148 -0.0090 -0.2616 -0.3369
 3195TIP3    H1 9591   5.237   0.540   2.120  0.0458  1.0549  1.2400
 3195TIP3    H2 9592   5.089   0.552   2.091  0.2652 -0.2548 -0.6377
 3196TIP3   OH2 9593   4.822   2.751   1.979 -0.0776 -0.8133  0.4602
 3196TIP3    H1 9594   4.916   2.754   1.960 -0.3132 -0.0745 -0.6930
 3196TIP3    H2 9595   4.815   2.780   2.070  1.0499 -3.8386  1.6553
 3197TIP3   OH2 9596   4.230   0.988   1.116  0.2307  0.6189  0.0870
 3197TIP3    H1 9597   4.268   0.905   1.147  1.5514  1.7537  1.6751
 3197TIP3    H2 9598   4.300   1.028   1.066  0.0347  1.3202  0.3666
 3198TIP3   OH2 9599   4.131   3.145   2.014 -0.9222 -0.0380  0.0295
 3198TIP3    H1 9600   4.161   3.084   1.947  1.0056  1.4675 -0.6053
 3198TIP3    H2 9601   4.048   3.179   1.980 -2.4907 -2.7881  0.7983
 3199TIP3   OH2 9602   1.118   2.633   0.161 -0.5766  0.8222  0.5587
 3199TIP3    H1 9603   1.072   2.701   0.210 -0.7862 -0.0565  1.6043
 3199TIP3    H2 9604   1.162   2.580   0.227  2.0167  1.6366 -0.4016
 3200TIP3   OH2 9605   0.874   0.007   1.553  0.2428 -0.4187 -0.5542
 3200TIP3    H1 9606   0.899   0.009   1.645 -1.2054  1.4451 -0.1336
 3200TIP3    H2 9607   0.957  -0.003   1.506  1.1724  0.0558  0.8993
 3201TIP3   OH2 9608   5.637   0.216   3.982 -0.4372  0.2906 -0.3091
 3201TIP3    H1 9609   5.580   0.145   3.952 -1.0435  1.4003 -1.9461
 3201TIP3    H2 9610   5.722   0.173   3.997 -1.1447 -1.0130  0.1418
 3202TIP3   OH2 9611   5.589   2.680   2.494 -0.3335 -0.6214 -0.3324
 3202TIP3    H1 9612   5.547   2.636   2.568 -0.3322 -0.3413 -0.1614
 3202TIP3    H2 9613   5.596   2.771   2.522  1.8937 -0.9371  0.3246
 3203TIP3   OH2 9614   4.568   3.972   1.557 -0.1694  0.6006  0.3714
 3203TIP3    H1 9615   4.629   3.920   1.506  0.2287  0.1730  1.2485
 3203TIP3    H2 9616   4.621   4.043   1.593 -0.7644  1.7811 -1.0253
 3204TIP3   OH2 9617   5.300   1.220   2.279 -0.0845 -0.2844  0.4676
 3204TIP3    H1 9618   5.352   1.268   2.214  0.2989  0.6200  1.4188
 3204TIP3    H2 9619   5.253   1.288   2.327 -0.1717 -0.9166  1.2932
 3205TIP3   OH2 9620   3.007   0.458   3.643 -0.0513  0.0954 -0.7563
 3205TIP3    H1 9621   3.030   0.464   3.736  0.8529  1.2089 -1.0354
 3205TIP3    H2 9622   3.042   0.374   3.615 -0.7631 -0.4804  0.0142
 3206TIP3   OH2 9623   2.319   0.068   3.633  0.0798 -0.2167  0.1861
 3206TIP3    H1 9624   2.409   0.090   3.609 -0.2765  1.0882 -0.0421
 3206TIP3    H2 9625   2.267   0.142   3.600 -0.8294  0.0245  2.0389
 3207TIP3   OH2 9626   2.313   4.877   5.030 -0.1010  0.1021 -0.4699
 3207TIP3    H1 9627   2.291   4.878   4.937 -0.2726  0.6213 -0.4289
 3207TIP3    H2 9628   2.328   4.969   5.052 -0.1039 -0.0114  0.0260
 3208TIP3   OH2 9629   2.848   4.681   0.837  0.0470 -0.0233 -1.0935
 3208TIP3    H1 9630   2.942   4.665   0.828  0.3292  0.6033  0.5829
 3208TIP3    H2 9631   2.807   4.599   0.806  1.1128 -0.2448 -1.9813
 3209TIP3   OH2 9632   5.715   5.401   0.911 -0.0306  0.0592  0.4546
 3209TIP3    H1 9633   5.750   5.428   0.996 -1.9808 -2.3507  2.1445
 3209TIP3    H2 9634   5.620   5.406   0.921 -0.3323 -1.4608 -1.1508
 3210TIP3   OH2 9635   2.481   4.640   4.975 -0.2155  0.5314  0.0990
 3210TIP3    H1 9636   2.411   4.702   4.995 -0.3294  0.7033 -0.7866
 3210TIP3    H2 9637   2.562   4.689   4.994 -0.3210  0.0673  1.8780
 3211TIP3   OH2 9638   1.709   5.343   1.106  0.0039 -0.4686  0.0462
 3211TIP3    H1 9639   1.639   5.379   1.160 -0.3346 -1.0200 -0.0125
 3211TIP3    H2 9640   1.732   5.414   1.046  0.4861  0.1989  0.9913
 3212TIP3   OH2 9641   1.946   1.689   1.192 -0.2643  0.1741  0.0516
 3212TIP3    H1 9642   1.942   1.594   1.194  0.9403  0.1072 -0.1240
 3212TIP3    H2 9643   1.885   1.714   1.122 -0.1419 -0.4935 -0.2991
 3213TIP3   OH2 9644   1.865   4.988   4.032  0.8652 -0.6862 -0.1412
 3213TIP3    H1 9645   1.845   5.062   3.976  1.8391 -0.5508 -0.3224
 3213TIP3    H2 9646   1.913   5.026   4.106  2.3221 -1.2536 -0.7656
 3214TIP3   OH2 9647   2.530   3.893   4.950  0.0785  0.2843 -0.3672
 3214TIP3    H1 9648   2.619   3.857   4.949 -0.1242 -0.2159 -1.2357
 3214TIP3    H2 9649   2.511   3.907   5.043  0.8327 -0.1890 -0.1332
 3215TIP3   OH2 9650   0.945   4.321   1.654  0.6142  0.2966  0.1829
 3215TIP3    H1 9651   0.875   4.383   1.675 -0.4284 -0.7738 -0.0379
 3215TIP3    H2 9652   0.921   4.287   1.568  0.7370 -1.0043  0.6518
 3216TIP3   OH2 9653   2.224   3.161   4.170  0.1512  0.0415 -0.0289
 3216TIP3    H1 9654   2.261   3.074   4.187 -1.7512 -0.9450 -0.6660
 3216TIP3    H2 9655   2.300   3.217   4.154  1.3895 -1.9257 -1.4844
 3217TIP3   OH2 9656   0.359   0.468   2.589 -0.0019  0.5939 -0.4172
 3217TIP3    H1 9657   0.443   0.499   2.554  0.4052  0.0512  0.0629
 3217TIP3    H2 9658   0.383   0.413   2.663 -0.6997 -0.7562 -1.1546
 3218TIP3   OH2 9659   0.001   3.901   3.040 -0.0691  0.0035 -0.2958
 3218TIP3    H1 9660   0.064   3.833   3.014 -0.8070 -0.8701  0.1304
 3218TIP3    H2 9661  -0.029   3.874   3.127 -1.2214  0.2551 -0.5967
 3219TIP3   OH2 9662   3.402   2.820   1.220  0.4338 -0.3910  0.0804
 3219TIP3    H1 9663   3.419   2.910   1.192  0.5078 -0.4860 -0.1800
 3219TIP3    H2 9664   3.311   2.821   1.249 -0.2940 -0.7499 -2.0606
 3220TIP3   OH2 9665   0.480   5.676   2.635 -0.1081 -0.5386 -0.2467
 3220TIP3    H1 9666   0.448   5.666   2.725  0.7972 -0.2455  0.1222
 3220TIP3    H2 9667   0.412   5.636   2.581 -0.9806 -0.1257  0.5188
 3221TIP3   OH2 9668   1.824   3.049   3.745 -0.0627  0.3682  0.1212
 3221TIP3    H1 9669   1.904   3.009   3.779  0.4641  1.8821  0.7325
 3221TIP3    H2 9670   1.805   3.121   3.805 -0.5220  1.5394 -1.3667
 3222TIP3   OH2 9671   2.258   5.680   1.269  0.3229  0.0485 -0.0670
 3222TIP3    H1 9672   2.211   5.639   1.196 -0.2930 -1.0998  0.9438
 3222TIP3    H2 9673   2.192   5.733   1.314  0.1493 -0.9382  0.8867
 3223TIP3   OH2 9674   3.810   2.806   3.871 -0.1086 -0.0675  0.2925
 3223TIP3    H1 9675   3.823   2.834   3.781 -1.7952  1.1148  0.3663
 3223TIP3    H2 9676   3.715   2.801   3.881  0.0539 -1.8605  1.5308
 3224TIP3   OH2 9677   6.038   4.755   1.329  0.2215 -0.0528 -0.2326
 3224TIP3    H1 9678   6.102   4.742   1.259  1.2313  0.1731  0.6185
 3224TIP3    H2 9679   6.037   4.850   1.343  0.2189 -0.1162  0.2192
 3225TIP3   OH2 9680   1.323   1.649   1.001 -0.1116  0.4503 -0.3998
 3225TIP3    H1 9681   1.411   1.621   0.976 -0.1952  0.5646 -0.8301
 3225TIP3    H2 9682   1.338   1.721   1.063  0.1022 -1.0453  1.3417
 3226TIP3   OH2 9683   3.902   1.154   4.262 -0.5452 -0.1376  0.4087
 3226TIP3    H1 9684   3.836   1.121   4.323  0.1033  1.8645  2.3076
 3226TIP3    H2 9685   3.968   1.196   4.317  2.2940 -1.8398 -1.4109
 3227TIP3   OH2 9686   6.213   3.238   3.107 -0.3706  0.5537 -0.0420
 3227TIP3    H1 9687   6.186   3.323   3.073  1.1447  1.1159  0.1324
 3227TIP3    H2 9688   6.301   3.224   3.073  0.2970  0.0953  1.7616
 3228TIP3   OH2 9689   3.327   2.209   2.526 -0.5430  0.2195 -0.3450
 3228TIP3    H1 9690   3.313   2.246   2.613 -0.9344 -3.0467  1.1140
 3228TIP3    H2 9691   3.413   2.167   2.531 -0.8168 -0.5149 -1.3226
 3229TIP3   OH2 9692   1.228   4.717   0.563 -1.2347  0.1023 -0.3296
 3229TIP3    H1 9693   1.185   4.652   0.508  0.2653  0.3002 -1.7990
 3229TIP3    H2 9694   1.162   4.741   0.628 -2.0192 -2.4469 -0.0749
 3230TIP3   OH2 9695   0.411   4.077   4.382  0.2356 -0.0576  0.6176
 3230TIP3    H1 9696   0.440   4.161   4.417 -0.6708 -0.0122  1.2755
 3230TIP3    H2 9697   0.414   4.089   4.287 -2.9513  1.8532  0.6350
 3231TIP3   OH2 9698   4.981   3.000   1.560  0.1460  0.2842  0.0469
 3231TIP3    H1 9699   4.927   2.993   1.639 -0.4173 -1.1511 -0.4475
 3231TIP3    H2 9700   4.919   2.993   1.488  0.9599 -1.3365 -0.5309
 3232TIP3   OH2 9701   5.912   5.026   1.805 -0.1018 -0.3002 -0.8706
 3232TIP3    H1 9702   5.886   4.953   1.861  0.0923  0.3572  0.0863
 3232TIP3    H2 9703   6.004   5.042   1.826 -0.5832  1.3095  0.1959
 3233TIP3   OH2 9704   2.295   1.164   1.794  0.3725  0.6553  0.0668
 3233TIP3    H1 9705   2.199   1.165   1.791  0.2605 -0.6250  1.8581
 3233TIP3    H2 9706   2.318   1.231   1.857  0.3410 -1.9327  3.0796
 3234TIP3   OH2 9707   5.588   0.704   2.818 -0.1818  0.1662  0.2965
 3234TIP3    H1 9708   5.528   0.670   2.884 -0.3750 -1.2978 -0.5702
 3234TIP3    H2 9709   5.675   0.691   2.855 -0.2316 -1.7420 -0.1749
 3235TIP3   OH2 9710   2.362   3.416   0.513 -0.2486  0.3293  0.3909
 3235TIP3    H1 9711   2.423   3.346   0.489 -0.8488  0.1131 -0.5629
 3235TIP3    H2 9712   2.344   3.401   0.606  0.2052 -0.3348  0.3797
 3236TIP3   OH2 9713   6.301   5.681   2.477 -0.4457 -0.0245  0.5739
 3236TIP3    H1 9714   6.215   5.715   2.452 -0.3130  0.7255  1.1078
 3236TIP3    H2 9715   6.289   5.586   2.484 -0.2761 -0.5091 -3.3629
 3237TIP3   OH2 9716   3.154   0.553   2.292  0.2148  0.2966 -0.3112
 3237TIP3    H1 9717   3.206   0.492   2.344 -0.0620 -0.1059 -0.5087
 3237TIP3    H2 9718   3.197   0.638   2.306  0.4046  0.1170  0.2182
 3238TIP3   OH2 9719   1.067   1.524   2.045  0.0450  0.0224 -0.0980
 3238TIP3    H1 9720   1.008   1.596   2.023  1.3172  0.8481 -1.0018
 3238TIP3    H2 9721   1.129   1.521   1.971  0.5488 -1.4272  0.3520
 3239TIP3   OH2 9722   3.236   3.085   3.715  0.4012 -0.0070 -0.0779
 3239TIP3    H1 9723   3.273   3.166   3.751  2.5522 -0.8029 -0.3467
 3239TIP3    H2 9724   3.173   3.056   3.781  0.2159  1.4233  0.4140
 3240TIP3   OH2 9725   1.180   5.447   3.527 -0.1842 -0.2736  0.0429
 3240TIP3    H1 9726   1.227   5.458   3.610  0.3836  0.5587 -0.3772
 3240TIP3    H2 9727   1.097   5.492   3.541 -0.6966 -1.3811  0.6431
 3241TIP3   OH2 9728   0.090   3.256   0.215  0.3736  0.3281 -0.0748
 3241TIP3    H1 9729   0.102   3.350   0.204  2.9204 -0.1162 -1.9738
 3241TIP3    H2 9730   0.017   3.234   0.158 -0.1507  1.1163  0.2796
 3242TIP3   OH2 9731   5.118   4.736   4.283  0.0509 -0.0428  0.4608
 3242TIP3    H1 9732   5.211   4.759   4.280  0.0342  0.1955  1.5464
 3242TIP3    H2 9733   5.090   4.756   4.372 -1.0043 -0.2875  0.2075
 3243TIP3   OH2 9734   3.553   5.380   3.183 -0.7497 -0.3112 -0.0370
 3243TIP3    H1 9735   3.465   5.384   3.219 -1.4030  0.0716 -1.6012
 3243TIP3    H2 9736   3.598   5.313   3.235 -1.7679 -0.0998  1.1465
 3244TIP3   OH2 9737   1.833   0.825   2.244 -0.2786 -0.2407  0.1264
 3244TIP3    H1 9738   1.923   0.802   2.220 -0.3108  1.6928 -2.2325
 3244TIP3    H2 9739   1.842   0.888   2.315  0.2739 -0.0120 -0.1382
 3245TIP3   OH2 9740   2.049   5.052   3.735  0.1794  0.0618 -0.2874
 3245TIP3    H1 9741   1.975   5.097   3.775 -0.1426 -0.4392 -0.3064
 3245TIP3    H2 9742   2.095   5.120   3.685 -0.5273  0.2830 -0.6499
 3246TIP3   OH2 9743   4.450   3.182   3.318  0.0198 -0.1944 -0.4088
 3246TIP3    H1 9744   4.429   3.139   3.401  1.7977 -0.9696 -0.3214
 3246TIP3    H2 9745   4.488   3.113   3.264 -0.9009  0.3615 -1.8116
 3247TIP3   OH2 9746   0.599   5.179   5.039  0.1494  0.4322 -0.7102
 3247TIP3    H1 9747   0.617   5.170   5.133  0.2483  2.4284 -0.4909
 3247TIP3    H2 9748   0.604   5.090   5.005  0.6245 -0.2762  1.0877
 3248TIP3   OH2 9749   3.739   3.898   2.174  0.4418  0.1737 -0.1701
 3248TIP3    H1 9750   3.751   3.866   2.264  0.0129 -0.8037 -0.4427
 3248TIP3    H2 9751   3.827   3.926   2.147  0.5480  0.6277  0.5975
 3249TIP3   OH2 9752   5.823   5.694   3.541  0.0995  0.7208  0.3782
 3249TIP3    H1 9753   5.796   5.691   3.633 -1.1522 -1.2312  0.0063
 3249TIP3    H2 9754   5.773   5.766   3.504  0.1211  1.1052  1.0817
 3250TIP3   OH2 9755   2.137   2.278   4.917 -0.5075  0.3612 -0.5030
 3250TIP3    H1 9756   2.077   2.339   4.959 -0.1588  0.0328  0.5022
 3250TIP3    H2 9757   2.219   2.327   4.907 -0.0602 -0.0739  0.7931
 3251TIP3   OH2 9758   5.118   0.435   0.369 -0.1991  0.9490 -0.4108
 3251TIP3    H1 9759   5.053   0.406   0.304  0.6303 -0.6316 -0.5677
 3251TIP3    H2 9760   5.066   0.453   0.447 -0.7134 -2.3514  0.1607
 3252TIP3   OH2 9761   6.242   2.477   2.052 -0.1721 -0.7993 -0.4760
 3252TIP3    H1 9762   6.244   2.516   1.965 -1.2452 -0.2555 -0.2798
 3252TIP3    H2 9763   6.204   2.546   2.108  0.9434 -0.9529  0.5177
 3253TIP3   OH2 9764   4.000   0.864   2.173 -0.2689  0.5420  0.0452
 3253TIP3    H1 9765   4.034   0.856   2.084 -0.8866  1.8952 -0.3374
 3253TIP3    H2 9766   3.930   0.799   2.178 -1.6917  1.9232 -1.2051
 3254TIP3   OH2 9767   5.832   1.312   1.650 -0.2438 -0.2549 -0.5904
 3254TIP3    H1 9768   5.749   1.276   1.619 -0.7622  1.0208 -0.7394
 3254TIP3    H2 9769   5.823   1.407   1.639  1.0023 -0.0496 -0.0368
 3255TIP3   OH2 9770   5.456   4.364   1.736  0.7782  0.2251 -0.3321
 3255TIP3    H1 9771   5.453   4.356   1.641  0.8596  0.6767 -0.3747
 3255TIP3    H2 9772   5.508   4.289   1.765  1.0103  0.2560 -0.6664
 3256TIP3   OH2 9773   5.061   2.285   2.539  0.0904 -0.6260  0.6661
 3256TIP3    H1 9774   5.002   2.211   2.556  1.1028 -1.6854 -0.2569
 3256TIP3    H2 9775   5.004   2.352   2.500 -0.9025 -0.7799  1.7834
 3257TIP3   OH2 9776   3.219   2.465   0.192 -0.2448  0.2649  0.6247
 3257TIP3    H1 9777   3.158   2.391   0.194  0.7138 -0.6749 -1.8393
 3257TIP3    H2 9778   3.189   2.519   0.119  1.4265  0.1399 -0.2031
 3258TIP3   OH2 9779   1.421   0.089   5.016 -0.1239 -0.4835 -0.0236
 3258TIP3    H1 9780   1.517   0.086   5.020 -0.1708 -1.3636  0.7044
 3258TIP3    H2 9781   1.393   0.094   5.108 -0.7488  1.9249 -0.2691
 3259TIP3   OH2 9782   3.943   2.689   2.739  0.3850 -0.1802  0.2647
 3259TIP3    H1 9783   4.007   2.643   2.792 -0.1259  1.3140  2.2662
 3259TIP3    H2 9784   3.880   2.621   2.713 -1.1335 -0.5654  4.3172
 3260TIP3   OH2 9785   0.501   5.631   1.321  0.3599 -0.1696  0.4402
 3260TIP3    H1 9786   0.421   5.631   1.374  1.0420  1.8319  1.6164
 3260TIP3    H2 9787   0.548   5.552   1.348 -0.3702 -0.3880  1.1320
 3261TIP3   OH2 9788   5.248   1.049   4.739 -0.6116 -0.3670 -0.2420
 3261TIP3    H1 9789   5.332   1.094   4.733 -0.9092  0.1019 -1.1217
 3261TIP3    H2 9790   5.192   1.111   4.786 -0.4384 -0.7332  0.4587
 3262TIP3   OH2 9791   2.790   5.294   4.201 -0.4143  0.2029  0.4211
 3262TIP3    H1 9792   2.744   5.313   4.119  1.2900  0.5323 -0.5102
 3262TIP3    H2 9793   2.857   5.362   4.207  1.6430 -1.7083  0.3335
 3263TIP3   OH2 9794   3.340   3.224   2.416  0.3688  0.4988  0.0530
 3263TIP3    H1 9795   3.332   3.132   2.392 -0.9538  0.6978 -0.3190
 3263TIP3    H2 9796   3.254   3.249   2.449  0.8527  1.4754  0.6571
 3264TIP3   OH2 9797   4.321   0.358   3.120 -0.5533  0.2442 -0.1704
 3264TIP3    H1 9798   4.412   0.333   3.108 -0.8835 -1.8934  1.2314
 3264TIP3    H2 9799   4.324   0.436   3.176  0.3872 -0.6068  0.9943
 3265TIP3   OH2 9800   4.823   0.510   4.677 -0.1174  0.1468 -0.0564
 3265TIP3    H1 9801   4.833   0.470   4.763 -1.6798  2.4330  1.2874
 3265TIP3    H2 9802   4.913   0.521   4.645  0.4114 -3.0455  0.0502
 3266TIP3   OH2 9803   3.697   3.397   3.717 -0.7419 -0.1110 -0.3452
 3266TIP3    H1 9804   3.603   3.391   3.738 -0.3229 -0.7775  1.5246
 3266TIP3    H2 9805   3.737   3.430   3.797  0.8322 -1.3632 -0.5856
 3267TIP3   OH2 9806   3.494   4.626   0.009  0.5936  0.2515 -0.0062
 3267TIP3    H1 9807   3.543   4.611  -0.072 -0.3004  0.8983 -0.6829
 3267TIP3    H2 9808   3.551   4.590   0.077  1.3459 -0.3517 -0.9104
 3268TIP3   OH2 9809   6.104   2.340   3.181  0.3606  0.0886 -1.1605
 3268TIP3    H1 9810   6.074   2.430   3.179  0.8519  0.2845 -0.2959
 3268TIP3    H2 9811   6.195   2.343   3.153  0.5098 -0.0709 -0.7118
 3269TIP3   OH2 9812   4.485   2.020   4.719  0.4539  0.0325 -0.3718
 3269TIP3    H1 9813   4.483   1.970   4.638 -0.9641  0.7731 -0.8345
 3269TIP3    H2 9814   4.495   2.111   4.690 -0.1719  0.3137  0.2777
 3270TIP3   OH2 9815   2.735   0.774   4.156  0.1846 -0.0701  0.1619
 3270TIP3    H1 9816   2.776   0.835   4.217  0.6442 -0.8830  0.6827
 3270TIP3    H2 9817   2.793   0.698   4.155 -1.3641 -1.3436  1.0775
 3271TIP3   OH2 9818   0.208   2.261   3.865  0.0890  0.3773 -0.4705
 3271TIP3    H1 9819   0.275   2.329   3.862  0.1476  0.3494  0.0098
 3271TIP3    H2 9820   0.254   2.183   3.894 -0.2826  0.5498  0.6610
 3272TIP3   OH2 9821   3.281   5.586   1.237  0.5743  0.4081 -0.2936
 3272TIP3    H1 9822   3.342   5.563   1.307  0.6985 -0.5240 -0.7002
 3272TIP3    H2 9823   3.336   5.623   1.168  0.5123  0.8167 -0.1313
 3273TIP3   OH2 9824   4.420   1.298   1.536  0.1321 -0.1114  0.0532
 3273TIP3    H1 9825   4.387   1.348   1.611  2.1403  0.9878  0.2711
 3273TIP3    H2 9826   4.380   1.340   1.460  0.7782  1.0334  0.3223
 3274TIP3   OH2 9827   4.087   0.990   4.151  0.0915 -0.1192  0.1281
 3274TIP3    H1 9828   4.025   1.057   4.179 -0.0940 -0.1764 -0.1477
 3274TIP3    H2 9829   4.086   0.994   4.055  0.7541  0.1008  0.1202
 3275TIP3   OH2 9830   0.738   3.978   1.017 -0.7764 -0.0459 -0.3829
 3275TIP3    H1 9831   0.672   3.919   1.053 -1.5348  0.0106 -1.6245
 3275TIP3    H2 9832   0.758   3.942   0.931 -0.9116  1.2151 -0.9762
 3276TIP3   OH2 9833   2.534   4.094   2.825  0.2887  0.4932 -0.4848
 3276TIP3    H1 9834   2.622   4.093   2.864  0.1599 -2.7338 -0.0836
 3276TIP3    H2 9835   2.543   4.046   2.743 -1.1355 -0.0458 -0.3524
 3277TIP3   OH2 9836   2.282   2.650   3.020 -0.2627  0.1516  0.3810
 3277TIP3    H1 9837   2.264   2.622   3.110 -1.3944 -1.4582 -0.2868
 3277TIP3    H2 9838   2.336   2.580   2.984 -0.8817  0.1361 -0.5479
 3278TIP3   OH2 9839   4.572   2.857   4.378 -0.1219 -0.4513  0.4994
 3278TIP3    H1 9840   4.619   2.811   4.447  0.0482 -0.1421  0.5885
 3278TIP3    H2 9841   4.614   2.943   4.372  0.6900 -0.9126 -0.8311
 3279TIP3   OH2 9842   1.615   2.966   3.349 -0.4922 -0.5007 -0.2004
 3279TIP3    H1 9843   1.571   2.890   3.311 -0.5568  0.6461 -2.5597
 3279TIP3    H2 9844   1.678   2.994   3.283  0.6447  0.6094  1.2522
 3280TIP3   OH2 9845   5.261   5.951   0.700 -0.0553  0.0291 -0.0927
 3280TIP3    H1 9846   5.311   5.874   0.727 -0.4174 -0.3197 -0.3878
 3280TIP3    H2 9847   5.190   5.958   0.764 -1.8328 -1.7120 -1.7020
 3281TIP3   OH2 9848   5.487   1.643   0.406 -0.5249  0.3259 -0.0435
 3281TIP3    H1 9849   5.583   1.639   0.413 -0.3279  3.4523  0.6311
 3281TIP3    H2 9850   5.470   1.643   0.312  0.1073 -0.4588 -0.1693
 3282TIP3   OH2 9851   5.244   1.574   0.926 -0.0397  0.1517 -0.3268
 3282TIP3    H1 9852   5.335   1.598   0.940  0.2842 -1.4261  0.5485
 3282TIP3    H2 9853   5.200   1.656   0.906  1.3075  1.1579  0.6724
 3283TIP3   OH2 9854   2.780   3.584   1.550  0.4716  0.4491  0.0298
 3283TIP3    H1 9855   2.700   3.636   1.537 -0.5702 -0.8703  0.7677
 3283TIP3    H2 9856   2.771   3.510   1.489  0.6539 -0.1959  0.7623
 3284TIP3   OH2 9857   2.172   2.589   2.546 -0.6864 -0.0715  0.4822
 3284TIP3    H1 9858   2.109   2.657   2.521 -0.1231 -0.2653 -1.5935
 3284TIP3    H2 9859   2.175   2.530   2.472  0.2308 -1.3632  1.5037
 3285TIP3   OH2 9860   4.816   3.000   0.600  0.3657  0.5342  0.0979
 3285TIP3    H1 9861   4.900   2.965   0.630  0.5066  0.6054 -0.2146
 3285TIP3    H2 9862   4.796   2.949   0.521  0.4505  0.9868 -0.2178
 3286TIP3   OH2 9863   3.739   4.664   1.494  0.0995  0.2095  0.4444
 3286TIP3    H1 9864   3.682   4.732   1.458 -0.3849  0.3685  1.4859
 3286TIP3    H2 9865   3.753   4.604   1.421 -0.9957  0.4356  0.0258
 3287TIP3   OH2 9866   5.702   4.561   0.982  0.3830 -0.0081  0.8794
 3287TIP3    H1 9867   5.733   4.505   1.054 -1.1728 -0.9267  0.8965
 3287TIP3    H2 9868   5.752   4.531   0.906  0.9148 -0.1097  1.2564
 3288TIP3   OH2 9869   4.263   4.068   1.075 -0.1586  0.3494  0.4442
 3288TIP3    H1 9870   4.329   4.086   1.142 -0.3329  0.2409  0.6475
 3288TIP3    H2 9871   4.180   4.068   1.123  0.0184 -5.5777  1.5662
 3289TIP3   OH2 9872   1.070   5.940   0.929  0.4982  0.8012 -0.0348
 3289TIP3    H1 9873   1.017   5.863   0.947 -0.1324  0.9159 -1.3084
 3289TIP3    H2 9874   1.108   5.964   1.014  2.0131 -1.8537  0.1426
 3290TIP3   OH2 9875   0.469   1.807   5.077  0.4607  0.0536 -0.3359
 3290TIP3    H1 9876   0.505   1.881   5.027 -1.9389  0.1191 -2.1087
 3290TIP3    H2 9877   0.471   1.838   5.168  2.9003  0.7992 -0.5572
 3291TIP3   OH2 9878   4.121   4.053   3.314  0.5300 -0.2427 -0.0966
 3291TIP3    H1 9879   4.119   4.039   3.219  2.0941 -1.4592  0.0265
 3291TIP3    H2 9880   4.029   4.057   3.339  0.0826  0.3882 -1.6880
 3292TIP3   OH2 9881   4.268   1.883   3.002 -0.0039 -0.1833  0.6033
 3292TIP3    H1 9882   4.297   1.910   3.089  1.6581  2.0923 -0.5644
 3292TIP3    H2 9883   4.303   1.794   2.991  1.4958  0.2753  1.4925
 3293TIP3   OH2 9884   2.922   0.543   4.296  0.4035  0.1639 -0.4964
 3293TIP3    H1 9885   2.878   0.597   4.362  1.6912  0.8495 -0.1653
 3293TIP3    H2 9886   2.943   0.461   4.342  0.4198  0.2537 -0.3424
 3294TIP3   OH2 9887   2.801   2.539   0.181 -0.2434 -0.2566  0.1575
 3294TIP3    H1 9888   2.801   2.452   0.221 -0.6943 -1.5869 -2.4834
 3294TIP3    H2 9889   2.890   2.550   0.146 -0.1829  0.3663  0.4910
 3295TIP3   OH2 9890   4.098   5.002   1.967  0.0854  0.0780 -0.5663
 3295TIP3    H1 9891   4.148   5.083   1.962  0.5611 -0.1267  0.5850
 3295TIP3    H2 9892   4.054   5.006   2.052 -0.8734 -0.3160 -1.0245
 3296TIP3   OH2 9893   1.008   0.305   0.787 -0.2385 -0.1202  0.4264
 3296TIP3    H1 9894   1.068   0.244   0.743 -0.1652  0.1802  0.1022
 3296TIP3    H2 9895   0.930   0.306   0.731 -0.0040  0.5399  0.1027
 3297TIP3   OH2 9896   3.964   3.199   1.782  0.0746 -0.2242  0.0197
 3297TIP3    H1 9897   4.045   3.201   1.730  1.5224 -0.2570  2.1791
 3297TIP3    H2 9898   3.932   3.289   1.779 -0.0061 -0.2666 -1.0879
 3298TIP3   OH2 9899   4.923   5.191   1.679  0.6310  0.1681  0.6657
 3298TIP3    H1 9900   4.916   5.285   1.659  2.8809  0.3860  0.5835
 3298TIP3    H2 9901   4.992   5.186   1.745  2.9660 -1.6257 -1.6749
 3299TIP3   OH2 9902   6.131   0.509   1.902  0.3021 -0.3646 -0.0942
 3299TIP3    H1 9903   6.090   0.496   1.988  1.4952  0.1203  0.5813
 3299TIP3    H2 9904   6.225   0.499   1.919  0.6011  0.3333 -1.2350
 3300TIP3   OH2 9905   1.966   2.444   2.181  0.2380 -0.0196  0.0605
 3300TIP3    H1 9906   1.896   2.480   2.235  0.7597  1.1289 -0.0104
 3300TIP3    H2 9907   2.009   2.520   2.142  0.8607 -0.7529 -0.7410
 3301TIP3   OH2 9908   3.489   3.716   1.196  0.2293 -0.3855  0.0047
 3301TIP3    H1 9909   3.509   3.623   1.190 -0.2737 -0.5526  0.8039
 3301TIP3    H2 9910   3.561   3.753   1.247 -0.6122 -0.7124  1.4922
 3302TIP3   OH2 9911   2.085   0.666   0.100  0.1304 -0.1853  0.3029
 3302TIP3    H1 9912   1.994   0.636   0.111  0.3978 -1.4215 -0.6269
 3302TIP3    H2 9913   2.115   0.622   0.021  1.3497  0.7330  0.2241
 3303TIP3   OH2 9914   2.589   5.431   4.653  0.4430 -0.5190  0.2544
 3303TIP3    H1 9915   2.609   5.519   4.620 -0.3729 -0.2246  0.5139
 3303TIP3    H2 9916   2.589   5.375   4.575  0.8887 -0.2809  0.0795
 3304TIP3   OH2 9917   2.450   0.232   4.922 -0.2555  0.1369  0.3055
 3304TIP3    H1 9918   2.422   0.165   4.860  1.3414  1.8979 -2.5092
 3304TIP3    H2 9919   2.369   0.271   4.954 -1.1481  0.0064 -1.6922
 3305TIP3   OH2 9920   4.488   5.123   2.980 -0.0709  0.1306 -0.6403
 3305TIP3    H1 9921   4.519   5.198   3.030 -0.6441 -0.4735  0.6782
 3305TIP3    H2 9922   4.567   5.084   2.942  0.6727 -0.6110  1.5534
 3306TIP3   OH2 9923   2.647   4.778   1.100 -0.1960  0.2310 -0.1469
 3306TIP3    H1 9924   2.610   4.730   1.174 -1.1702  0.0049 -0.7604
 3306TIP3    H2 9925   2.619   4.729   1.023  0.7628  0.4911 -0.6776
 3307TIP3   OH2 9926   1.066   0.334   3.663  0.2499 -0.4054  0.3389
 3307TIP3    H1 9927   1.148   0.309   3.621 -0.5728 -1.8625 -0.4662
 3307TIP3    H2 9928   1.049   0.265   3.727 -2.0868 -2.1750 -1.9617
 3308TIP3   OH2 9929   1.959   2.170   4.415  0.7788  0.2116 -0.2685
 3308TIP3    H1 9930   1.975   2.184   4.508  0.4128  0.1550 -0.1999
 3308TIP3    H2 9931   2.047   2.162   4.377  0.9607  1.1529 -0.0756
 3309TIP3   OH2 9932   2.123   2.849   0.053 -0.5012  0.8032 -0.3396
 3309TIP3    H1 9933   2.067   2.777   0.083 -0.8969  1.2580  0.0321
 3309TIP3    H2 9934   2.077   2.884  -0.024 -1.4939  2.0832  0.7896
 3310TIP3   OH2 9935   1.576   4.880   1.638 -0.3333  0.2419 -0.0385
 3310TIP3    H1 9936   1.524   4.823   1.582 -1.0049  0.4149  0.4077
 3310TIP3    H2 9937   1.641   4.823   1.678 -0.0423  0.0613 -0.7534
 3311TIP3   OH2 9938   4.075   4.236   2.729 -0.0649 -0.2647 -0.6345
 3311TIP3    H1 9939   4.137   4.177   2.686 -0.3484  0.0690 -1.5100
 3311TIP3    H2 9940   4.114   4.323   2.722 -0.3286 -0.1442 -0.6181
 3312TIP3   OH2 9941   6.276   4.825   5.104  0.4389  0.0273 -0.1773
 3312TIP3    H1 9942   6.245   4.806   5.015  3.2500  1.3123 -1.5540
 3312TIP3    H2 9943   6.245   4.914   5.122 -0.4907 -0.3863  0.3563
 3313TIP3   OH2 9944   3.472   0.842   5.017 -0.0275  0.2757  0.3388
 3313TIP3    H1 9945   3.387   0.800   5.004 -0.5602  1.1118  1.0402
 3313TIP3    H2 9946   3.535   0.770   5.011 -1.0398 -1.0601  3.3997
 3314TIP3   OH2 9947   0.129   5.120   3.973  0.1083 -0.4244  0.5298
 3314TIP3    H1 9948   0.117   5.212   4.000  3.6967  0.0537  0.9656
 3314TIP3    H2 9949   0.114   5.121   3.878 -2.0054  0.0990  0.8155
 3315TIP3   OH2 9950   5.710   4.058   4.038  0.3028 -0.3792 -0.4848
 3315TIP3    H1 9951   5.806   4.059   4.041  0.2994 -0.7644 -0.1390
 3315TIP3    H2 9952   5.685   4.149   4.022  0.6815  0.0331  1.0570
 3316TIP3   OH2 9953   5.968   4.087   1.931 -0.0469  0.0084 -0.2881
 3316TIP3    H1 9954   6.024   4.011   1.945 -0.2527 -0.2049 -0.6057
 3316TIP3    H2 9955   5.900   4.080   1.999 -0.5071 -0.5138 -0.7970
 3317TIP3   OH2 9956   5.227   0.298   0.687 -0.2408  0.0666  0.5568
 3317TIP3    H1 9957   5.273   0.276   0.768  0.1593  1.8652  0.8669
 3317TIP3    H2 9958   5.296   0.324   0.626 -0.6204 -0.2572 -0.0188
 3318TIP3   OH2 9959   4.377   5.914   2.632 -0.3020  0.0653  0.5974
 3318TIP3    H1 9960   4.451   5.857   2.654 -1.4492 -1.7568 -0.0593
 3318TIP3    H2 9961   4.300   5.864   2.658 -1.5511 -0.3094 -3.2221
 3319TIP3   OH2 9962   3.251   5.741   0.994 -0.4710 -0.0449  0.3092
 3319TIP3    H1 9963   3.317   5.723   0.926 -1.3900  1.0088 -0.9078
 3319TIP3    H2 9964   3.172   5.697   0.963 -1.2210  1.4238  0.0780
 3320TIP3   OH2 9965   1.919   2.952   4.140 -0.1111  0.5297  0.4054
 3320TIP3    H1 9966   1.901   2.861   4.162  0.5636  0.3971  0.4353
 3320TIP3    H2 9967   1.836   2.997   4.155 -0.9497 -0.3707 -1.3270
 3321TIP3   OH2 9968   3.609   3.353   3.266 -0.6722  0.3460  0.3520
 3321TIP3    H1 9969   3.523   3.372   3.228 -0.7202 -0.3767  0.0772
 3321TIP3    H2 9970   3.671   3.369   3.195 -0.7664 -1.0546 -0.0671
 3322TIP3   OH2 9971   4.710   5.061   3.872  0.2691 -0.2867 -0.0448
 3322TIP3    H1 9972   4.718   5.038   3.780 -2.5651  1.1880 -0.7849
 3322TIP3    H2 9973   4.731   4.980   3.919  1.6936 -1.0995 -1.9409
 3323TIP3   OH2 9974   0.757   2.963   1.046  0.5141  0.6809  0.6494
 3323TIP3    H1 9975   0.689   2.963   0.979 -0.6569  0.8901  1.7785
 3323TIP3    H2 9976   0.791   3.053   1.046 -0.0061  0.8823  0.8227
 3324TIP3   OH2 9977   1.109   5.680   0.424 -0.3358  0.2758 -1.0603
 3324TIP3    H1 9978   1.123   5.773   0.440  0.6983 -0.0748  0.2097
 3324TIP3    H2 9979   1.040   5.678   0.358 -1.1382  1.9260 -0.3426
 3325TIP3   OH2 9980   5.470   5.414   4.871 -0.0645  0.5467  0.1907
 3325TIP3    H1 9981   5.449   5.323   4.850 -0.2240  0.7212 -0.4374
 3325TIP3    H2 9982   5.394   5.463   4.839  0.1542  0.9284  0.2544
 3326TIP3   OH2 9983   1.696   2.182   4.607  0.1335  0.5336  0.2754
 3326TIP3    H1 9984   1.702   2.185   4.702 -1.0225 -0.1367  0.3837
 3326TIP3    H2 9985   1.701   2.274   4.579  2.3557  0.6367  0.8177
 3327TIP3   OH2 9986   3.890   1.809   3.909  0.4304  0.3932 -0.4930
 3327TIP3    H1 9987   3.967   1.803   3.852  2.0186  0.5543  1.4977
 3327TIP3    H2 9988   3.890   1.726   3.957 -0.5217  0.4875 -0.3170
 3328TIP3   OH2 9989   2.034   0.930   2.426  0.4624  0.0068 -0.1571
 3328TIP3    H1 9990   1.996   0.939   2.513 -1.6262 -0.2026 -0.9897
 3328TIP3    H2 9991   2.079   1.013   2.410  0.0317  0.4113  0.7340
 3329TIP3   OH2 9992   5.055   2.595   0.595  0.2671  0.0404  0.3634
 3329TIP3    H1 9993   4.990   2.533   0.562  1.7792 -0.5369 -1.7231
 3329TIP3    H2 9994   5.117   2.541   0.644  1.0104  0.0225 -0.5656
 3330TIP3   OH2 9995   1.783   0.087   1.650 -0.2168 -0.4371  0.4969
 3330TIP3    H1 9996   1.736   0.098   1.732 -1.1678 -1.3125  0.0864
 3330TIP3    H2 9997   1.735   0.019   1.603  1.0636 -0.8794 -0.2320
 3331TIP3   OH2 9998   5.217   3.960   3.205  0.9509  0.1518  0.2623
 3331TIP3    H1 9999   5.261   4.012   3.138  0.2128  0.0417 -0.3172
 3331TIP3    H210000   5.174   3.890   3.157 -0.2207  0.5062  0.7659
 3332TIP3   OH210001   4.596   0.142   0.241 -0.6579  0.4433 -0.5129
 3332TIP3    H110002   4.638   0.123   0.157 -0.7007  2.7021 -1.1252
 3332TIP3    H210003   4.666   0.133   0.305  0.0211  1.1150 -1.1320
 3333TIP3   OH210004   3.504   3.038   1.080  0.1140  0.4665  0.4285
 3333TIP3    H110005   3.503   3.012   0.988  0.5894 -1.7896  0.9794
 3333TIP3    H210006   3.590   3.078   1.093  0.5140 -0.2723  0.1300
 3334TIP3   OH210007   1.890   0.637   3.973 -0.0429 -0.0606  0.3172
 3334TIP3    H110008   1.954   0.703   3.997  0.1165 -0.5725  1.3629
 3334TIP3    H210009   1.814   0.656   4.029 -0.7031  0.3745 -0.7101
 3335TIP3   OH210010   3.333   1.343   4.202 -0.0224  0.4891  0.4346
 3335TIP3    H110011   3.315   1.435   4.220 -1.7477  0.5258 -1.1562
 3335TIP3    H210012   3.357   1.341   4.109  0.0693 -0.6462  0.4724
 3336TIP3   OH210013   1.935   1.797   4.836  0.9056 -0.3379  0.3781
 3336TIP3    H110014   1.901   1.846   4.762 -0.9845 -0.8675  0.8342
 3336TIP3    H210015   1.864   1.798   4.900  1.3582 -2.3729  0.9969
 3337TIP3   OH210016   2.654   3.216   1.678  0.1105  0.4926  0.2631
 3337TIP3    H110017   2.681   3.148   1.740 -0.9159 -0.0242  0.1710
 3337TIP3    H210018   2.569   3.186   1.646  1.0041  0.3074 -2.0866
 3338TIP3   OH210019   1.270   5.265   4.402 -0.4324  0.6559 -0.1713
 3338TIP3    H110020   1.291   5.183   4.358 -0.8263  0.1719  0.5304
 3338TIP3    H210021   1.346   5.321   4.386 -0.0709  0.0796 -0.4754
 3339TIP3   OH210022   4.452   1.639   3.794  0.0589  0.2644  0.0919
 3339TIP3    H110023   4.488   1.595   3.870 -0.8683 -1.2587 -0.3025
 3339TIP3    H210024   4.525   1.690   3.759  1.0090 -0.4629  0.9382
 3340TIP3   OH210025   2.816   1.742   0.531 -0.5074 -0.2461  0.5059
 3340TIP3    H110026   2.771   1.727   0.614 -1.1656 -1.5686 -0.0683
 3340TIP3    H210027   2.826   1.655   0.493 -1.7767  0.4575 -1.6141
 3341TIP3   OH210028   4.364   1.289   2.014 -0.3648  0.3771 -0.2576
 3341TIP3    H110029   4.312   1.209   2.015 -0.5276  0.4744  1.1392
 3341TIP3    H210030   4.449   1.263   2.050 -0.1082  0.6381 -0.6656
 3342TIP3   OH210031   0.657   4.815   2.315 -0.1786  0.0686 -0.2381
 3342TIP3    H110032   0.715   4.836   2.389 -0.0319  3.4372 -1.1146
 3342TIP3    H210033   0.699   4.857   2.240 -0.0575 -3.6304 -2.4761
 3343TIP3   OH210034   3.595   5.309   2.357  0.0634 -0.5585 -0.4496
 3343TIP3    H110035   3.650   5.266   2.291 -0.3583  0.0398 -1.1993
 3343TIP3    H210036   3.655   5.326   2.429  0.8790  0.0677 -1.2524
 3344TIP3   OH210037   4.571   2.666   3.638 -0.1091 -0.5655 -0.2333
 3344TIP3    H110038   4.604   2.720   3.566  1.5654  0.4044  1.1598
 3344TIP3    H210039   4.495   2.714   3.670 -0.1588 -0.3828 -0.6185
 3345TIP3   OH210040   3.617   5.003   4.439  0.0589 -0.0938 -0.6054
 3345TIP3    H110041   3.532   5.024   4.400 -0.7036 -3.1586 -0.8694
 3345TIP3    H210042   3.596   4.969   4.526  1.1289  0.2591 -0.1986
 3346TIP3   OH210043   3.425   2.892   3.011  0.4044  0.3079 -0.4191
 3346TIP3    H110044   3.489   2.915   2.944 -0.1372 -0.1426 -1.0987
 3346TIP3    H210045   3.477   2.850   3.080  0.6010 -2.4012 -2.0573
 3347TIP3   OH210046   4.594   4.043   0.141  0.0497 -0.3111  0.1436
 3347TIP3    H110047   4.559   4.073   0.225 -1.9239 -1.4169 -0.2398
 3347TIP3    H210048   4.563   4.107   0.077  2.5272  1.2045  0.3153
 3348TIP3   OH210049   2.201   2.241   3.548 -0.2663 -0.6595  0.1878
 3348TIP3    H110050   2.213   2.326   3.506 -2.5617 -0.0898  0.5604
 3348TIP3    H210051   2.124   2.203   3.504 -0.7639 -1.4575  1.6715
 3349TIP3   OH210052   3.558   5.605   2.515 -0.2206  0.3296  0.0535
 3349TIP3    H110053   3.472   5.583   2.551 -0.7116 -0.9890 -1.7411
 3349TIP3    H210054   3.620   5.580   2.583 -1.1233 -1.6781  0.2126
 3350TIP3   OH210055   0.905   3.087   4.006 -0.0505 -0.4243  0.0866
 3350TIP3    H110056   0.993   3.124   4.002  0.3931 -1.4470  0.0309
 3350TIP3    H210057   0.908   3.024   4.078 -0.6833 -0.6014 -0.0326
 3351TIP3   OH210058   2.112   0.270   0.455 -0.0859  0.7291 -0.2706
 3351TIP3    H110059   2.142   0.179   0.461  0.0529  0.6415 -1.8346
 3351TIP3    H210060   2.108   0.300   0.546  1.0895 -0.4374  0.2000
 3352TIP3   OH210061   2.354   2.991   3.732 -0.6089  0.1214 -0.0445
 3352TIP3    H110062   2.436   2.983   3.781 -0.1121  0.0179 -0.8689
 3352TIP3    H210063   2.371   3.064   3.672 -1.2989  0.4084  0.1040
 3353TIP3   OH210064   3.199   3.894   3.124  0.2698 -0.1241  0.4447
 3353TIP3    H110065   3.180   3.879   3.216  1.1908 -1.6838  0.4248
 3353TIP3    H210066   3.207   3.806   3.087 -2.4020  0.3828 -1.6728
 3354TIP3   OH210067   1.602   1.782   1.595  0.0298  0.3374 -0.1828
 3354TIP3    H110068   1.635   1.819   1.513  0.9098 -0.6223 -0.2912
 3354TIP3    H210069   1.649   1.699   1.604 -1.1847 -0.3001  0.5265
 3355TIP3   OH210070   1.519   2.874   2.189  0.1716  0.3201  0.1357
 3355TIP3    H110071   1.593   2.925   2.155  0.3110 -0.7771 -1.3148
 3355TIP3    H210072   1.495   2.918   2.271  0.9706  2.0551 -0.5042
 3356TIP3   OH210073   1.838   1.030   3.048 -0.2976 -0.2335  0.2379
 3356TIP3    H110074   1.757   0.981   3.039 -1.3855  1.2921  1.1964
 3356TIP3    H210075   1.821   1.113   3.003 -0.0052  0.8631  2.0281
 3357TIP3   OH210076   5.905   0.444   3.250 -0.0758 -0.1851  0.0528
 3357TIP3    H110077   5.824   0.444   3.198  0.0556  0.2852 -0.1548
 3357TIP3    H210078   5.881   0.401   3.332 -0.6837  0.4708  0.2270
 3358TIP3   OH210079   3.648   3.433   2.117 -0.9987 -0.8003 -0.0396
 3358TIP3    H110080   3.738   3.421   2.148 -0.9889  0.6491  0.5751
 3358TIP3    H210081   3.593   3.415   2.193 -1.1640 -0.5030 -0.0862
 3359TIP3   OH210082   1.878   2.780   2.962  0.0579  0.3988 -0.4974
 3359TIP3    H110083   1.800   2.756   2.912 -0.7024  0.9124  0.3989
 3359TIP3    H210084   1.913   2.697   2.994 -1.0145  0.2502  0.3627
 3360TIP3   OH210085   2.793   1.027   2.229 -0.5360  0.2288 -0.8969
 3360TIP3    H110086   2.717   0.970   2.215 -0.1679 -0.1153 -1.5882
 3360TIP3    H210087   2.862   0.968   2.259 -0.5093  0.5202 -0.3862
 3361TIP3   OH210088   1.682   0.827   4.130 -0.1927  0.1972 -0.4533
 3361TIP3    H110089   1.734   0.787   4.200  0.0291 -1.6202 -1.5935
 3361TIP3    H210090   1.596   0.841   4.170 -0.0067 -0.5937  0.2770
 3362TIP3   OH210091   5.061   5.325   3.000 -0.1290  0.4775 -0.1303
 3362TIP3    H110092   5.045   5.399   3.059 -0.1406  0.5479 -0.2223
 3362TIP3    H210093   5.010   5.345   2.922 -0.7780 -0.0137  0.1549
 3363TIP3   OH210094   1.973   1.578   1.772 -0.3758  0.1156 -0.4523
 3363TIP3    H110095   2.051   1.529   1.796 -0.4026 -0.2929 -1.1630
 3363TIP3    H210096   1.981   1.592   1.678 -2.1870 -1.8190 -0.9761
 3364TIP3   OH210097   1.739   5.273   3.086  0.3903  0.4906 -0.0589
 3364TIP3    H110098   1.678   5.231   3.026  0.2904  0.0170  0.3738
 3364TIP3    H210099   1.826   5.247   3.055  0.3116 -2.0521  1.6108
 3365TIP3   OH210100   1.589   2.089   2.837  0.4869  0.3427 -0.2299
 3365TIP3    H110101   1.633   2.173   2.826  0.3024  0.2625 -1.8303
 3365TIP3    H210102   1.605   2.042   2.755  0.2741 -1.0425  0.4874
 3366TIP3   OH210103   2.831   0.141   4.870 -0.2278 -0.5938  0.1703
 3366TIP3    H110104   2.844   0.196   4.947 -0.1135 -2.2311  1.3688
 3366TIP3    H210105   2.744   0.103   4.882  0.1205 -1.5063 -0.0702
 3367TIP3   OH210106   0.412   1.855   0.982  0.1615  0.3031 -0.0480
 3367TIP3    H110107   0.504   1.865   0.955  0.5206  1.5386  1.4705
 3367TIP3    H210108   0.393   1.935   1.032 -1.2636 -0.6406  1.0021
 3368TIP3   OH210109   1.821   4.074   0.660 -0.4402 -0.3111 -0.3352
 3368TIP3    H110110   1.826   3.994   0.713  0.1309 -0.5935 -0.8035
 3368TIP3    H210111   1.767   4.133   0.712  0.6914 -0.3212  0.9249
 3369TIP3   OH210112   0.783   0.614   4.959 -0.0820  0.5957  0.5738
 3369TIP3    H110113   0.755   0.556   5.030  0.2918 -0.0263  0.2316
 3369TIP3    H210114   0.720   0.685   4.959 -1.7322 -0.7721 -0.1850
 3370TIP3   OH210115   0.776   4.819   0.004 -0.0110  0.1898 -0.2956
 3370TIP3    H110116   0.696   4.825   0.057 -1.0866  0.3193 -1.8543
 3370TIP3    H210117   0.842   4.782   0.063 -0.9765  0.9010  1.2920
 3371TIP3   OH210118   4.634   4.711   0.955  0.3665 -0.5815 -0.5225
 3371TIP3    H110119   4.615   4.711   0.861  2.4447 -1.6389 -0.9890
 3371TIP3    H210120   4.722   4.747   0.962  0.3755 -0.8265  1.0001
 3372TIP3   OH210121   5.135   4.839   2.936  0.2909  0.0042  0.3509
 3372TIP3    H110122   5.209   4.847   2.996  0.4316 -0.2063  0.2085
 3372TIP3    H210123   5.173   4.855   2.849 -0.1024  1.3715  0.4050
 3373TIP3   OH210124   4.092   3.271   1.541  0.4741 -0.0570 -0.9879
 3373TIP3    H110125   4.022   3.208   1.527 -0.6783 -0.0520  3.3638
 3373TIP3    H210126   4.054   3.355   1.514 -0.3671 -0.3669 -0.7982
 3374TIP3   OH210127   4.617   5.902   1.099  0.3082 -0.0654 -0.8877
 3374TIP3    H110128   4.638   5.945   1.016 -1.9925  0.8363 -1.0953
 3374TIP3    H210129   4.526   5.874   1.089 -0.3723  0.9381  1.6508
 3375TIP3   OH210130   1.175   3.445   3.718  0.1067 -0.5276  0.1081
 3375TIP3    H110131   1.225   3.371   3.683 -0.6854 -0.8820 -0.2748
 3375TIP3    H210132   1.084   3.419   3.709 -0.1611  0.2395  0.5534
 3376TIP3   OH210133   2.370   3.806   4.155 -0.3108 -0.3979 -0.2307
 3376TIP3    H110134   2.412   3.809   4.241  0.6006 -2.4792 -0.5374
 3376TIP3    H210135   2.437   3.769   4.098 -1.6899 -1.2833 -1.3199
 3377TIP3   OH210136   0.207   4.756   2.607  0.2727 -0.3432 -0.2431
 3377TIP3    H110137   0.156   4.790   2.533  0.1687 -0.6184 -0.3017
 3377TIP3    H210138   0.290   4.803   2.604  0.6275 -1.0051 -1.0846
 3378TIP3   OH210139   5.182   5.256   2.703  0.1571 -0.2535 -0.2173
 3378TIP3    H110140   5.218   5.305   2.777 -0.1974 -0.6153  0.2047
 3378TIP3    H210141   5.225   5.293   2.626  2.5686 -1.6758  0.3532
 3379TIP3   OH210142   4.481   1.612   1.080 -0.4009  0.0980  0.1787
 3379TIP3    H110143   4.573   1.633   1.064 -0.3727 -0.1987 -0.0489
 3379TIP3    H210144   4.483   1.544   1.147 -0.2959 -2.2000 -2.0123
 3380TIP3   OH210145   3.035   1.631   0.917  0.4890  0.1234  0.3981
 3380TIP3    H110146   2.949   1.592   0.932  0.2030  0.4548 -0.3514
 3380TIP3    H210147   3.020   1.699   0.851  1.0795  1.1334  1.2751
 3381TIP3   OH210148   4.976   0.889   3.318  0.5357 -0.9326 -0.1374
 3381TIP3    H110149   4.945   0.965   3.368 -0.7541 -0.4173 -1.6456
 3381TIP3    H210150   5.057   0.863   3.362 -0.1911 -0.1036  1.7943
 3382TIP3   OH210151   0.913   2.045   1.258 -0.2002  0.1895 -1.0184
 3382TIP3    H110152   0.980   2.088   1.205  0.0883  2.1425  0.8057
 3382TIP3    H210153   0.957   1.966   1.291  1.8384  2.1180  1.2640
 3383TIP3   OH210154   4.667   0.876   1.527  0.0565 -0.3480 -0.6055
 3383TIP3    H110155   4.699   0.826   1.451  0.9995  1.5753 -1.5415
 3383TIP3    H210156   4.593   0.926   1.493  1.2424  1.4647 -0.6311
 3384TIP3   OH210157   0.192   5.096   3.235 -0.3412  0.1319 -0.2177
 3384TIP3    H110158   0.133   5.102   3.309  1.2841  0.1864  1.1373
 3384TIP3    H210159   0.273   5.059   3.271  1.0717  1.6953 -1.5662
 3385TIP3   OH210160   4.395   0.034   1.933  0.4192  0.4708 -0.2139
 3385TIP3    H110161   4.455   0.035   2.007 -0.6338  1.5536  0.6720
 3385TIP3    H210162   4.314   0.072   1.967 -0.4719 -0.0754 -1.6151
 3386TIP3   OH210163   1.576   5.696   1.367 -0.0688 -0.4917 -0.2139
 3386TIP3    H110164   1.666   5.677   1.395 -0.1924  1.7680  2.0673
 3386TIP3    H210165   1.534   5.734   1.444 -2.6680 -0.4107 -1.5537
 3387TIP3   OH210166   2.169   5.686   2.930 -0.0036 -0.0389 -0.1391
 3387TIP3    H110167   2.112   5.749   2.886  0.4271  0.3150 -0.1868
 3387TIP3    H210168   2.108   5.631   2.980 -0.4373 -0.0219 -0.6343
 3388TIP3   OH210169   1.157   5.096   0.599 -0.5138 -0.3056  0.3019
 3388TIP3    H110170   1.176   5.188   0.583  0.7887 -0.6710 -0.4437
 3388TIP3    H210171   1.217   5.049   0.541 -0.9289 -1.6276  0.8986
 3389TIP3   OH210172   4.992   4.226   3.253  0.6790 -0.3799 -0.0640
 3389TIP3    H110173   4.947   4.302   3.215 -0.8313 -1.3110 -0.2300
 3389TIP3    H210174   4.923   4.179   3.300  1.7530 -1.2270  0.6977
 3390TIP3   OH210175   3.279   3.187   1.233 -0.0019  0.4328  0.0461
 3390TIP3    H110176   3.198   3.189   1.182  0.0355 -1.4870 -0.1524
 3390TIP3    H210177   3.346   3.155   1.172  0.4323 -0.0794  0.7671
 3391TIP3   OH210178   4.060   5.465   0.676 -0.4328 -0.2012  0.3166
 3391TIP3    H110179   3.986   5.525   0.681 -0.7974 -0.5978 -0.2943
 3391TIP3    H210180   4.021   5.378   0.673  0.0639 -0.4218  0.0895
 3392TIP3   OH210181   0.641   1.638   3.967 -0.2050 -0.1054  0.1005
 3392TIP3    H110182   0.703   1.654   4.038 -0.8830 -2.4972  1.3488
 3392TIP3    H210183   0.696   1.618   3.891  0.5572  0.1122  0.5853
 3393TIP3   OH210184   2.082   2.236   1.897  0.2137 -0.3056 -0.4986
 3393TIP3    H110185   2.143   2.165   1.917 -0.5182 -0.9321 -0.4480
 3393TIP3    H210186   2.015   2.230   1.965  1.0738  1.5817  0.6125
 3394TIP3   OH210187   1.676   1.946   0.627  0.3074 -0.6464 -0.2115
 3394TIP3    H110188   1.595   1.954   0.575  0.7173 -1.3607 -0.9995
 3394TIP3    H210189   1.720   1.869   0.590  1.7130  0.1657 -0.2950
 3395TIP3   OH210190   3.849   5.320   2.830 -0.3267  0.8132  0.3475
 3395TIP3    H110191   3.887   5.271   2.902 -0.4299 -0.9749 -0.7476
 3395TIP3    H210192   3.758   5.336   2.857  0.2334  2.1994  1.5502
 3396TIP3   OH210193   4.157   0.263   1.688 -0.2105 -0.2435  0.1811
 3396TIP3    H110194   4.085   0.302   1.738 -0.2538  0.7120 -0.6235
 3396TIP3    H210195   4.117   0.187   1.645 -0.9800  0.8010 -0.9938
 3397TIP3   OH210196   5.740   0.497   0.648 -0.3173  0.2087  0.0751
 3397TIP3    H110197   5.749   0.432   0.578  0.3594 -0.0021  0.3490
 3397TIP3    H210198   5.796   0.465   0.718 -1.4477  0.1126  0.9589
 3398TIP3   OH210199   2.976   4.163   1.874  0.0545 -0.2382 -0.2474
 3398TIP3    H110200   2.964   4.228   1.804 -0.5689 -1.3819 -1.2525
 3398TIP3    H210201   2.975   4.078   1.828  1.2771 -0.9523  0.9692
 3399TIP3   OH210202   4.249   4.712   3.860  0.8411  0.3873 -0.1584
 3399TIP3    H110203   4.291   4.787   3.818  1.4598  1.3923  2.1246
 3399TIP3    H210204   4.174   4.749   3.906  1.4952 -0.2544  1.4892
 3400TIP3   OH210205   0.816   3.824   0.771 -0.4050 -0.1863 -0.1258
 3400TIP3    H110206   0.844   3.735   0.791 -1.2462 -0.0063  2.1650
 3400TIP3    H210207   0.725   3.814   0.742  0.9021 -0.4999 -5.0267
 3401TIP3   OH210208   5.892   3.513   3.042  0.0386 -0.2887 -0.0268
 3401TIP3    H110209   5.831   3.468   3.101 -1.5139  0.4699 -0.9770
 3401TIP3    H210210   5.855   3.601   3.032  1.2909  0.1878 -0.6486
 3402TIP3   OH210211   2.113   1.946   2.227  0.5835  0.2781 -0.0795
 3402TIP3    H110212   2.058   1.868   2.224 -0.5762  1.0730 -0.3414
 3402TIP3    H210213   2.051   2.019   2.233  1.6300  1.1895  0.0558
 3403TIP3   OH210214   2.714   2.936   3.177  0.1421 -0.1099 -0.3614
 3403TIP3    H110215   2.748   2.856   3.217  3.9795  0.0369 -2.8138
 3403TIP3    H210216   2.643   2.905   3.119  0.6175 -1.5498 -0.2232
 3404TIP3   OH210217   3.458   2.790   4.567  0.5271 -0.8453  0.4713
 3404TIP3    H110218   3.425   2.704   4.589  0.5448 -1.2480 -1.0254
 3404TIP3    H210219   3.436   2.844   4.643  0.6315 -2.1741  1.4847
 3405TIP3   OH210220   0.528   1.480   4.766 -0.0272 -0.1479  0.4175
 3405TIP3    H110221   0.464   1.435   4.711 -0.1177 -0.8617  1.0814
 3405TIP3    H210222   0.612   1.440   4.742  0.9050  3.4117 -3.2740
 3406TIP3   OH210223   3.518   2.829   3.929 -0.1368  0.2583 -0.0817
 3406TIP3    H110224   3.519   2.808   4.023 -1.4145 -0.0935 -0.1282
 3406TIP3    H210225   3.428   2.812   3.902 -0.6176  3.2720 -0.7098
 3407TIP3   OH210226   4.031   3.024   4.260 -0.4689  0.3083  0.2365
 3407TIP3    H110227   4.109   2.986   4.299 -1.5196 -0.3417  1.8116
 3407TIP3    H210228   4.013   2.968   4.184 -0.5098 -0.7837  1.0256
 3408TIP3   OH210229   0.816   1.484   4.769 -0.3742  0.0465 -0.0183
 3408TIP3    H110230   0.841   1.548   4.836 -0.2379  0.7935 -0.7671
 3408TIP3    H210231   0.769   1.416   4.817 -2.9005  1.9787  0.4818
 3409TIP3   OH210232   0.236   0.292   1.279 -0.1920  0.1830  0.1471
 3409TIP3    H110233   0.267   0.313   1.367  2.4475 -1.0603 -0.3895
 3409TIP3    H210234   0.220   0.376   1.237  0.0631  0.8127  1.2927
 3410TIP3   OH210235   2.184   5.412   2.666  0.2564 -0.3420 -0.0971
 3410TIP3    H110236   2.094   5.420   2.637  0.2435  0.5261  0.1378
 3410TIP3    H210237   2.214   5.328   2.632 -0.9179 -1.0646  0.6157
 3411TIP3   OH210238   2.687   1.255   2.366 -0.0431  0.0005  0.4318
 3411TIP3    H110239   2.705   1.190   2.298 -0.7942 -0.5488  0.7467
 3411TIP3    H210240   2.772   1.293   2.386  0.2103  0.0802 -0.7247
 3412TIP3   OH210241   1.334   3.077   3.818 -0.5319 -0.3837 -0.4065
 3412TIP3    H110242   1.350   3.033   3.902  0.9860 -0.2724 -0.6075
 3412TIP3    H210243   1.397   3.038   3.758 -1.5615 -0.4180 -1.5079
 3413TIP3   OH210244   1.974   2.961   1.321 -0.5984 -0.2226 -0.4094
 3413TIP3    H110245   1.900   2.955   1.260 -1.0925  0.4129  0.1102
 3413TIP3    H210246   1.970   2.881   1.372 -0.3548 -0.6252 -1.0128
 3414TIP3   OH210247   1.267   1.365   4.554  0.3129 -0.3714  0.0711
 3414TIP3    H110248   1.192   1.412   4.519  1.1034  0.5344 -0.4446
 3414TIP3    H210249   1.229   1.289   4.599 -0.8815 -0.0724 -0.4025
 3415TIP3   OH210250   6.126   3.968   4.682  0.1692  0.0107  0.8751
 3415TIP3    H110251   6.198   3.914   4.715 -1.4313 -0.8980  3.1602
 3415TIP3    H210252   6.084   3.913   4.615  0.3547 -0.3458  1.0464
 3416TIP3   OH210253   4.454   4.783   1.989 -0.3770 -0.1628  0.3365
 3416TIP3    H110254   4.363   4.759   2.004 -0.2729  0.4751  2.2267
 3416TIP3    H210255   4.450   4.870   1.949 -0.6083 -0.0445  0.6131
 3417TIP3   OH210256   1.524   0.302   3.502  1.0649 -0.3668 -0.1311
 3417TIP3    H110257   1.564   0.387   3.483  2.4673 -0.6343  1.3835
 3417TIP3    H210258   1.540   0.250   3.423  2.1488  0.1103 -0.2519
 3418TIP3   OH210259   0.298   4.988   5.005 -0.1014  0.1423 -0.0726
 3418TIP3    H110260   0.240   4.912   5.002  0.4420 -0.3594  1.2808
 3418TIP3    H210261   0.385   4.952   4.993  0.2041  0.4692  1.0207
 3419TIP3   OH210262   1.516   5.798   2.067 -0.1054 -0.3150  0.0964
 3419TIP3    H110263   1.589   5.751   2.026  0.1394 -0.4308  0.6543
 3419TIP3    H210264   1.462   5.828   1.993  0.4137 -0.3767 -0.3143
 3420TIP3   OH210265   5.195   2.607   4.155  0.0291  0.3103  0.0942
 3420TIP3    H110266   5.113   2.649   4.130 -0.6711 -0.9834  0.1265
 3420TIP3    H210267   5.202   2.621   4.249  0.0783  0.8176  0.0145
 3421TIP3   OH210268   0.848   4.076   3.414 -0.1050  0.6392 -0.0672
 3421TIP3    H110269   0.874   4.050   3.326 -0.3914 -3.2228  0.8102
 3421TIP3    H210270   0.929   4.072   3.465 -0.4036  0.0529  0.3751
 3422TIP3   OH210271   2.533   0.366   1.047 -0.7069 -0.4855 -1.2942
 3422TIP3    H110272   2.468   0.436   1.045 -1.9164 -1.3303  1.8362
 3422TIP3    H210273   2.486   0.289   1.016 -0.7398 -0.7416 -0.6417
 3423TIP3   OH210274   5.557   3.920   4.231 -0.1952 -0.0219 -0.5954
 3423TIP3    H110275   5.467   3.911   4.202 -0.3784  1.5383 -0.5679
 3423TIP3    H210276   5.604   3.954   4.155 -0.2990  2.2385  0.2567
 3424TIP3   OH210277   2.194   1.730   3.164  0.0099  0.0468  0.0492
 3424TIP3    H110278   2.278   1.684   3.159 -0.4688 -0.8371  0.1036
 3424TIP3    H210279   2.134   1.667   3.203 -1.2088 -0.0818 -1.9410
 3425TIP3   OH210280   0.765   0.495   2.865 -0.0831 -0.6251  0.6593
 3425TIP3    H110281   0.740   0.566   2.924  0.1356 -1.0833  1.3126
 3425TIP3    H210282   0.847   0.461   2.901 -0.7669 -1.9567  1.0122
 3426TIP3   OH210283   6.190   4.703   1.605  0.0105  0.3694  0.0121
 3426TIP3    H110284   6.229   4.785   1.574  1.0727 -0.4714 -0.9587
 3426TIP3    H210285   6.117   4.687   1.545 -1.3282  1.4669  1.2686
 3427TIP3   OH210286   3.342   3.906   1.815 -0.0196  0.3727 -0.0334
 3427TIP3    H110287   3.312   3.926   1.904  0.6911 -0.3465  0.3827
 3427TIP3    H210288   3.276   3.947   1.758 -1.0628 -0.0390  0.8263
 3428TIP3   OH210289   4.078   1.199   1.064  0.3753 -0.2278 -0.2824
 3428TIP3    H110290   4.115   1.268   1.119 -0.9041  0.2160  0.0578
 3428TIP3    H210291   4.139   1.126   1.074  2.7012  1.3058 -1.9340
 3429TIP3   OH210292   3.102   1.994   0.407 -0.6496 -0.0097  0.5797
 3429TIP3    H110293   3.032   2.029   0.463  1.2586  1.2341  2.3200
 3429TIP3    H210294   3.158   2.069   0.387  0.8229 -1.1482  0.2337
 3430TIP3   OH210295   1.759   0.758   3.703  0.3592 -1.0921 -0.1745
 3430TIP3    H110296   1.827   0.705   3.744 -0.3163 -1.1627  0.8781
 3430TIP3    H210297   1.749   0.833   3.761  1.8798  0.6891 -2.0410
 3431TIP3   OH210298   1.317   5.235   2.571 -0.3589 -0.0806  0.4643
 3431TIP3    H110299   1.293   5.194   2.654 -0.7589  0.3672  0.5795
 3431TIP3    H210300   1.404   5.202   2.552  0.1487  0.5672  1.5638
 3432TIP3   OH210301   2.891   3.019   0.410 -0.7308 -0.0087 -0.7011
 3432TIP3    H110302   2.860   3.034   0.500 -0.5728  0.6922 -0.7585
 3432TIP3    H210303   2.970   2.966   0.420 -0.2755  0.7239 -0.3755
 3433TIP3   OH210304   4.539   4.138   2.847  0.0524 -0.2121 -0.0402
 3433TIP3    H110305   4.549   4.129   2.942 -0.9737  0.0997  0.1152
 3433TIP3    H210306   4.617   4.185   2.819 -0.2000  0.7890  0.8471
 3434TIP3   OH210307   4.911   4.886   0.028 -0.0993  0.2419  0.1968
 3434TIP3    H110308   4.929   4.979   0.043  2.3183  0.0930 -1.2426
 3434TIP3    H210309   4.816   4.881   0.023 -0.2947  2.7319 -0.2521
 3435TIP3   OH210310   2.493   2.485   1.679 -0.7871 -0.6372  0.4956
 3435TIP3    H110311   2.412   2.480   1.730 -0.7675 -2.4116  0.4039
 3435TIP3    H210312   2.555   2.430   1.725  0.0563 -0.1369 -0.0110
 3436TIP3   OH210313   1.382   4.445   3.611 -0.3564  0.0550 -0.1385
 3436TIP3    H110314   1.450   4.391   3.650 -1.2178 -0.3660  0.8262
 3436TIP3    H210315   1.393   4.531   3.651 -0.0347  0.1457 -0.4184
 3437TIP3   OH210316   4.799   0.714   3.561  0.7766  0.5372 -0.1139
 3437TIP3    H110317   4.869   0.770   3.593  2.7547 -1.0742 -1.4161
 3437TIP3    H210318   4.733   0.775   3.527  1.8731  2.0771  0.4464
 3438TIP3   OH210319   3.527   4.775   1.823 -0.4251 -0.1035  0.0103
 3438TIP3    H110320   3.460   4.826   1.778  1.7612  1.0582 -2.1377
 3438TIP3    H210321   3.533   4.694   1.773 -0.3801 -0.3138  0.3526
 3439TIP3   OH210322   6.219   2.541   0.891  0.1083 -0.1016 -0.3423
 3439TIP3    H110323   6.266   2.612   0.849  0.1205  0.2135  0.1990
 3439TIP3    H210324   6.150   2.584   0.941  0.6245 -0.4002  0.6608
 3440TIP3   OH210325   0.353   1.190   3.406  0.2137  0.1994 -0.2411
 3440TIP3    H110326   0.436   1.188   3.454  1.2967 -1.2273 -2.0140
 3440TIP3    H210327   0.314   1.105   3.423  0.4592 -0.1979 -1.5514
 3441TIP3   OH210328   5.197   3.470   4.932  0.1969  0.4461 -0.0838
 3441TIP3    H110329   5.242   3.414   4.995  0.3203  0.1616 -0.4207
 3441TIP3    H210330   5.223   3.436   4.846  0.2107  0.9690 -0.2936
 3442TIP3   OH210331   3.461   3.113   5.055  1.1046 -0.3448 -0.0439
 3442TIP3    H110332   3.370   3.086   5.063  0.8765  0.6700  0.9214
 3442TIP3    H210333   3.459   3.208   5.060  2.0723 -0.2035 -1.5976
 3443TIP3   OH210334   3.257   2.215   0.473  0.2841 -0.5195  0.8925
 3443TIP3    H110335   3.331   2.266   0.442 -1.1831  0.7211 -0.7275
 3443TIP3    H210336   3.269   2.209   0.568  2.2885 -0.1475  0.6902
 3444TIP3   OH210337   3.607   0.140   0.180  0.4231 -0.8334 -0.3415
 3444TIP3    H110338   3.678   0.177   0.127  1.6462 -0.5372  1.4026
 3444TIP3    H210339   3.565   0.075   0.122  0.8794  0.3198 -2.0520
 3445TIP3   OH210340   5.648   0.639   4.689  0.0987 -0.5269  0.2780
 3445TIP3    H110341   5.570   0.646   4.745 -1.2340  0.7681 -1.6313
 3445TIP3    H210342   5.656   0.725   4.648  1.4490 -1.2181 -0.9969
 3446TIP3   OH210343   1.682   0.079   1.360  0.0750 -0.0186  0.2819
 3446TIP3    H110344   1.705   0.162   1.319 -0.9060  0.9136  1.5297
 3446TIP3    H210345   1.592   0.061   1.330  0.0414 -0.2900  0.5329
 3447TIP3   OH210346   3.009   5.100   0.596  0.4021  0.1800  0.7356
 3447TIP3    H110347   3.038   5.015   0.631  1.0731  0.2799  0.4317
 3447TIP3    H210348   2.950   5.077   0.525 -1.2016 -0.0294  2.0864
 3448TIP3   OH210349   2.186   3.960   0.647  0.3096  0.5508  0.2268
 3448TIP3    H110350   2.276   3.988   0.632  0.5644  0.1399  0.9540
 3448TIP3    H210351   2.188   3.865   0.636 -0.0243  0.5334  0.2978
 3449TIP3   OH210352   1.046   2.513   3.188 -0.5223 -0.1607 -0.1357
 3449TIP3    H110353   1.099   2.492   3.266 -0.5839  1.3746  0.3662
 3449TIP3    H210354   1.103   2.493   3.114 -1.1958 -3.6735  0.1497
 3450TIP3   OH210355   4.153   3.519   2.881  0.0300 -0.2395 -0.2522
 3450TIP3    H110356   4.118   3.430   2.888  0.7429 -0.6729 -1.6619
 3450TIP3    H210357   4.077   3.573   2.860 -0.5753 -0.3323  1.5755
 3451TIP3   OH210358   1.366   5.240   2.026 -0.3479 -0.5556  0.0348
 3451TIP3    H110359   1.351   5.290   2.106  2.3256  1.8024 -0.7705
 3451TIP3    H210360   1.331   5.296   1.956  0.8437 -0.7310 -0.7281
 3452TIP3   OH210361   2.918   3.632   0.500 -0.5943 -0.0076 -0.4541
 3452TIP3    H110362   2.978   3.566   0.467  0.8433  0.9980  0.0378
 3452TIP3    H210363   2.946   3.648   0.590 -0.8797  1.2589 -0.5601
 3453TIP3   OH210364   6.339   5.940   5.003 -0.3506  0.5273  0.8238
 3453TIP3    H110365   6.304   5.873   5.062 -0.2828 -0.7249 -0.5092
 3453TIP3    H210366   6.284   6.017   5.018 -2.6950 -0.8751 -0.0357
 3454TIP3   OH210367   3.777   5.531   4.104 -0.3371  0.4361 -0.4688
 3454TIP3    H110368   3.697   5.490   4.072  1.3254 -1.3563 -2.5894
 3454TIP3    H210369   3.762   5.625   4.093 -2.2052  0.1584 -0.5862
 3455TIP3   OH210370   3.541   1.962   4.569 -0.6476 -0.0835  0.0596
 3455TIP3    H110371   3.582   2.036   4.613  0.7048 -0.7950  0.0563
 3455TIP3    H210372   3.550   1.889   4.631 -2.7336 -0.0911  0.4345
 3456TIP3   OH210373   5.662   3.627   3.289  1.2233 -0.1915 -0.8471
 3456TIP3    H110374   5.617   3.570   3.227 -1.6531  0.5932  0.3721
 3456TIP3    H210375   5.627   3.714   3.272 -0.0962 -0.0285  2.1406
 3457TIP3   OH210376   0.714   4.544   4.211  0.5820 -0.0020  0.0868
 3457TIP3    H110377   0.804   4.523   4.237  0.7783 -1.5787 -1.6288
 3457TIP3    H210378   0.720   4.560   4.117 -0.9666 -0.3837 -0.0943
 3458TIP3   OH210379   6.085   2.068   1.228  0.1302 -0.0607 -0.2683
 3458TIP3    H110380   6.139   2.071   1.307  0.7368 -2.1974 -0.5271
 3458TIP3    H210381   6.126   2.131   1.168  0.9472  0.0254  0.3692
 3459TIP3   OH210382   1.284   0.536   2.418 -0.4163  0.0257  0.7525
 3459TIP3    H110383   1.317   0.492   2.340  0.5613  0.1238  1.0949
 3459TIP3    H210384   1.234   0.469   2.465  0.0961 -0.4025  0.6952
 3460TIP3   OH210385   2.807   2.904   4.113 -0.5640 -0.3562 -0.0397
 3460TIP3    H110386   2.774   2.877   4.027  1.0413  0.9081 -1.1197
 3460TIP3    H210387   2.730   2.906   4.169 -1.6442 -1.3159 -1.4242
 3461TIP3   OH210388   0.783   1.716   0.195 -0.2924  0.1214 -0.1573
 3461TIP3    H110389   0.831   1.775   0.252  0.3757 -1.1529  0.6513
 3461TIP3    H210390   0.693   1.721   0.226 -0.4268  1.3902 -0.7016
 3462TIP3   OH210391   3.566   3.430   0.399 -0.0327 -0.2983 -0.7723
 3462TIP3    H110392   3.504   3.499   0.423  1.5401  1.3477 -1.2079
 3462TIP3    H210393   3.590   3.390   0.483 -0.9750 -0.3374 -0.5102
 3463TIP3   OH210394   5.023   2.726   3.569  0.1298  0.4139  0.3281
 3463TIP3    H110395   4.945   2.778   3.552 -1.6360 -1.6586  1.6130
 3463TIP3    H210396   5.014   2.697   3.660  2.5690  0.3541  0.6299
 3464TIP3   OH210397   6.109   0.266   0.162  0.2216  0.0800  0.2818
 3464TIP3    H110398   6.123   0.349   0.116  0.4698  0.5738  1.2353
 3464TIP3    H210399   6.170   0.268   0.235 -0.5673 -0.4383  0.9752
 3465TIP3   OH210400   0.438   2.734   3.786 -0.2728  0.1658 -0.2936
 3465TIP3    H110401   0.488   2.675   3.729 -0.8480 -0.5088 -0.1149
 3465TIP3    H210402   0.364   2.681   3.816  0.0032  0.5171  1.0628
 3466TIP3   OH210403   3.714   0.800   4.345  0.1121  0.6923 -0.1512
 3466TIP3    H110404   3.752   0.873   4.393  1.2047  0.4384 -0.6030
 3466TIP3    H210405   3.642   0.838   4.295  0.0581  1.2657  0.3530
 3467TIP3   OH210406   0.853   1.059   1.165  0.9154 -0.0671 -0.1789
 3467TIP3    H110407   0.769   1.085   1.204  0.0772 -0.0773 -1.8626
 3467TIP3    H210408   0.919   1.093   1.225 -0.2734  1.1100  0.5238
 3468TIP3   OH210409   1.390   2.407   0.967  0.1124 -0.3068  0.7436
 3468TIP3    H110410   1.447   2.484   0.968 -0.7875  0.3895  0.0745
 3468TIP3    H210411   1.303   2.441   0.945 -0.5750 -1.3461  1.6975
 3469TIP3   OH210412   1.354   1.011   2.530  0.4528 -0.3540 -0.7249
 3469TIP3    H110413   1.259   1.015   2.538  0.5074  0.1253 -0.2616
 3469TIP3    H210414   1.372   0.924   2.495 -0.0701 -0.9819  0.5376
 3470TIP3   OH210415   1.509   5.472   1.210 -0.2145 -0.0187 -0.6604
 3470TIP3    H110416   1.416   5.470   1.234 -0.0262  0.1709  0.1106
 3470TIP3    H210417   1.542   5.552   1.252  0.3120 -0.1185 -0.8854
 3471TIP3   OH210418   1.725   4.059   3.685 -0.2242  0.0218  0.4192
 3471TIP3    H110419   1.798   4.010   3.721 -1.4258 -1.3545  1.1146
 3471TIP3    H210420   1.656   3.993   3.673 -0.7122  0.9061 -2.0552
 3472TIP3   OH210421   0.209   1.077   0.772 -0.0761  0.4059 -0.0476
 3472TIP3    H110422   0.160   1.087   0.691  0.5901  0.8218 -0.4064
 3472TIP3    H210423   0.154   1.020   0.826 -0.0661 -0.7270 -1.1678
 3473TIP3   OH210424   5.326   5.792   4.312 -0.1060  0.1220 -0.1949
 3473TIP3    H110425   5.391   5.795   4.382  1.4381 -0.2676 -1.5428
 3473TIP3    H210426   5.275   5.712   4.329 -0.0450  0.2687  0.7101
 3474TIP3   OH210427   5.442   1.968   4.228  0.7518 -0.3505 -0.1380
 3474TIP3    H110428   5.400   1.965   4.314  0.1836  1.5858 -0.2970
 3474TIP3    H210429   5.392   1.906   4.175 -2.6255  2.4086 -0.5462
 3475TIP3   OH210430   4.217   5.856   1.813 -0.1722  0.2564  0.1135
 3475TIP3    H110431   4.137   5.806   1.799  0.4522 -1.4052  1.9672
 3475TIP3    H210432   4.286   5.801   1.777  0.7796 -1.4767  3.9879
 3476TIP3   OH210433   6.025   2.761   2.508  0.0557  0.6207  0.4664
 3476TIP3    H110434   6.119   2.773   2.517  0.2999 -0.3276 -0.5090
 3476TIP3    H210435   6.000   2.820   2.437  0.1489 -0.0090 -0.1031
 3477TIP3   OH210436   1.246   1.160   2.182 -0.0181 -0.1971 -0.1794
 3477TIP3    H110437   1.237   1.202   2.267  2.7180 -1.4722  0.8921
 3477TIP3    H210438   1.253   1.232   2.119 -0.8459  0.7929  0.8444
 3478TIP3   OH210439   0.662   4.207   3.798  0.1658 -0.2586  0.5782
 3478TIP3    H110440   0.752   4.226   3.825  0.1572  0.6091  0.0227
 3478TIP3    H210441   0.663   4.216   3.703 -0.0557 -2.2467  0.3607
 3479TIP3   OH210442   3.241   4.567   4.246 -0.3218 -0.0723  0.1196
 3479TIP3    H110443   3.305   4.591   4.179  0.1007  0.7366  0.8033
 3479TIP3    H210444   3.257   4.628   4.318 -1.3352 -0.3774  0.6216
 3480TIP3   OH210445   2.648   4.413   2.385  0.0983 -0.7118  0.3967
 3480TIP3    H110446   2.743   4.422   2.387 -0.0033  1.3684 -1.2077
 3480TIP3    H210447   2.616   4.483   2.442 -0.5050 -0.6356 -0.0283
 3481TIP3   OH210448   4.280   4.184   1.828 -0.6811 -0.0205 -0.0835
 3481TIP3    H110449   4.303   4.180   1.921 -0.6814 -0.2792 -0.0957
 3481TIP3    H210450   4.285   4.277   1.807 -1.3450  0.1169  0.3370
 3482TIP3   OH210451   1.866   4.927   3.054 -0.1896  0.4528  0.5319
 3482TIP3    H110452   1.891   4.966   2.970 -0.8603  2.1379  1.0776
 3482TIP3    H210453   1.893   4.835   3.046 -3.1531 -0.3392 -2.8008
 3483TIP3   OH210454   3.815   4.364   2.498 -0.0464 -0.5390 -0.0729
 3483TIP3    H110455   3.860   4.364   2.582  0.3935  0.3780 -0.3024
 3483TIP3    H210456   3.878   4.326   2.437 -0.3262 -1.1051 -0.0152
 3484TIP3   OH210457   6.181   0.487   2.600  0.0544 -0.3633  0.5818
 3484TIP3    H110458   6.179   0.447   2.686 -1.6803 -0.8195  0.3670
 3484TIP3    H210459   6.118   0.559   2.605 -0.6013 -0.8313 -0.4778
 3485TIP3   OH210460  -0.016   5.859   0.729  0.7668 -0.0329 -1.1468
 3485TIP3    H110461  -0.013   5.923   0.800  0.4972 -0.8270 -0.4010
 3485TIP3    H210462   0.032   5.901   0.657  1.5819  0.5421 -0.2956
 3486TIP3   OH210463   5.808   4.922   2.241  0.1591  0.2056 -0.7338
 3486TIP3    H110464   5.883   4.980   2.255  0.4024  0.2070 -1.8845
 3486TIP3    H210465   5.736   4.964   2.287  0.8057  0.3261  0.1936
 3487TIP3   OH210466   1.136   0.860   3.124 -0.4707  0.1160 -0.1969
 3487TIP3    H110467   1.174   0.814   3.050 -1.5851 -1.5618  0.2189
 3487TIP3    H210468   1.129   0.951   3.095  0.1879 -0.2904 -1.7052
 3488TIP3   OH210469   0.344   3.589   2.447  0.2356  0.3263 -0.1428
 3488TIP3    H110470   0.293   3.569   2.368 -0.1013 -0.6973  0.3203
 3488TIP3    H210471   0.404   3.515   2.456  0.2662  0.4268  0.5595
 3489TIP3   OH210472   3.415   3.351   0.941  0.6915 -0.0776 -0.4604
 3489TIP3    H110473   3.489   3.297   0.914  0.9044 -0.0462  0.0510
 3489TIP3    H210474   3.455   3.427   0.983  0.3786 -1.3999  2.4479
 3490TIP3   OH210475   5.023   0.454   5.160 -0.0357  0.3544 -0.3635
 3490TIP3    H110476   5.082   0.429   5.089  2.1449 -1.8588  2.0134
 3490TIP3    H210477   5.056   0.538   5.191  2.4662 -1.1513  1.3482
 3491TIP3   OH210478   0.422   1.550   4.221  0.5633  0.1471 -0.2298
 3491TIP3    H110479   0.408   1.564   4.314 -0.1446 -0.5238 -0.2170
 3491TIP3    H210480   0.420   1.637   4.182 -1.9966  0.2693  0.0343
 3492TIP3   OH210481   1.002   5.665   4.122  0.5819 -0.6475 -0.1933
 3492TIP3    H110482   0.939   5.720   4.075  0.3648 -2.2634 -1.9104
 3492TIP3    H210483   0.961   5.648   4.206  0.2280  0.9736 -0.0016
 3493TIP3   OH210484   5.902   2.645   1.929  0.2955  0.4534 -0.4618
 3493TIP3    H110485   5.889   2.551   1.922 -0.8015  0.5522  0.1115
 3493TIP3    H210486   5.989   2.660   1.891 -0.0874 -0.6044 -1.8376
 3494TIP3   OH210487   4.254   1.797   1.039  0.3207 -0.4907 -0.1489
 3494TIP3    H110488   4.330   1.758   1.081 -0.6657 -0.7770  1.4418
 3494TIP3    H210489   4.272   1.790   0.945  1.3598 -2.3509  0.1487
 3495TIP3   OH210490   3.742   5.803   4.074 -0.0889  0.1001 -0.7671
 3495TIP3    H110491   3.811   5.867   4.054  1.6397 -1.3702  0.2473
 3495TIP3    H210492   3.696   5.791   3.990  1.2821  0.6711 -1.6445
 3496TIP3   OH210493   6.233   3.607   2.206 -0.2929 -0.5353 -0.0777
 3496TIP3    H110494   6.250   3.694   2.170  1.5338  0.5302  3.0189
 3496TIP3    H210495   6.163   3.620   2.270  0.3278 -1.2171  0.7588
 3497TIP3   OH210496   4.338   5.831   1.040 -0.2487 -0.0236 -0.1644
 3497TIP3    H110497   4.286   5.803   0.965 -0.6308  0.3201 -0.0341
 3497TIP3    H210498   4.283   5.895   1.085  0.9354  1.5932 -0.9182
 3498TIP3   OH210499   0.941   2.909   4.497 -0.8080  0.2498 -0.0085
 3498TIP3    H110500   1.003   2.851   4.451  1.0495  1.1115  1.2816
 3498TIP3    H210501   0.934   2.986   4.440  1.6084  1.3817  1.0628
 3499TIP3   OH210502   2.482   0.432   3.320 -0.1737  0.6425 -0.0260
 3499TIP3    H110503   2.482   0.380   3.239 -0.0923 -0.9644  0.9506
 3499TIP3    H210504   2.389   0.452   3.336 -0.2402  0.5218 -0.2587
 3500TIP3   OH210505   6.251   2.840   4.336  0.2999 -0.2840 -0.1312
 3500TIP3    H110506   6.270   2.762   4.389 -2.2432 -0.2833  0.9625
 3500TIP3    H210507   6.173   2.816   4.286 -0.2432  1.3901 -0.1476
 3501TIP3   OH210508   1.138   2.191   3.201  0.8129  0.4006 -1.3475
 3501TIP3    H110509   1.210   2.178   3.140  2.4695 -0.9473  0.7534
 3501TIP3    H210510   1.137   2.113   3.256 -0.9070  1.3025  0.0554
 3502TIP3   OH210511   4.295   2.353   0.008  0.3850 -0.3554 -0.2044
 3502TIP3    H110512   4.234   2.279   0.007 -0.3825  0.1309  2.6137
 3502TIP3    H210513   4.382   2.312   0.013  0.3403 -1.0324 -3.2470
 3503TIP3   OH210514   3.580   1.788   1.784 -0.5146  0.0539  0.1306
 3503TIP3    H110515   3.635   1.862   1.758  1.6415 -1.1426  1.0658
 3503TIP3    H210516   3.572   1.795   1.879 -0.4848 -0.7813  0.2052
 3504TIP3   OH210517   3.249   2.793   3.962 -0.2021 -0.0112 -0.6278
 3504TIP3    H110518   3.188   2.859   3.930 -0.1886 -0.2954 -1.2476
 3504TIP3    H210519   3.219   2.711   3.924  0.1065 -0.2787 -0.3068
 3505TIP3   OH210520   2.052   3.510   2.906 -0.3605  0.5770  0.6164
 3505TIP3    H110521   2.146   3.515   2.891 -0.5753 -0.1464 -1.1812
 3505TIP3    H210522   2.028   3.597   2.938  0.9614  0.6245  1.5532
 3506TIP3   OH210523   5.544   1.996   0.904  0.3873  0.1655  0.2692
 3506TIP3    H110524   5.530   2.086   0.876  1.2751 -0.1106 -1.1731
 3506TIP3    H210525   5.634   1.976   0.878  0.6009 -0.7763  1.6161
 3507TIP3   OH210526   0.784   2.674   0.723 -0.2352  1.0241 -0.2694
 3507TIP3    H110527   0.747   2.677   0.635 -0.7978  0.5489 -0.0518
 3507TIP3    H210528   0.862   2.730   0.718  1.2201 -0.9907 -1.7544
 3508TIP3   OH210529   2.637   1.716   2.471  0.8917 -0.0577 -0.9608
 3508TIP3    H110530   2.725   1.754   2.471  1.6913 -1.7679 -1.6279
 3508TIP3    H210531   2.614   1.709   2.378  0.8719 -1.3311 -0.8792
 3509TIP3   OH210532   2.201   2.353   2.827 -0.0231  0.6272  0.1700
 3509TIP3    H110533   2.197   2.259   2.842 -1.5904  0.2655 -1.9237
 3509TIP3    H210534   2.282   2.382   2.869 -0.3363 -1.3432  2.2588
 3510TIP3   OH210535   0.593   1.675   2.679 -0.0921 -0.3593 -0.0595
 3510TIP3    H110536   0.682   1.672   2.643 -0.5896 -2.0244 -1.3254
 3510TIP3    H210537   0.565   1.766   2.669  1.1440 -0.0044 -0.4507
 3511TIP3   OH210538   3.161   4.308   2.733 -0.1302  0.1182 -0.3938
 3511TIP3    H110539   3.167   4.397   2.696 -0.1566 -0.3070 -1.4621
 3511TIP3    H210540   3.242   4.265   2.705 -1.4278 -1.1244 -2.5030
 3512TIP3   OH210541   5.615   2.829   2.878  0.5450 -0.3520  0.0339
 3512TIP3    H110542   5.629   2.901   2.939  2.0485 -0.5630 -0.0242
 3512TIP3    H210543   5.613   2.870   2.792 -1.4600 -0.0686  0.1570
 3513TIP3   OH210544   1.729   0.698   4.407 -0.7048  0.1140  0.0218
 3513TIP3    H110545   1.709   0.787   4.437 -1.1049  0.1016 -0.2175
 3513TIP3    H210546   1.673   0.642   4.461  0.0435 -0.0475  0.6568
 3514TIP3   OH210547   1.840   1.718   3.850  0.1052  0.0700 -0.1679
 3514TIP3    H110548   1.779   1.644   3.848 -0.1227  0.2330  0.4562
 3514TIP3    H210549   1.786   1.793   3.875  0.9429 -0.2163  2.9776
 3515TIP3   OH210550   5.509   1.184   0.949  0.2964 -0.4786  0.1641
 3515TIP3    H110551   5.485   1.237   0.873 -0.8846  1.9171  2.0527
 3515TIP3    H210552   5.447   1.111   0.948 -0.7322  0.3704 -0.3764
 3516TIP3   OH210553   4.655   3.401   1.046 -0.2047 -0.2745  1.0059
 3516TIP3    H110554   4.681   3.416   0.955  1.4357 -2.1517  1.1107
 3516TIP3    H210555   4.579   3.458   1.058  0.4310  1.1455 -1.0748
 3517TIP3   OH210556   5.043   5.610   2.522 -0.1684 -0.2094 -0.7870
 3517TIP3    H110557   5.121   5.617   2.576  1.1643  1.1251 -2.7382
 3517TIP3    H210558   5.063   5.541   2.459 -1.3535 -1.1475 -0.1892
 3518TIP3   OH210559   5.442   4.070   2.231  0.3372 -0.3655  0.1147
 3518TIP3    H110560   5.519   4.121   2.206  0.2924  0.3674  1.3963
 3518TIP3    H210561   5.473   3.980   2.234  0.9474 -0.1706 -0.1283
 3519TIP3   OH210562   3.297   1.947   0.806 -0.1972 -0.0539 -0.2582
 3519TIP3    H110563   3.218   1.899   0.781  0.1986 -0.1763 -1.3235
 3519TIP3    H210564   3.365   1.915   0.746  1.0272 -0.9985  1.5645
 3520TIP3   OH210565   5.319   4.064   1.674  0.6835 -0.8353  0.1752
 3520TIP3    H110566   5.382   4.050   1.746 -0.0927  0.5863  1.1758
 3520TIP3    H210567   5.264   4.136   1.705 -0.5894 -1.1673 -1.2576
 3521TIP3   OH210568   3.593   0.915   0.273  0.2718 -0.4459 -0.2508
 3521TIP3    H110569   3.554   0.895   0.188 -1.5149 -0.6926  0.5992
 3521TIP3    H210570   3.608   1.010   0.271 -0.0775 -0.3991 -0.7039
 3522TIP3   OH210571   1.294   3.905   2.654  0.2130  0.6457 -0.1095
 3522TIP3    H110572   1.225   3.913   2.588 -0.3824 -0.7758  0.3035
 3522TIP3    H210573   1.338   3.822   2.632 -0.9349 -0.6254  2.0835
 3523TIP3   OH210574   6.079   1.593   4.820 -0.6412 -0.3247  0.2236
 3523TIP3    H110575   6.160   1.552   4.851  0.3023  0.4765 -1.0959
 3523TIP3    H210576   6.022   1.594   4.898  0.4410 -1.2717  1.0742
 3524TIP3   OH210577   2.190   4.743   1.867 -0.3542  0.0869 -0.0429
 3524TIP3    H110578   2.227   4.802   1.933  0.6070 -1.9475  1.3298
 3524TIP3    H210579   2.104   4.720   1.900 -0.4676  0.2002 -0.2548
 3525TIP3   OH210580   3.705   4.958   2.535 -0.2163  0.2193  0.0622
 3525TIP3    H110581   3.640   5.004   2.589  0.6336 -0.9737  2.2243
 3525TIP3    H210582   3.663   4.949   2.450 -1.8811  1.6427  0.6631
 3526TIP3   OH210583   4.590   2.097   4.297  0.0344  0.6013 -0.0037
 3526TIP3    H110584   4.556   2.179   4.334 -0.1682  1.1656 -1.4028
 3526TIP3    H210585   4.541   2.028   4.343 -1.3479  1.3247 -0.3298
 3527TIP3   OH210586   6.063   3.136   3.717  0.0698 -0.3466 -0.2603
 3527TIP3    H110587   6.124   3.110   3.787 -1.3662 -1.6664  0.5587
 3527TIP3    H210588   6.115   3.193   3.660  1.3747  0.5867  1.7367
 3528TIP3   OH210589   1.798   4.635   1.090  0.1447  0.5006 -0.1306
 3528TIP3    H110590   1.800   4.717   1.139  0.9709  0.3812  0.0406
 3528TIP3    H210591   1.793   4.662   0.999  1.9382  0.7832 -0.1751
 3529TIP3   OH210592   0.693   2.808   4.000 -0.2280 -0.5383  0.3265
 3529TIP3    H110593   0.727   2.813   4.089 -0.6293  0.9511  0.4274
 3529TIP3    H210594   0.655   2.895   3.984 -0.8458 -1.0290 -1.0208
 3530TIP3   OH210595   5.394   0.607   1.260  0.2797 -0.4827  0.0339
 3530TIP3    H110596   5.403   0.619   1.165 -3.1578 -0.1237 -0.3820
 3530TIP3    H210597   5.423   0.517   1.275  0.8865 -0.5472 -1.3318
 3531TIP3   OH210598   4.639   3.618   0.730 -0.2650  0.0285  0.1477
 3531TIP3    H110599   4.561   3.585   0.775 -0.1386  0.5555  0.7825
 3531TIP3    H210600   4.605   3.663   0.653 -0.3684 -2.7049 -1.5472
 3532TIP3   OH210601   4.456   0.986   1.373  0.5111  0.4091  0.3619
 3532TIP3    H110602   4.419   0.901   1.349  0.1395  1.1549 -1.9534
 3532TIP3    H210603   4.382   1.034   1.410  0.5085  0.0291  0.8547
 3533TIP3   OH210604   1.385   3.997   4.126 -0.1550  0.1801  0.0785
 3533TIP3    H110605   1.326   4.007   4.200  2.1177 -1.1188  2.2006
 3533TIP3    H210606   1.453   4.063   4.140  0.5689 -0.4014 -0.5859
 3534TIP3   OH210607   1.305   3.095   3.154  0.7671 -0.3503 -0.4915
 3534TIP3    H110608   1.315   3.047   3.072  1.7359 -2.7004  0.8913
 3534TIP3    H210609   1.384   3.149   3.160  0.5216  0.1097 -1.2261
 3535TIP3   OH210610   0.598   1.326   4.095  0.0808  0.2688 -0.0816
 3535TIP3    H110611   0.521   1.364   4.138 -1.2411 -1.0563 -1.1720
 3535TIP3    H210612   0.672   1.354   4.150 -1.3044  0.3410  1.8745
 3536TIP3   OH210613   5.048   3.766   0.570 -0.2588 -0.3061  0.3888
 3536TIP3    H110614   4.969   3.794   0.615 -0.5300 -1.9672  1.0037
 3536TIP3    H210615   5.021   3.691   0.517  0.5320  0.2303 -0.8241
 3537TIP3   OH210616   0.218   1.952   3.561 -0.1910  0.1013 -0.7092
 3537TIP3    H110617   0.227   1.915   3.648 -0.6239  0.2121 -0.6150
 3537TIP3    H210618   0.305   1.944   3.522  0.2370  0.8844  0.0577
 3538TIP3   OH210619   6.303   1.133   1.448  0.3728  0.0436 -0.0407
 3538TIP3    H110620   6.358   1.212   1.452  1.7450 -0.9115  1.0074
 3538TIP3    H210621   6.216   1.162   1.472  0.7467  1.3349 -0.1880
 3539TIP3   OH210622   1.912   1.924   2.466  0.6909 -0.1315  0.4151
 3539TIP3    H110623   1.891   1.991   2.531  2.1531  0.3652  0.4177
 3539TIP3    H210624   1.994   1.886   2.496  1.8777  0.6981 -1.5166
 3540TIP3   OH210625   3.561   5.002   2.278 -0.1588 -0.9469 -0.2814
 3540TIP3    H110626   3.469   4.979   2.263 -0.6878  1.3660 -0.9870
 3540TIP3    H210627   3.606   4.970   2.200 -0.9640  0.7759 -1.5086
 3541TIP3   OH210628   5.860   0.808   3.373 -0.4379  0.1212 -0.3601
 3541TIP3    H110629   5.786   0.804   3.433 -1.4998 -3.6311 -1.6536
 3541TIP3    H210630   5.924   0.747   3.410 -0.5232 -1.1548 -2.2028
 3542TIP3   OH210631   0.196   1.363   4.021 -0.0964  0.4908  0.4954
 3542TIP3    H110632   0.269   1.423   4.008 -0.1357  0.4616  0.1241
 3542TIP3    H210633   0.119   1.420   4.023 -0.1955  0.4118 -0.4563
 3543TIP3   OH210634   2.895   4.176   4.069 -1.0456  0.2730 -0.1717
 3543TIP3    H110635   2.854   4.263   4.070  0.9082  1.2583  0.4616
 3543TIP3    H210636   2.968   4.184   4.130 -0.3562 -1.5940 -0.6917
 3544TIP3   OH210637   0.473   3.103   5.149  0.2530  0.2230  0.8964
 3544TIP3    H110638   0.406   3.062   5.095  0.3285  1.0999  0.1004
 3544TIP3    H210639   0.484   3.190   5.111  3.4721 -0.6490 -0.5007
 3545TIP3   OH210640   3.665   4.511   4.260  0.0791  0.0511 -0.5317
 3545TIP3    H110641   3.643   4.494   4.169 -1.4556  0.9519 -0.3593
 3545TIP3    H210642   3.725   4.586   4.257  0.4290 -0.2418 -0.8301
 3546TIP3   OH210643   2.084   4.119   2.580  0.0345 -0.0475  0.5005
 3546TIP3    H110644   2.178   4.108   2.594 -0.2785 -1.0663  1.9467
 3546TIP3    H210645   2.060   4.049   2.521  0.3175  0.7452 -0.5852
 3547TIP3   OH210646   5.228   3.914   0.357  0.6970  0.0932 -0.2190
 3547TIP3    H110647   5.176   3.922   0.437  2.0724 -5.4444  1.6834
 3547TIP3    H210648   5.164   3.901   0.288 -0.4632  0.9790  0.6517
 3548TIP3   OH210649   2.696   0.918   3.797  0.0133 -0.5915 -0.2115
 3548TIP3    H110650   2.623   0.971   3.829  1.3055  0.1467  1.6639
 3548TIP3    H210651   2.670   0.828   3.815 -0.1881 -0.2990  1.0381
 3549TIP3   OH210652   1.571   1.580   3.711 -0.1810  0.7981 -0.0343
 3549TIP3    H110653   1.548   1.656   3.766 -1.0618  0.8124 -0.3997
 3549TIP3    H210654   1.527   1.598   3.628 -0.0705  0.0686 -0.2489
 3550TIP3   OH210655   5.635   0.082   0.371  0.5914  0.1564 -0.2203
 3550TIP3    H110656   5.612   0.125   0.453 -0.7355 -2.2575  0.7832
 3550TIP3    H210657   5.551   0.069   0.327  1.0888 -0.2619 -1.0787
 3551TIP3   OH210658   0.538   1.605   4.472 -0.3321 -0.9924  0.2758
 3551TIP3    H110659   0.624   1.571   4.498  0.2494 -0.7275 -1.2271
 3551TIP3    H210660   0.504   1.646   4.552  1.2995 -0.3484  0.6863
 3552TIP3   OH210661   3.606   0.607   2.072 -0.2005  0.3117 -0.3520
 3552TIP3    H110662   3.690   0.566   2.090 -0.2124  0.4381  0.0134
 3552TIP3    H210663   3.626   0.701   2.067 -0.1556  0.2581 -1.2841
 3553TIP3   OH210664   5.372   4.178   4.865 -0.4326 -0.6859  0.3926
 3553TIP3    H110665   5.339   4.212   4.948 -0.6078 -0.5632  0.2730
 3553TIP3    H210666   5.385   4.256   4.811 -2.3686 -0.8852 -0.4577
 3554TIP3   OH210667   5.111   4.802   3.483 -0.5206 -0.1101 -0.0068
 3554TIP3    H110668   5.177   4.751   3.532 -0.1996 -0.5909 -0.9196
 3554TIP3    H210669   5.076   4.863   3.548  1.1940  0.5131  0.3970
 3555TIP3   OH210670   3.028   5.889   0.678  0.4675 -0.3240  0.4234
 3555TIP3    H110671   2.991   5.942   0.607 -0.4233  1.3974  2.0852
 3555TIP3    H210672   3.119   5.874   0.652  0.1318  0.1263 -1.1281
 3556TIP3   OH210673   2.714   0.602   5.061 -0.1606 -0.1345 -0.1995
 3556TIP3    H110674   2.748   0.553   4.987  0.5210 -1.2923  0.8599
 3556TIP3    H210675   2.679   0.683   5.021 -0.4985 -1.0427 -1.8551
 3557TIP3   OH210676   5.045   2.385   0.224  0.0246 -0.3099  0.1426
 3557TIP3    H110677   5.067   2.418   0.137  1.1788  0.0366  0.5484
 3557TIP3    H210678   5.111   2.422   0.282 -0.5726 -0.7384  1.1398
 3558TIP3   OH210679   5.742   4.437   0.730 -0.2723 -0.0258  0.0481
 3558TIP3    H110680   5.803   4.483   0.672  0.2522 -0.9756 -0.1619
 3558TIP3    H210681   5.672   4.407   0.672 -2.1420  2.8741  0.5564
 3559TIP3   OH210682   5.005   5.591   2.116  0.6164 -0.0728  0.2271
 3559TIP3    H110683   4.985   5.674   2.159  1.2756  0.0338  0.3354
 3559TIP3    H210684   5.037   5.616   2.029  2.6968 -0.0851  0.9372
 3560TIP3   OH210685   1.498   4.422   0.256 -0.7406  0.1742  0.2090
 3560TIP3    H110686   1.540   4.354   0.203  1.4183  1.7681 -0.2697
 3560TIP3    H210687   1.415   4.383   0.284 -0.6348 -1.7877 -1.9260
 3561TIP3   OH210688   2.182   3.426   0.257  0.5193 -0.0362  0.1231
 3561TIP3    H110689   2.205   3.417   0.350  0.5700 -0.8688  0.0324
 3561TIP3    H210690   2.133   3.508   0.253  0.5085  0.0019  0.8918
 3562TIP3   OH210691   0.825   2.326   2.415 -0.1048 -0.4000 -0.2089
 3562TIP3    H110692   0.869   2.298   2.335  2.2162  2.0217  0.0642
 3562TIP3    H210693   0.858   2.415   2.430 -2.4473  0.2070  2.0632
 3563TIP3   OH210694   0.032   4.468   0.741 -0.2058 -0.2358  0.3589
 3563TIP3    H110695  -0.043   4.409   0.732 -0.5589  0.1894  0.4828
 3563TIP3    H210696   0.068   4.449   0.828 -0.1327 -0.4773  0.2770
 3564TIP3   OH210697   1.066   1.203  -0.028  0.3602 -0.6633 -0.0229
 3564TIP3    H110698   0.971   1.205  -0.013  0.1583 -1.2967 -1.1013
 3564TIP3    H210699   1.102   1.166   0.053 -0.0893  1.4463  1.2185
 3565TIP3   OH210700   5.192   1.287   2.611 -0.5960 -0.4846 -0.4599
 3565TIP3    H110701   5.223   1.314   2.697 -1.2087 -1.6720  0.1535
 3565TIP3    H210702   5.097   1.284   2.620 -0.8704  1.7036 -1.8924
 3566TIP3   OH210703   4.781   1.872   4.492  0.2414  0.1209 -0.0780
 3566TIP3    H110704   4.870   1.863   4.528  0.6935  0.9780 -0.9383
 3566TIP3    H210705   4.774   1.964   4.470 -1.0545  0.1550  0.4063
 3567TIP3   OH210706   4.668   5.459   2.385  0.5412 -0.6144 -0.3599
 3567TIP3    H110707   4.679   5.501   2.300  0.8599 -0.9840 -0.5063
 3567TIP3    H210708   4.684   5.366   2.368 -0.2824 -0.8157 -0.0700
 3568TIP3   OH210709   4.048   1.828   2.272  0.2241 -0.0138 -0.0466
 3568TIP3    H110710   4.126   1.849   2.322  0.2703  0.9191 -0.5041
 3568TIP3    H210711   3.980   1.814   2.338  0.5394  0.1421  0.3105
 3569TIP3   OH210712   5.472   2.471   0.998  0.1950 -0.5333  0.3663
 3569TIP3    H110713   5.384   2.458   1.034  0.0146 -0.3897 -0.0105
 3569TIP3    H210714   5.531   2.443   1.068 -0.1313  0.4794  1.0787
 3570TIP3   OH210715   4.588   0.715   5.086  0.0891 -0.1168  0.6597
 3570TIP3    H110716   4.623   0.660   5.156 -0.0647  0.5253  1.2452
 3570TIP3    H210717   4.664   0.761   5.050  0.5147 -1.9284 -0.9826
 3571TIP3   OH210718   3.686   5.214   3.994  0.2376  0.2336 -0.1542
 3571TIP3    H110719   3.690   5.188   3.902 -0.3394 -0.9983  0.1550
 3571TIP3    H210720   3.630   5.292   3.994  0.1129  0.1491 -0.8299
 3572TIP3   OH210721   2.948   5.396   2.228 -0.0114 -0.3655  0.3574
 3572TIP3    H110722   2.980   5.466   2.285 -2.2329 -1.7585  3.6622
 3572TIP3    H210723   2.858   5.421   2.208  0.2779 -0.6222 -1.4758
 3573TIP3   OH210724   4.282   3.768   0.102  0.0778 -0.0461 -0.1008
 3573TIP3    H110725   4.192   3.778   0.134 -0.1907  0.0846 -0.8648
 3573TIP3    H210726   4.318   3.695   0.152 -0.6024 -0.3862 -0.0939
 3574TIP3   OH210727   2.637   3.754   0.857  0.1126  1.0559  0.2514
 3574TIP3    H110728   2.596   3.692   0.798 -0.3636  1.0408  0.5967
 3574TIP3    H210729   2.708   3.793   0.805 -0.1165  0.8360 -0.2312
 3575TIP3   OH210730   6.000   4.818   2.540  0.5212  0.2644  0.3931
 3575TIP3    H110731   5.933   4.778   2.596 -0.1437  0.6759 -0.0911
 3575TIP3    H210732   6.062   4.856   2.602  1.1832 -1.4884  0.8684
 3576TIP3   OH210733   2.014   0.274   0.172 -0.2975  0.0003 -0.3099
 3576TIP3    H110734   2.042   0.257   0.261  0.0055  0.7204 -0.2603
 3576TIP3    H210735   2.033   0.193   0.125  0.3512 -0.0882  0.0882
 3577TIP3   OH210736   2.383   4.418   3.845 -0.2121  0.4394  0.2366
 3577TIP3    H110737   2.317   4.389   3.782 -1.5956  0.0739  1.7823
 3577TIP3    H210738   2.395   4.511   3.826 -0.3443  0.2653 -0.7661
 3578TIP3   OH210739   2.754   4.121   2.088  0.0239 -0.4279  0.2238
 3578TIP3    H110740   2.844   4.123   2.120  1.0876 -0.2089 -2.4999
 3578TIP3    H210741   2.758   4.065   2.010 -1.9718  0.4532 -0.5680
 3579TIP3   OH210742   4.907   3.497   0.135  0.7937 -0.4942  0.0771
 3579TIP3    H110743   4.943   3.569   0.187 -0.5949 -0.2480  0.7560
 3579TIP3    H210744   4.872   3.539   0.056 -1.5411 -0.0921  1.2243
 3580TIP3   OH210745   5.469   4.329   1.433 -0.2898 -0.8162 -0.6229
 3580TIP3    H110746   5.460   4.372   1.348 -2.6550 -0.4722 -0.2474
 3580TIP3    H210747   5.533   4.259   1.417  2.2461  1.5390 -1.6930
 3581TIP3   OH210748   3.827   1.474   1.481  0.5835  0.2806  0.0896
 3581TIP3    H110749   3.910   1.435   1.456  0.0730 -1.0952  0.4833
 3581TIP3    H210750   3.850   1.564   1.507  1.7162  0.3794 -1.1617
 3582TIP3   OH210751   6.093   0.053   1.944 -0.8580 -0.2502 -0.0026
 3582TIP3    H110752   6.092   0.093   1.857 -0.4567  0.1407  0.1719
 3582TIP3    H210753   6.182   0.018   1.954  0.3815  3.0318  1.7366
 3583TIP3   OH210754   0.047   4.034   1.126 -0.1307  0.3936  0.3512
 3583TIP3    H110755   0.012   4.013   1.212  0.8753 -1.3650  0.3866
 3583TIP3    H210756   0.105   4.109   1.140 -0.7547  0.7636  0.9989
 3584TIP3   OH210757   5.718   4.981   2.731  0.5543  0.1627 -0.1833
 3584TIP3    H110758   5.676   4.913   2.783 -1.7804  2.5799  1.3461
 3584TIP3    H210759   5.790   5.012   2.786 -0.0031  0.6530  0.2798
 3585TIP3   OH210760   1.367   4.393   0.974  0.3914 -0.2008 -0.3781
 3585TIP3    H110761   1.445   4.348   0.941  0.4815 -0.3663  0.0478
 3585TIP3    H210762   1.395   4.484   0.987  0.2649 -0.0622 -1.0541
 3586TIP3   OH210763   3.786   2.225   0.972  0.3914  0.3517 -0.4169
 3586TIP3    H110764   3.797   2.133   0.949  0.1788  0.5085 -1.1571
 3586TIP3    H210765   3.867   2.268   0.945  1.3674  0.0520  1.7940
 3587TIP3   OH210766   4.678   4.427   0.441 -0.3001  0.1995  0.0223
 3587TIP3    H110767   4.744   4.494   0.425 -1.6594  1.0973 -2.3557
 3587TIP3    H210768   4.721   4.344   0.419 -0.2933  0.9022 -3.0541
 3588TIP3   OH210769   2.531   5.647   3.748 -0.1549  0.1438  0.2585
 3588TIP3    H110770   2.588   5.697   3.690 -0.9985  1.1225  0.2416
 3588TIP3    H210771   2.464   5.710   3.775 -0.7429 -0.7562  0.9418
 3589TIP3   OH210772   3.736   1.640   1.239  0.5952  0.1872  0.3870
 3589TIP3    H110773   3.738   1.626   1.334  0.3873  0.1389  0.3851
 3589TIP3    H210774   3.826   1.658   1.216  0.4177  1.7172  0.8144
 3590TIP3   OH210775   2.575   0.799   4.628 -0.1681  0.6715 -0.5520
 3590TIP3    H110776   2.520   0.856   4.573 -1.1010 -0.3875 -0.7547
 3590TIP3    H210777   2.516   0.729   4.656  1.2239 -0.8986 -1.3439
 3591TIP3   OH210778   3.893   5.081   4.506  0.4039 -0.1523  0.1330
 3591TIP3    H110779   3.797   5.084   4.507  0.3955  0.3716  2.3341
 3591TIP3    H210780   3.914   5.009   4.447 -1.4390 -2.1987  1.7978
 3592TIP3   OH210781   3.004   5.168   2.017 -0.4067 -1.0289 -0.1876
 3592TIP3    H110782   2.948   5.233   2.059  0.2022 -0.4929 -0.1848
 3592TIP3    H210783   3.066   5.142   2.085 -0.2276 -1.1097 -0.3818
 3593TIP3   OH210784   5.560   2.967   3.610  0.1389 -0.4305 -0.0620
 3593TIP3    H110785   5.640   3.010   3.640  0.5895 -1.6432  0.5523
 3593TIP3    H210786   5.562   2.976   3.515  0.6783  0.0913 -0.0080
 3594TIP3   OH210787   4.287   3.784   4.187 -0.6424  0.0228  0.0943
 3594TIP3    H110788   4.316   3.846   4.254 -2.0862  1.2272 -0.3263
 3594TIP3    H210789   4.304   3.829   4.104  0.5300 -1.1860 -0.3468
 3595TIP3   OH210790   6.296   1.511   4.105 -0.5100 -0.2673 -0.0514
 3595TIP3    H110791   6.226   1.468   4.056 -1.3981  0.0867  0.8736
 3595TIP3    H210792   6.272   1.604   4.105 -0.4173 -0.2361  0.8582
 3596TIP3   OH210793   6.127   2.763   2.893 -0.0810 -0.1736 -0.6186
 3596TIP3    H110794   6.095   2.674   2.876  1.7200 -1.0370  0.1444
 3596TIP3    H210795   6.121   2.772   2.988 -2.1161  1.3360 -0.8322
 3597TIP3   OH210796   1.754   3.262   3.919  0.0481 -0.5361 -0.2377
 3597TIP3    H110797   1.752   3.228   4.009  0.7621  0.0915  0.0215
 3597TIP3    H210798   1.664   3.291   3.903  0.6388  3.0320  1.7418
 3598TIP3   OH210799   0.131   4.237   3.368  0.3379 -0.1570  0.0474
 3598TIP3    H110800   0.053   4.206   3.322 -0.2572 -0.1662  1.0296
 3598TIP3    H210801   0.192   4.164   3.365  0.3122 -0.1527 -0.7232
 3599TIP3   OH210802   1.847   3.485   1.680 -0.4909  0.1670 -0.1777
 3599TIP3    H110803   1.882   3.573   1.670  1.7229 -0.6684 -0.4795
 3599TIP3    H210804   1.844   3.450   1.591  0.0690 -0.5257  0.0588
 3600TIP3   OH210805   3.100   1.341   2.630 -0.0345  0.3154  0.2234
 3600TIP3    H110806   3.054   1.401   2.688 -0.8633 -0.0687 -0.0233
 3600TIP3    H210807   3.176   1.311   2.681 -0.0079  1.0182  0.6031
 3601TIP3   OH210808   4.692   1.252   3.965  0.0469 -0.3595  0.5151
 3601TIP3    H110809   4.707   1.184   3.900 -0.4008 -0.7319  0.8017
 3601TIP3    H210810   4.766   1.245   4.025 -0.6045 -1.3876  1.2257
 3602TIP3   OH210811   1.280   1.282   4.120  0.5716  0.0636 -0.1182
 3602TIP3    H110812   1.199   1.236   4.097 -0.4402  1.8175 -0.2627
 3602TIP3    H210813   1.272   1.367   4.076  3.0670 -0.1715 -1.1471
 3603TIP3   OH210814   3.484   1.858   0.629  0.0864  0.0989  0.1159
 3603TIP3    H110815   3.452   1.773   0.599 -0.1872 -0.1482  1.0753
 3603TIP3    H210816   3.550   1.837   0.694 -0.2686  0.6196  0.6560
 3604TIP3   OH210817   2.673   2.297   0.946 -0.2410  0.2301 -0.4482
 3604TIP3    H110818   2.693   2.304   1.039 -1.7361 -0.0082 -0.0741
 3604TIP3    H210819   2.758   2.302   0.902  0.5233 -0.0529  0.9413
 3605TIP3   OH210820   2.302   5.157  -0.007  0.5667  0.2472  0.1941
 3605TIP3    H110821   2.387   5.145   0.035  0.2415 -0.3118  0.7117
 3605TIP3    H210822   2.251   5.080   0.020 -0.2084  0.7347  0.1499
 3606TIP3   OH210823   5.534   1.279   5.030 -0.1976  0.0844 -0.2749
 3606TIP3    H110824   5.583   1.360   5.013 -0.5667  0.8835  2.0672
 3606TIP3    H210825   5.491   1.259   4.947 -0.4239  2.5234 -0.8173
 3607TIP3   OH210826   4.978   4.564   0.800 -0.4476 -0.2942 -0.0751
 3607TIP3    H110827   4.893   4.592   0.765 -0.5900  1.4230  1.4847
 3607TIP3    H210828   5.020   4.645   0.828  0.1795 -1.3928  2.4434
 3608TIP3   OH210829   2.062   1.720   2.016  0.5268 -0.4521 -0.1601
 3608TIP3    H110830   2.093   1.790   1.960 -1.7900  1.7438  1.0968
 3608TIP3    H210831   2.014   1.661   1.957 -0.1696  0.7310 -0.8038
 3609TIP3   OH210832   5.873   0.961   2.968  0.3622  0.2434 -0.0994
 3609TIP3    H110833   5.930   1.029   3.003  1.8928  0.4988 -2.7811
 3609TIP3    H210834   5.932   0.890   2.943 -0.4916  0.2513 -2.4202
 3610TIP3   OH210835   5.502   2.537   4.269 -0.8997 -0.2740  0.1411
 3610TIP3    H110836   5.419   2.489   4.276 -2.0202  1.5509  0.1228
 3610TIP3    H210837   5.516   2.547   4.175 -1.3332  0.5054  0.1558
 3611TIP3   OH210838   0.245   3.176   4.977 -0.3269 -0.1452  0.1013
 3611TIP3    H110839   0.173   3.113   4.980 -0.8945  0.4587 -0.6267
 3611TIP3    H210840   0.314   3.130   4.929  0.1136 -1.0397  1.5263
 3612TIP3   OH210841   3.637   1.185   0.256 -0.2474  0.2895  0.2712
 3612TIP3    H110842   3.578   1.241   0.306 -1.1012  1.5179 -1.9837
 3612TIP3    H210843   3.607   1.192   0.166  1.7883 -1.0958 -0.6015
 3613TIP3   OH210844   3.938   3.442   3.336 -0.4044 -0.3113 -0.4189
 3613TIP3    H110845   3.971   3.352   3.332 -0.8049 -0.4892  0.1453
 3613TIP3    H210846   3.860   3.441   3.280  0.1048 -0.0739 -1.1581
 3614TIP3   OH210847   5.668   0.074   2.226  0.3128  0.2437  0.4038
 3614TIP3    H110848   5.759   0.095   2.204  0.3714  0.3590  0.7439
 3614TIP3    H210849   5.624   0.159   2.229 -0.4292  0.0748 -2.3112
 3615TIP3   OH210850   5.127   3.905   2.663  0.0840  0.2486 -0.1132
 3615TIP3    H110851   5.069   3.933   2.593 -0.6018  2.3789  1.2370
 3615TIP3    H210852   5.102   3.814   2.680 -1.3309  0.4355 -1.0399
 3616TIP3   OH210853   1.246   2.035   0.623  0.4505 -0.2072  0.1303
 3616TIP3    H110854   1.296   2.106   0.663  0.3727  1.0405 -1.8555
 3616TIP3    H210855   1.307   1.994   0.561  0.1426 -1.1739  0.4400
 3617TIP3   OH210856   4.922   1.912   4.134  0.1482 -0.2828  0.3527
 3617TIP3    H110857   4.905   1.840   4.073  0.8355  0.4944 -0.7980
 3617TIP3    H210858   4.839   1.958   4.140 -0.3266 -1.1956  1.1754
 3618TIP3   OH210859   3.872   1.251   0.648 -0.2240 -0.2492 -0.0481
 3618TIP3    H110860   3.864   1.313   0.720 -2.4076 -0.1388 -0.3289
 3618TIP3    H210861   3.836   1.298   0.572 -0.7600 -1.4195 -0.5389
 3619TIP3   OH210862   4.724   5.925   0.412 -0.0343  0.1375  0.2421
 3619TIP3    H110863   4.727   5.998   0.349  0.2275  0.1214  0.2341
 3619TIP3    H210864   4.807   5.931   0.460 -0.1159 -0.0124  0.4030
 3620TIP3   OH210865  -0.018   4.613   3.575  0.0832 -0.0832  0.2098
 3620TIP3    H110866   0.043   4.592   3.646  1.2785 -1.2385 -1.1058
 3620TIP3    H210867   0.038   4.650   3.506 -1.1015  1.3051 -0.0544
 3621TIP3   OH210868   0.980   4.465   4.275 -0.2933  0.1560  0.3659
 3621TIP3    H110869   1.002   4.376   4.247 -0.1314  0.2891  0.0601
 3621TIP3    H210870   0.973   4.459   4.370 -1.5858 -0.4760  0.2610
 3622TIP3   OH210871   4.492   2.825   1.365 -0.7243 -0.2276  0.5198
 3622TIP3    H110872   4.480   2.759   1.296  1.3425  1.8636 -2.0586
 3622TIP3    H210873   4.586   2.843   1.364 -0.0169 -1.8766  5.8273
 3623TIP3   OH210874   3.138   2.697   3.565  0.1702 -0.1428 -0.1419
 3623TIP3    H110875   3.213   2.666   3.616  0.3912  2.0638  1.0533
 3623TIP3    H210876   3.177   2.745   3.492 -0.0051  1.2248  0.6204
 3624TIP3   OH210877   4.174   4.438   1.017  0.7350  0.5060 -0.2942
 3624TIP3    H110878   4.084   4.470   1.031  0.0244 -0.9166 -1.3598
 3624TIP3    H210879   4.229   4.513   1.040 -0.7622  1.7916 -0.6323
 3625TIP3   OH210880   0.569   5.113   2.683 -0.3199  0.1233  0.4909
 3625TIP3    H110881   0.663   5.124   2.691  0.1930 -0.4669 -3.1272
 3625TIP3    H210882   0.532   5.188   2.732  2.0278  1.1775  0.7919
 3626TIP3   OH210883   6.268   2.241   2.880 -0.3170 -1.3416  0.1484
 3626TIP3    H110884   6.204   2.305   2.849 -0.5311 -2.7861 -2.7423
 3626TIP3    H210885   6.218   2.161   2.893  0.4224 -1.7145  0.7818
 3627TIP3   OH210886   2.396   2.290   1.122  0.2419  0.2016  0.4919
 3627TIP3    H110887   2.457   2.352   1.162  0.9935 -0.4293  0.3585
 3627TIP3    H210888   2.316   2.297   1.175  0.9971 -0.1618  1.7301
 3628TIP3   OH210889   6.075   0.959   0.916  0.0070  0.3136 -0.5410
 3628TIP3    H110890   6.052   1.021   0.985 -0.8044 -1.4268  0.8171
 3628TIP3    H210891   6.006   0.892   0.919  0.8013 -0.6370 -1.9982
 3629TIP3   OH210892   3.756   0.489   1.075  0.3790 -0.5808 -0.2223
 3629TIP3    H110893   3.701   0.525   1.143  0.2131  1.2879 -1.2904
 3629TIP3    H210894   3.767   0.397   1.099 -0.0705 -0.0953  2.0214
 3630TIP3   OH210895   5.397   0.159   4.810 -0.5127 -0.1933 -0.7198
 3630TIP3    H110896   5.383   0.125   4.722 -0.5204 -0.6245 -0.5535
 3630TIP3    H210897   5.327   0.122   4.863 -0.9561  0.6610 -0.6799
 3631TIP3   OH210898   2.687   2.071   3.969  0.2977 -0.0515 -0.0211
 3631TIP3    H110899   2.601   2.032   3.953 -0.0592  0.6326  0.1919
 3631TIP3    H210900   2.668   2.153   4.015  0.9191  1.1456 -1.8039
 3632TIP3   OH210901   1.556   1.574   0.637 -0.3802 -0.6098  0.3819
 3632TIP3    H110902   1.598   1.560   0.553  0.4237  0.2997  0.6185
 3632TIP3    H210903   1.463   1.585   0.617 -0.0189  1.0175 -0.5498
 3633TIP3   OH210904   2.041   1.233   2.748 -0.0460 -0.1561  0.0554
 3633TIP3    H110905   2.102   1.266   2.682  1.7368  0.7990  2.0405
 3633TIP3    H210906   1.961   1.213   2.700  1.3215  0.0052 -2.4388
 3634TIP3   OH210907   4.159   0.031   1.136 -0.0282  0.0445  0.0155
 3634TIP3    H110908   4.237   0.011   1.084 -0.0616 -1.1071  0.3907
 3634TIP3    H210909   4.091  -0.026   1.100 -0.5079  0.5073  0.1781
 3635TIP3   OH210910   4.980   0.950   0.158  0.0956 -0.4861  0.4057
 3635TIP3    H110911   4.893   0.915   0.137  0.8918 -1.4049 -1.6320
 3635TIP3    H210912   5.009   0.991   0.076  0.8805  1.3845  1.5766
 3636TIP3   OH210913   4.741   0.197   4.255 -0.1862  0.0960 -0.0012
 3636TIP3    H110914   4.833   0.180   4.232 -0.2189  1.3291 -1.1323
 3636TIP3    H210915   4.745   0.237   4.342  0.4118  0.7509 -0.3217
 3637TIP3   OH210916   3.191   0.005   0.417 -0.3134 -0.1996  0.2467
 3637TIP3    H110917   3.099   0.025   0.432  0.1829  0.0421  3.6914
 3637TIP3    H210918   3.221   0.073   0.355 -2.1809  0.2668 -0.2059
 3638TIP3   OH210919   4.707   2.623   2.461 -0.0292  0.1685  0.6129
 3638TIP3    H110920   4.639   2.579   2.410  1.0456 -1.5071  0.5704
 3638TIP3    H210921   4.673   2.712   2.473 -1.8583 -0.3814 -0.0733
 3639TIP3   OH210922   2.596   5.677   3.268 -0.4037 -0.2884 -0.0641
 3639TIP3    H110923   2.535   5.674   3.194  0.2418  0.3566 -0.6387
 3639TIP3    H210924   2.608   5.771   3.285 -0.9354 -0.4314  1.1985
 3640TIP3   OH210925   3.269   1.887   1.767 -0.0399  0.5141 -0.4438
 3640TIP3    H110926   3.327   1.820   1.733  1.3191  0.8510  1.0698
 3640TIP3    H210927   3.317   1.926   1.840 -2.3580  0.4714  1.2292
 3641TIP3   OH210928   3.642   1.098   0.899  0.2406  0.2980 -0.0437
 3641TIP3    H110929   3.656   1.108   0.805  0.6027  0.4409  0.0222
 3641TIP3    H210930   3.548   1.110   0.911  0.2588  0.7473 -0.3337
 3642TIP3   OH210931   3.679   0.160   0.696 -0.5555 -0.1306 -0.2845
 3642TIP3    H110932   3.674   0.176   0.602 -0.6796  2.6434  0.1260
 3642TIP3    H210933   3.772   0.144   0.713 -0.7194 -2.2488 -1.0162
 3643TIP3   OH210934   0.387   0.367   2.226 -0.3481  0.4780  0.3030
 3643TIP3    H110935   0.435   0.334   2.302  0.2089  0.8360  0.1192
 3643TIP3    H210936   0.385   0.462   2.238 -1.8213  0.4017  0.7635
 3644TIP3   OH210937   1.781   4.713   1.702 -0.0991 -0.3712  0.6637
 3644TIP3    H110938   1.777   4.638   1.644  0.2755  0.6328 -0.7092
 3644TIP3    H210939   1.792   4.676   1.790  1.5092 -1.8745 -0.1333
 3645TIP3   OH210940   4.517   4.651   3.979  0.4645 -0.1210 -0.7026
 3645TIP3    H110941   4.447   4.668   3.917  0.1463 -0.5356 -0.4655
 3645TIP3    H210942   4.476   4.599   4.049  1.2256 -1.2540 -1.0605
 3646TIP3   OH210943   0.336   2.636   1.192 -0.2000  0.2344 -0.3984
 3646TIP3    H110944   0.250   2.676   1.179 -0.3344 -0.1643 -0.7430
 3646TIP3    H210945   0.377   2.636   1.106  0.2636  0.6869 -0.1800
 3647TIP3   OH210946   5.246   0.376   1.463  0.6409 -0.0704  0.0216
 3647TIP3    H110947   5.334   0.390   1.429  0.3852 -0.7800 -0.9890
 3647TIP3    H210948   5.214   0.464   1.485  1.1272  0.3226 -0.8228
 3648TIP3   OH210949   4.256   3.529   3.941 -0.1359  0.2511  0.0534
 3648TIP3    H110950   4.234   3.477   4.018 -2.2124  1.1125  0.1277
 3648TIP3    H210951   4.179   3.521   3.884 -0.0965  2.3389 -0.3956
 3649TIP3   OH210952   3.153   1.722   3.262 -0.9009 -0.4107 -0.6666
 3649TIP3    H110953   3.133   1.727   3.169 -0.7952 -2.2797 -0.8398
 3649TIP3    H210954   3.235   1.673   3.266 -1.7178 -1.7676  0.4479
 3650TIP3   OH210955   3.654   2.836   3.219 -0.0587  0.0470 -0.5539
 3650TIP3    H110956   3.684   2.812   3.132 -0.6937 -1.0687 -0.4831
 3650TIP3    H210957   3.645   2.752   3.265 -1.7086  0.4647 -0.0696
 3651TIP3   OH210958   4.728   1.344   2.805  0.1325  0.6838  0.2670
 3651TIP3    H110959   4.684   1.419   2.845  0.4477  0.7570  0.4805
 3651TIP3    H210960   4.668   1.315   2.736 -0.2622  0.7650  0.5717
 3652TIP3   OH210961   6.058   0.559   4.412  0.1190  0.2712 -0.3635
 3652TIP3    H110962   5.975   0.511   4.411 -1.7849  3.1721  2.1271
 3652TIP3    H210963   6.075   0.580   4.320  0.0630 -3.2812 -1.3347
 3653TIP3   OH210964   0.291   0.164   3.137 -0.0585 -0.2256  0.0542
 3653TIP3    H110965   0.196   0.160   3.148  0.0214 -0.5508  0.6619
 3653TIP3    H210966   0.325   0.095   3.194  0.5806  0.3203  0.3505
 3654TIP3   OH210967   0.953   1.221   1.812 -0.2501 -0.6883 -0.3771
 3654TIP3    H110968   0.957   1.135   1.853  2.0168  0.0520  1.1307
 3654TIP3    H210969   0.919   1.279   1.881 -1.7158 -0.3375 -1.3583
 3655TIP3   OH210970   3.131   4.140   2.085  0.2089  0.1542 -0.1966
 3655TIP3    H110971   3.115   4.229   2.118 -0.7507  0.1071 -0.5247
 3655TIP3    H210972   3.097   4.141   1.996 -2.1170 -1.2338  0.5914
 3656TIP3   OH210973   4.723   0.386   0.347  0.2266 -0.3921  0.3876
 3656TIP3    H110974   4.717   0.417   0.438  2.0233 -1.1118  0.8085
 3656TIP3    H210975   4.657   0.436   0.300 -0.3452  0.4319  1.9819
 3657TIP3   OH210976   2.601   5.807   2.856  0.7252 -0.1769  0.5931
 3657TIP3    H110977   2.624   5.884   2.907  0.4394  1.2923 -1.3693
 3657TIP3    H210978   2.657   5.812   2.778 -1.7157  0.0446 -1.2723
 3658TIP3   OH210979   2.646   3.577   0.425  0.0927  0.1314  0.5239
 3658TIP3    H110980   2.726   3.596   0.473  0.2721 -0.4217  0.4501
 3658TIP3    H210981   2.666   3.599   0.334  0.0855  0.2150  0.5428
 3659TIP3   OH210982   1.934   1.944   4.181  0.2244 -0.3504 -0.4968
 3659TIP3    H110983   1.936   1.860   4.135 -1.3820 -0.8573  0.2734
 3659TIP3    H210984   1.997   1.935   4.252 -0.0246 -0.9466 -0.3523
 3660TIP3   OH210985   3.842   4.339   1.804  0.4511 -0.2967 -0.5398
 3660TIP3    H110986   3.879   4.333   1.716 -0.7749 -0.0031 -1.0963
 3660TIP3    H210987   3.747   4.340   1.790  0.1566 -2.2346  0.8955
 3661TIP3   OH210988   5.969   1.037   3.712 -0.4089 -0.2998 -0.4529
 3661TIP3    H110989   5.937   1.017   3.800 -1.8624  0.1674 -0.8448
 3661TIP3    H210990   5.963   0.954   3.664 -0.2945 -0.3932 -0.3037
 3662TIP3   OH210991   2.072   0.530   1.315  0.2465  0.1241 -0.0230
 3662TIP3    H110992   2.125   0.540   1.394  0.0646  0.1599  0.0975
 3662TIP3    H210993   2.049   0.620   1.291  0.5683  0.1334 -0.3032
 3663TIP3   OH210994   0.370   4.815   2.191  0.2437  0.2027  0.1602
 3663TIP3    H110995   0.450   4.835   2.240 -0.3756 -0.3261  1.4292
 3663TIP3    H210996   0.317   4.762   2.251  0.2168 -2.0840 -1.7294
 3664TIP3   OH210997   4.657   2.300   1.392  0.6405 -0.5816  0.0667
 3664TIP3    H110998   4.679   2.241   1.321 -0.2538 -0.6691 -0.1576
 3664TIP3    H210999   4.654   2.245   1.470  1.6441 -0.4811  0.1809
 3665TIP3   OH211000   2.658   2.808   3.651  0.2408 -0.5446 -0.0398
 3665TIP3    H111001   2.600   2.756   3.597  0.4233  0.3444 -1.1510
 3665TIP3    H211002   2.746   2.779   3.626  0.2984 -1.8677  1.6132
 3666TIP3   OH211003   4.470   4.592   2.827  0.0984  0.1023  0.2868
 3666TIP3    H111004   4.423   4.673   2.845  0.0935  0.0556  0.4850
 3666TIP3    H211005   4.500   4.602   2.736 -1.7389 -0.5907 -0.4416
 3667TIP3   OH211006   0.424   0.406   3.616  0.3003  0.1975 -0.5349
 3667TIP3    H111007   0.399   0.401   3.523  1.1091  2.3160 -0.9261
 3667TIP3    H211008   0.497   0.345   3.624 -1.7485 -2.4289 -0.4751
 3668TIP3   OH211009   6.121   4.171   2.929  0.2571 -0.0144 -0.0148
 3668TIP3    H111010   6.073   4.163   2.847 -0.3623  1.0527  0.2292
 3668TIP3    H211011   6.177   4.248   2.917  0.7583 -0.3258  0.2738
 3669TIP3   OH211012   2.764   1.731   1.712  0.4874 -0.0876  0.2500
 3669TIP3    H111013   2.784   1.737   1.806 -1.4139  0.6859  0.6451
 3669TIP3    H211014   2.735   1.640   1.700 -3.7448  0.8698  1.4924
 3670TIP3   OH211015   0.512   0.838   3.019  0.0533 -0.2707  0.0138
 3670TIP3    H111016   0.510   0.896   2.943 -0.4331  0.0972  0.3000
 3670TIP3    H211017   0.492   0.896   3.093 -1.4304 -0.9778  0.1961
 3671TIP3   OH211018   5.435   3.524   0.364 -0.5331  0.5201 -0.4915
 3671TIP3    H111019   5.362   3.472   0.395 -1.6586  0.3172 -3.1804
 3671TIP3    H211020   5.418   3.612   0.398  0.0678 -0.2503  2.0098
 3672TIP3   OH211021   1.833   5.772   1.116 -0.0393 -0.0512  0.3837
 3672TIP3    H111022   1.896   5.712   1.158  0.5846  0.5650  0.3529
 3672TIP3    H211023   1.829   5.741   1.025 -0.7984 -0.9059  0.6933
 3673TIP3   OH211024   3.937   3.113   0.495 -0.2438 -0.3226  0.0050
 3673TIP3    H111025   4.016   3.071   0.529 -0.5352 -0.7906  0.1162
 3673TIP3    H211026   3.881   3.040   0.468 -0.3741  0.0230 -0.6743
 3674TIP3   OH211027  -0.019   4.495   0.415 -0.2225  0.3042 -1.0841
 3674TIP3    H111028   0.077   4.493   0.408 -0.0882  0.5867  0.3415
 3674TIP3    H211029  -0.039   4.587   0.434 -0.6818  0.0684 -0.3724
 3675TIP3   OH211030   2.267   0.060   2.559 -0.1326  0.7028 -0.5381
 3675TIP3    H111031   2.231   0.007   2.488  1.0476  2.1085 -2.2427
 3675TIP3    H211032   2.304   0.137   2.516  1.2872  1.2528  1.5306
 3676TIP3   OH211033   0.155   5.907   2.822 -0.6027 -0.4287 -0.3562
 3676TIP3    H111034   0.178   5.918   2.730  0.4778  0.2173 -0.0280
 3676TIP3    H211035   0.069   5.948   2.830 -0.0927  0.7894 -0.8118
 3677TIP3   OH211036   0.526   2.216   3.530 -0.2966  0.2508  0.5056
 3677TIP3    H111037   0.481   2.234   3.448  0.1045 -1.2224 -0.0551
 3677TIP3    H211038   0.601   2.275   3.530  0.1816 -0.3419 -0.5993
 3678TIP3   OH211039   0.638   0.907   2.633  0.2847 -0.2231 -0.1455
 3678TIP3    H111040   0.692   0.922   2.556 -0.3979 -0.6170 -0.7164
 3678TIP3    H211041   0.685   0.841   2.684  0.8889  0.2648 -0.0638
 3679TIP3   OH211042   5.400   3.149   2.494 -0.3141  0.0171  0.2529
 3679TIP3    H111043   5.378   3.085   2.561  1.3125 -1.9773 -1.0091
 3679TIP3    H211044   5.323   3.153   2.437 -1.3694  1.0908  1.6877
 3680TIP3   OH211045   6.104   4.216   3.683 -0.3610  0.4463  0.2994
 3680TIP3    H111046   6.102   4.184   3.773  0.1767 -0.6111 -0.0399
 3680TIP3    H211047   6.082   4.139   3.630  1.7570  0.3841 -0.5884
 3681TIP3   OH211048   0.703   1.990   3.316  0.0296 -0.0477 -0.3086
 3681TIP3    H111049   0.644   1.954   3.251 -0.1901  2.4746 -1.6034
 3681TIP3    H211050   0.786   1.945   3.300 -0.2578 -0.1075 -1.7552
 3682TIP3   OH211051   2.832   2.635   4.317  0.0361  0.0633  0.6471
 3682TIP3    H111052   2.835   2.590   4.402  0.3189  0.7117  0.9839
 3682TIP3    H211053   2.841   2.727   4.338 -2.6874  0.5325  0.1461
 3683TIP3   OH211054   3.736   1.928   3.689  0.4494 -0.1222 -0.2253
 3683TIP3    H111055   3.646   1.898   3.690  0.8183 -1.2945 -0.5200
 3683TIP3    H211056   3.773   1.899   3.773  0.6083  0.1595 -0.1959
 3684TIP3   OH211057   3.431   1.679   5.111 -0.2177  0.2648  0.1638
 3684TIP3    H111058   3.373   1.612   5.077 -1.0595  0.8854  0.3235
 3684TIP3    H211059   3.520   1.644   5.099 -0.4257  0.5794 -2.9415
 3685TIP3   OH211060   0.203   5.781   1.152 -0.5558 -0.2939 -0.2660
 3685TIP3    H111061   0.226   5.779   1.059 -0.7667 -0.9126 -0.3146
 3685TIP3    H211062   0.136   5.713   1.161  0.1939 -0.9654  0.5192
 3686TIP3   OH211063   0.766   0.470   4.708  0.4977  0.3902  0.3356
 3686TIP3    H111064   0.739   0.383   4.738  1.4532  0.1964  0.6656
 3686TIP3    H211065   0.807   0.510   4.785 -0.8490  1.5479  0.5020
 3687TIP3   OH211066   0.035   1.831   0.790  0.0495 -0.3901  0.1667
 3687TIP3    H111067   0.096   1.758   0.782 -0.3211 -0.5295 -2.0698
 3687TIP3    H211068   0.081   1.906   0.753  0.0260  0.3113  1.4710
 3688TIP3   OH211069   3.440   0.937   4.528  0.5401  0.1337 -0.5270
 3688TIP3    H111070   3.428   0.961   4.620  1.6645  0.0882 -0.3558
 3688TIP3    H211071   3.451   1.020   4.482 -1.8742  0.2900 -0.9470
 3689TIP3   OH211072   5.947   4.853   3.323 -0.1992 -0.7398 -0.3452
 3689TIP3    H111073   5.983   4.818   3.404  0.8956 -1.0451 -0.9493
 3689TIP3    H211074   5.992   4.805   3.254  1.5464  1.9508 -1.2295
 3690TIP3   OH211075   1.149   3.145   4.661 -0.1957 -0.0009 -0.4123
 3690TIP3    H111076   1.067   3.107   4.690  0.0406 -2.5086 -2.6433
 3690TIP3    H211077   1.124   3.218   4.604 -0.6894  1.7772  1.9085
 3691TIP3   OH211078   4.695   5.620   2.175  0.0157 -0.3409  0.8584
 3691TIP3    H111079   4.713   5.550   2.113 -2.2333 -1.5190  1.4420
 3691TIP3    H211080   4.717   5.700   2.127 -0.5727 -1.2657 -1.0707
 3692TIP3   OH211081   3.073   4.480   0.137 -0.1724 -0.4608  0.5920
 3692TIP3    H111082   3.139   4.431   0.186 -1.3787 -1.1767  1.5443
 3692TIP3    H211083   2.991   4.436   0.156 -1.0356  0.8077 -0.0524
 3693TIP3   OH211084   1.342   5.955   3.813 -0.3897  0.0191 -0.0409
 3693TIP3    H111085   1.318   5.879   3.866  0.9290 -1.7385 -1.8162
 3693TIP3    H211086   1.349   5.920   3.723  0.4946  2.1865 -0.8753
 3694TIP3   OH211087   6.111   0.906   1.383 -0.2915 -0.2657 -0.5232
 3694TIP3    H111088   6.150   0.992   1.369 -0.0574  0.0150  1.5344
 3694TIP3    H211089   6.032   0.923   1.435 -1.4973 -1.1186 -1.9939
 3695TIP3   OH211090   6.084   0.647   4.108 -0.5669 -0.0201 -0.6439
 3695TIP3    H111091   6.162   0.594   4.120 -0.5616  0.0067 -0.5640
 3695TIP3    H211092   6.114   0.737   4.116 -0.4603  0.0219 -1.4055
 3696TIP3   OH211093   1.414   0.414   3.856  0.0148 -0.1620  0.7740
 3696TIP3    H111094   1.436   0.348   3.922  0.3461 -0.1364  0.6881
 3696TIP3    H211095   1.400   0.494   3.906 -0.4084 -0.2977  0.8807
 3697TIP3   OH211096   5.770   5.446   0.462  0.5036 -0.0955 -0.1216
 3697TIP3    H111097   5.675   5.441   0.454  0.5907 -0.1981 -1.3068
 3697TIP3    H211098   5.791   5.391   0.537 -0.6920  3.0001  2.7593
 3698TIP3   OH211099   5.832   2.116   0.846  0.0287  0.2387  0.1088
 3698TIP3    H111100   5.831   2.104   0.941 -0.1017 -1.1967 -0.0421
 3698TIP3    H211101   5.919   2.150   0.827 -0.0542  0.8392  0.7751
 3699TIP3   OH211102   2.515   1.460   0.809  0.2339  0.0988 -0.2353
 3699TIP3    H111103   2.428   1.456   0.768 -0.1949 -0.5458  0.7032
 3699TIP3    H211104   2.497   1.479   0.901  1.1833  1.6420 -0.3193
 3700TIP3   OH211105   2.666   5.501   2.299  0.1633 -0.5373  0.1322
 3700TIP3    H111106   2.676   5.508   2.393  0.0196 -1.7992  0.2589
 3700TIP3    H211107   2.592   5.441   2.287 -0.5931  0.5322 -0.7877
 3701TIP3   OH211108   1.235   1.105   4.718 -0.1825 -0.4096  0.2499
 3701TIP3    H111109   1.324   1.076   4.740  0.0796  1.0152  1.1808
 3701TIP3    H211110   1.232   1.103   4.622  1.7611  1.9998  0.0480
 3702TIP3   OH211111   4.882   4.612   4.161  0.5030 -0.3781  0.0150
 3702TIP3    H111112   4.957   4.649   4.208  0.1608 -0.6783  0.8291
 3702TIP3    H211113   4.806   4.657   4.198  0.3098  0.2943 -1.1645
 3703TIP3   OH211114   1.746   4.263   0.408 -0.0459 -0.2525  0.1361
 3703TIP3    H111115   1.743   4.275   0.503  1.7559  2.7950 -0.0358
 3703TIP3    H211116   1.720   4.172   0.394 -1.5772 -0.4837  3.4105
 3704TIP3   OH211117   1.822   0.913   3.915  0.9475  0.4192 -0.1659
 3704TIP3    H111118   1.768   0.911   3.994  1.8986  1.3331  0.5230
 3704TIP3    H211119   1.858   1.002   3.913  2.5323 -0.2117 -0.5397
 3705TIP3   OH211120   5.412   3.902   3.372  0.1824 -0.2971 -0.2509
 3705TIP3    H111121   5.330   3.884   3.328 -0.8949  0.9955  1.1260
 3705TIP3    H211122   5.472   3.927   3.302 -1.3015  1.1337 -1.0680
 3706TIP3   OH211123   0.926   2.829   4.173 -0.4288  0.5550 -0.3152
 3706TIP3    H111124   0.868   2.760   4.204 -1.3901  1.1439 -0.7716
 3706TIP3    H211125   1.004   2.821   4.228 -0.4647 -0.9640 -0.4467
 3707TIP3   OH211126   4.650   3.465   3.254  0.3840  0.0493 -0.3231
 3707TIP3    H111127   4.624   3.556   3.270 -0.0300 -0.1652  0.2068
 3707TIP3    H211128   4.647   3.457   3.159 -0.0525  0.4505 -0.3497
 3708TIP3   OH211129   4.491   2.281   4.678 -0.1677 -0.0871  0.0833
 3708TIP3    H111130   4.475   2.302   4.586  0.7159 -1.2660 -0.3724
 3708TIP3    H211131   4.502   2.366   4.720  1.4519  0.4563 -1.3030
 3709TIP3   OH211132   2.001   2.820   2.631  0.0017 -0.4750  0.2763
 3709TIP3    H111133   1.914   2.836   2.667  0.5094 -1.1964  1.8794
 3709TIP3    H211134   2.058   2.817   2.707  1.3261 -0.7712 -0.7029
 3710TIP3   OH211135   3.963   0.221   4.013 -0.5405 -0.1291 -0.6925
 3710TIP3    H111136   4.023   0.247   3.943  1.0590 -0.9033  0.3278
 3710TIP3    H211137   3.992   0.270   4.089 -0.6981 -1.1176  0.0223
 3711TIP3   OH211138   2.666   3.244   4.089 -0.0343  0.6111  0.5021
 3711TIP3    H111139   2.723   3.279   4.020  0.8631  1.5799  1.6908
 3711TIP3    H211140   2.653   3.318   4.149 -0.6621 -0.2543  1.4663
 3712TIP3   OH211141   5.015   2.380   2.220 -0.6750  0.4474  0.0149
 3712TIP3    H111142   4.945   2.392   2.156 -0.0570  0.2658 -0.7084
 3712TIP3    H211143   4.989   2.435   2.294 -0.4137  2.2860 -1.1864
 3713TIP3   OH211144   5.505   5.809   2.763  0.1500  0.3735 -0.1535
 3713TIP3    H111145   5.531   5.822   2.672 -1.3394  1.6595 -0.4483
 3713TIP3    H211146   5.579   5.840   2.814  1.2632 -0.9499 -0.8995
 3714TIP3   OH211147   2.086   1.902   1.780  0.3422 -0.2439  0.1328
 3714TIP3    H111148   1.993   1.902   1.759  0.1179  1.5155  0.9288
 3714TIP3    H211149   2.130   1.888   1.696 -0.6117  2.3159 -0.9171
 3715TIP3   OH211150   1.464   5.458   4.392 -0.2395  0.2230  0.8452
 3715TIP3    H111151   1.441   5.548   4.368 -0.6294 -0.1984 -0.4207
 3715TIP3    H211152   1.559   5.458   4.395 -0.1449  0.2455 -1.0279
 3716TIP3   OH211153   3.432   5.522   1.727 -0.7048 -0.1172 -0.2429
 3716TIP3    H111154   3.376   5.574   1.670 -0.3817 -0.6207 -1.0311
 3716TIP3    H211155   3.380   5.444   1.747 -0.1012 -0.8422 -1.4175
 3717TIP3   OH211156   5.567   2.090   4.617  0.1640  0.0553  0.8034
 3717TIP3    H111157   5.550   2.012   4.670  0.6024 -0.2945  0.4413
 3717TIP3    H211158   5.599   2.155   4.680 -0.7074  0.1223  1.1924
 3718TIP3   OH211159   5.039   2.387   1.181  0.6553  0.5472  0.1793
 3718TIP3    H111160   4.958   2.405   1.228  0.7407  1.9975 -0.1746
 3718TIP3    H211161   5.108   2.416   1.240  1.0458 -1.9128  1.0467
 3719TIP3   OH211162   1.775   1.104   1.160  0.8207  0.0689  0.4090
 3719TIP3    H111163   1.720   1.110   1.082  1.7515  0.6909 -0.2206
 3719TIP3    H211164   1.716   1.126   1.232  0.2064  0.5992 -0.2397
 3720TIP3   OH211165   6.138   4.633   2.883  0.3681 -0.0855  0.3841
 3720TIP3    H111166   6.217   4.670   2.844 -1.0366  1.3894 -1.2001
 3720TIP3    H211167   6.165   4.545   2.910  2.7305  0.6145  0.5793
 3721TIP3   OH211168   2.823   5.263   4.487  0.2982  0.4415 -0.1859
 3721TIP3    H111169   2.735   5.227   4.487  0.8104 -0.8887 -0.1818
 3721TIP3    H211170   2.828   5.317   4.408 -0.4784  0.4480 -0.2363
 3722TIP3   OH211171   5.623   4.025   0.023  0.1614  0.4725 -0.3295
 3722TIP3    H111172   5.600   3.956  -0.038 -0.2716  0.4894 -0.1848
 3722TIP3    H211173   5.542   4.046   0.069 -0.1039  2.1768 -1.4655
 3723TIP3   OH211174   1.593   1.993   1.102  0.2538  0.1388 -0.2196
 3723TIP3    H111175   1.573   2.086   1.095 -0.3509  0.0186 -0.1444
 3723TIP3    H211176   1.528   1.950   1.046 -0.0563 -0.3006  0.4593
 3724TIP3   OH211177   0.209   5.058   0.203 -0.5800 -0.3240 -0.5354
 3724TIP3    H111178   0.127   5.010   0.208 -0.6488 -0.1400  0.6094
 3724TIP3    H211179   0.266   5.005   0.149 -1.4392 -0.4756 -1.3094
 3725TIP3   OH211180   5.797   0.616   1.448 -0.3026 -0.2670 -0.0687
 3725TIP3    H111181   5.876   0.580   1.489  0.2301 -0.2082 -1.0374
 3725TIP3    H211182   5.759   0.671   1.517  1.0370  0.5151  0.0922
 3726TIP3   OH211183   5.320   5.558   3.559  0.3153  0.2634  0.6716
 3726TIP3    H111184   5.376   5.481   3.568  0.0360  0.0274  0.4307
 3726TIP3    H211185   5.310   5.592   3.648  0.7408  0.2373  0.7285
 3727TIP3   OH211186   5.704   5.942   2.283  0.0294 -0.2584  0.8946
 3727TIP3    H111187   5.618   5.932   2.242 -0.3039 -0.0264  1.5083
 3727TIP3    H211188   5.766   5.912   2.218 -0.4896  0.0163  0.2641
 3728TIP3   OH211189   3.603   4.313   1.251  0.3487 -0.3301 -0.4402
 3728TIP3    H111190   3.695   4.339   1.259 -0.1004  1.2732 -0.1527
 3728TIP3    H211191   3.555   4.396   1.242 -1.0966 -1.1154 -0.2870
 3729TIP3   OH211192   0.614   3.738   4.209  0.1735  0.1006  0.0070
 3729TIP3    H111193   0.652   3.726   4.121  1.0664 -1.2949  0.5330
 3729TIP3    H211194   0.522   3.714   4.198  0.2380  0.0972 -0.5903
 3730TIP3   OH211195   2.125   3.165   1.225  0.1316  1.1231  0.0806
 3730TIP3    H111196   2.087   3.101   1.286 -0.2362  1.1319 -0.1354
 3730TIP3    H211197   2.217   3.140   1.218  0.3996  1.6886  1.3693
 3731TIP3   OH211198   2.459   4.348   2.745  0.2798 -0.0970 -0.4037
 3731TIP3    H111199   2.460   4.359   2.650  0.0596  0.4659 -0.3471
 3731TIP3    H211200   2.469   4.254   2.759 -0.1347 -0.2354 -0.9963
 3732TIP3   OH211201   1.994   3.749   2.531 -0.7563  0.2720 -0.0480
 3732TIP3    H111202   2.073   3.728   2.482 -1.4853 -0.7021 -0.8429
 3732TIP3    H211203   1.925   3.752   2.465 -1.1779  2.6394  0.3870
 3733TIP3   OH211204   1.996   0.278   4.705  0.5399 -0.5296  0.2401
 3733TIP3    H111205   2.089   0.268   4.683  0.6604  0.8579 -0.0012
 3733TIP3    H211206   1.993   0.267   4.800  0.9017 -0.8793  0.2147
 3734TIP3   OH211207   6.258   3.616   0.204  0.3282  0.3253 -0.0355
 3734TIP3    H111208   6.218   3.686   0.257  0.3623  0.4843 -0.2183
 3734TIP3    H211209   6.337   3.592   0.252  1.2249  1.5812 -0.8091
 3735TIP3   OH211210   3.666   3.558   0.898  0.4505  0.1113 -0.3411
 3735TIP3    H111211   3.759   3.543   0.881  0.8310  2.7184 -1.0061
 3735TIP3    H211212   3.621   3.514   0.826  1.3259  0.4810 -1.1343
 3736TIP3   OH211213   1.306   4.025   0.460  0.2247 -0.6379  0.2500
 3736TIP3    H111214   1.385   4.025   0.407  0.3715 -1.2866  0.4520
 3736TIP3    H211215   1.326   3.966   0.533  0.6603  1.5328  1.9870
 3737TIP3   OH211216   4.211   4.981   1.713  0.0739 -0.1908 -0.2525
 3737TIP3    H111217   4.281   5.008   1.773  0.5190  0.7817 -1.1746
 3737TIP3    H211218   4.143   5.047   1.727 -0.0153 -0.2397 -0.4669
 3738TIP3   OH211219   3.281   2.955   4.221 -0.5316  0.3953  0.7669
 3738TIP3    H111220   3.200   3.005   4.233 -0.6879 -0.0039  1.4169
 3738TIP3    H211221   3.345   3.000   4.277 -0.4787  0.3128  0.7728
 3739TIP3   OH211222   2.077   3.267   3.851  0.3119 -0.2956 -0.0811
 3739TIP3    H111223   2.081   3.172   3.844  1.2274 -0.2814  0.1735
 3739TIP3    H211224   1.988   3.290   3.822  0.7183 -1.0607 -2.1189
 3740TIP3   OH211225   2.916   0.262   1.264 -0.0856 -0.0575 -0.3153
 3740TIP3    H111226   3.004   0.262   1.226  0.8606 -1.4714  1.6563
 3740TIP3    H211227   2.911   0.346   1.311 -0.3839  0.6728 -1.6094
 3741TIP3   OH211228   5.385   3.195   0.254 -0.4144 -0.4570 -0.2153
 3741TIP3    H111229   5.318   3.249   0.296  2.4186  0.9473  3.0628
 3741TIP3    H211230   5.372   3.108   0.292  0.0123  0.0062  1.0702
 3742TIP3   OH211231   0.361   2.551   4.803  0.1995  0.1611 -0.1913
 3742TIP3    H111232   0.341   2.486   4.870  2.3580  0.6344  0.9900
 3742TIP3    H211233   0.279   2.600   4.792 -0.8293 -1.3313  0.4577
 3743TIP3   OH211234   1.982   4.950   2.145 -0.5162  0.2447  0.1997
 3743TIP3    H111235   1.917   5.010   2.180 -0.7811 -0.8427  1.6731
 3743TIP3    H211236   2.004   4.892   2.218 -0.1378 -1.3331 -1.0970
 3744TIP3   OH211237   5.817   0.358   5.123 -0.0713 -0.2046  0.0646
 3744TIP3    H111238   5.880   0.384   5.190 -0.3041 -0.4809  0.3925
 3744TIP3    H211239   5.789   0.441   5.084  0.9387 -0.1172 -0.4989
 3745TIP3   OH211240   5.866   0.165   1.998  0.2247 -0.0948 -0.2849
 3745TIP3    H111241   5.904   0.214   2.071  1.8783  0.3557 -1.4063
 3745TIP3    H211242   5.926   0.093   1.982  0.2080  0.1385 -1.5427
 3746TIP3   OH211243   3.088   4.836   3.717 -0.3956 -0.5252 -0.1396
 3746TIP3    H111244   3.135   4.910   3.756  1.1304 -0.5105 -1.8412
 3746TIP3    H211245   3.119   4.760   3.766 -0.0537 -0.3002  0.0027
 3747TIP3   OH211246   4.592   4.167   3.126 -0.2135  0.4191  0.1656
 3747TIP3    H111247   4.668   4.109   3.131 -0.4778 -0.1683 -1.8489
 3747TIP3    H211248   4.543   4.150   3.206 -0.3921 -2.3026 -0.4457
 3748TIP3   OH211249   1.865   4.044   4.785  0.0733 -0.1100 -0.5524
 3748TIP3    H111250   1.927   3.982   4.824  0.6900  1.0651  0.4014
 3748TIP3    H211251   1.898   4.058   4.697  1.5375  0.9077  0.1090
 3749TIP3   OH211252   5.460   1.945   4.830 -0.6727  0.1828 -0.1372
 3749TIP3    H111253   5.530   1.947   4.895  1.2272 -0.9066 -2.0472
 3749TIP3    H211254   5.385   1.908   4.877  0.4982 -0.1404  1.5542
 3750TIP3   OH211255   4.699   3.852   2.560  0.0121  0.0181  0.3267
 3750TIP3    H111256   4.784   3.874   2.523  0.9921 -1.5089  1.5492
 3750TIP3    H211257   4.710   3.765   2.598 -1.7835  0.2208  1.4829
 3751TIP3   OH211258   0.863   3.800   1.226 -0.1478  0.4336  0.0739
 3751TIP3    H111259   0.889   3.716   1.188  2.6493  1.5994 -0.7884
 3751TIP3    H211260   0.814   3.843   1.156 -1.2817 -0.2838  0.3951
 3752TIP3   OH211261   0.073   0.487   0.129  0.7031 -0.4862 -0.4482
 3752TIP3    H111262   0.084   0.397   0.160 -2.7882 -0.9880 -0.2951
 3752TIP3    H211263   0.091   0.541   0.205  2.1544 -1.0645 -0.3508
 3753TIP3   OH211264   0.790   4.865   2.072 -0.4238 -0.0212 -0.1280
 3753TIP3    H111265   0.738   4.803   2.020 -1.9741 -0.0230  1.3399
 3753TIP3    H211266   0.863   4.812   2.105 -0.7980 -0.6417 -0.2734
 3754TIP3   OH211267   5.773   1.644   1.922 -0.5644 -0.0947 -0.4821
 3754TIP3    H111268   5.803   1.729   1.955 -2.0622 -0.0319  0.8912
 3754TIP3    H211269   5.846   1.610   1.870  1.9982 -0.1185  2.8125
 3755TIP3   OH211270   2.050   3.577   3.526  0.2283 -0.2641  0.6095
 3755TIP3    H111271   2.086   3.501   3.571  0.1252 -0.3174  0.6020
 3755TIP3    H211272   1.983   3.611   3.586  3.0622  2.3500  2.6525
 3756TIP3   OH211273   0.262   4.016   2.979  0.0836  0.3797  0.2160
 3756TIP3    H111274   0.238   3.926   2.959 -0.7684  1.0793 -2.3691
 3756TIP3    H211275   0.246   4.026   3.072 -2.9158 -1.2559 -0.0220
 3757TIP3   OH211276   0.844   5.745   0.339  0.3595 -0.6489 -0.5486
 3757TIP3    H111277   0.827   5.821   0.395 -0.3022 -1.0748 -0.1716
 3757TIP3    H211278   0.882   5.783   0.259  0.2165  0.0618 -0.2876
 3758TIP3   OH211279   1.260   2.851   3.278 -0.6599 -0.2244 -0.0420
 3758TIP3    H111280   1.342   2.803   3.271 -0.9363 -0.4429 -3.2458
 3758TIP3    H211281   1.282   2.942   3.259 -1.0171 -0.1335 -0.0392
 3759TIP3   OH211282   2.386   4.636   3.367 -0.0724  0.7930  0.0277
 3759TIP3    H111283   2.387   4.702   3.297  2.4146 -0.0599 -0.8430
 3759TIP3    H211284   2.336   4.563   3.330 -1.7976  1.6627  0.5413
 3760TIP3   OH211285   5.956   1.693   3.064 -0.2489  0.1389  0.2462
 3760TIP3    H111286   5.925   1.631   2.999 -1.6108  0.8405  0.2064
 3760TIP3    H211287   6.047   1.667   3.080 -0.4994 -1.2639 -0.4617
 3761TIP3   OH211288   1.394   0.112   0.515  0.3007 -0.0150 -0.1023
 3761TIP3    H111289   1.405   0.070   0.600  2.2094 -1.1385 -0.8263
 3761TIP3    H211290   1.415   0.044   0.451 -0.5993  0.9343 -1.4744
 3762TIP3   OH211291   2.825   2.749   1.202 -0.7760  0.1462  0.5882
 3762TIP3    H111292   2.747   2.733   1.148 -0.9472  0.5830  0.6974
 3762TIP3    H211293   2.874   2.816   1.154  0.9107 -2.0126 -0.8379
 3763TIP3   OH211294   5.675   5.284   2.464  0.3109 -0.7390  0.3661
 3763TIP3    H111295   5.695   5.378   2.470  0.9176 -0.9277  1.4740
 3763TIP3    H211296   5.679   5.265   2.370 -1.0024  0.5789  0.0013
 3764TIP3   OH211297   5.904   3.811   1.318  0.5514  0.1103 -0.1868
 3764TIP3    H111298   5.908   3.864   1.238  0.0107  2.2589  1.1058
 3764TIP3    H211299   5.811   3.802   1.336  0.6794  0.0204  0.4331
 3765TIP3   OH211300   4.108   4.305   4.214  0.4121  0.6551 -0.0407
 3765TIP3    H111301   4.128   4.229   4.159  1.6881  0.6923  0.3445
 3765TIP3    H211302   4.016   4.292   4.240 -0.0441  0.3377 -1.6699
 3766TIP3   OH211303   1.054   0.220   1.908 -0.2139  0.0215 -0.1089
 3766TIP3    H111304   1.058   0.285   1.838  1.3958 -0.1761 -0.2379
 3766TIP3    H211305   1.146   0.199   1.927 -0.6747 -1.9799  0.1412
 3767TIP3   OH211306   5.290   3.624   4.183  0.1493 -0.1706  0.4355
 3767TIP3    H111307   5.290   3.567   4.106  0.3722 -0.7039  0.8316
 3767TIP3    H211308   5.288   3.713   4.146 -0.5157 -0.4261 -0.1781
 3768TIP3   OH211309   2.521   5.247   1.572 -0.2668 -0.3344 -0.1002
 3768TIP3    H111310   2.503   5.159   1.606 -1.1083 -0.5097 -0.9596
 3768TIP3    H211311   2.473   5.251   1.490 -0.1799  0.9171 -0.1068
 3769TIP3   OH211312   5.213   3.478   3.954  0.2164  0.2445 -0.1164
 3769TIP3    H111313   5.174   3.402   3.997  1.0662  0.3490  0.8793
 3769TIP3    H211314   5.295   3.445   3.917  0.1170  0.4590 -0.5381
 3770TIP3   OH211315   2.096   3.712   4.263 -0.1323  0.3777  0.2465
 3770TIP3    H111316   2.104   3.629   4.215  2.6066  1.0554 -0.7014
 3770TIP3    H211317   2.130   3.693   4.351  1.2562  0.5896 -0.2073
 3771TIP3   OH211318   1.144   3.266   3.300  0.4317 -0.2226  0.2954
 3771TIP3    H111319   1.216   3.293   3.357  0.3307 -0.9948  0.8195
 3771TIP3    H211320   1.186   3.228   3.223  0.5855  2.2115 -0.9100
 3772TIP3   OH211321   0.710   3.587   2.374  0.0961 -0.3904  0.3695
 3772TIP3    H111322   0.663   3.670   2.373 -0.3803 -0.6373  1.1331
 3772TIP3    H211323   0.643   3.522   2.395  0.5051 -0.9454 -0.0060
 3773TIP3   OH211324   6.312   0.103   3.820  0.2577 -0.4940  0.0744
 3773TIP3    H111325   6.354   0.026   3.858 -2.0529 -2.7450 -1.5883
 3773TIP3    H211326   6.231   0.114   3.870  0.2962  0.5525 -0.0688
 3774TIP3   OH211327   0.726   1.587   1.735 -0.1225  0.2322  0.1464
 3774TIP3    H111328   0.714   1.492   1.738 -1.1699  0.2462 -2.0581
 3774TIP3    H211329   0.661   1.618   1.672  1.8180  2.1192 -1.0537
 3775TIP3   OH211330   2.483   3.770   1.076  0.0210  0.2246  0.4322
 3775TIP3    H111331   2.539   3.816   1.138  1.4567 -0.4733 -0.3154
 3775TIP3    H211332   2.529   3.775   0.993 -1.3982  0.2796 -0.3878
 3776TIP3   OH211333   3.358   2.350   2.295  0.4730 -0.6668 -0.1578
 3776TIP3    H111334   3.264   2.356   2.278 -0.1793  0.9539  3.1572
 3776TIP3    H211335   3.365   2.291   2.370  2.0178 -0.1462  0.1412
 3777TIP3   OH211336   3.943   2.614   3.199 -0.0389 -0.8006  0.7349
 3777TIP3    H111337   4.011   2.602   3.133 -0.5548  0.4342 -0.0585
 3777TIP3    H211338   3.987   2.660   3.271 -0.3541  1.6508 -0.5173
 3778TIP3   OH211339   1.046   5.713   2.622  0.1595  0.2392 -0.7303
 3778TIP3    H111340   1.054   5.625   2.584  0.3836 -2.2735  4.3561
 3778TIP3    H211341   0.956   5.719   2.651  0.5513  1.0139  0.3805
 3779TIP3   OH211342   4.598   0.500   2.420 -0.3105  0.0482 -0.0910
 3779TIP3    H111343   4.664   0.530   2.358  0.5678  0.4267  1.0034
 3779TIP3    H211344   4.589   0.406   2.402  0.6895 -0.0553 -0.1197
 3780TIP3   OH211345   3.060   3.755   4.146 -0.8790 -0.1941  0.4346
 3780TIP3    H111346   3.058   3.826   4.209 -1.7211  0.4614 -0.3076
 3780TIP3    H211347   3.079   3.677   4.198 -1.7797  0.2896  1.5347
 3781TIP3   OH211348   2.000   4.972   3.450  0.2127  0.1715 -0.5212
 3781TIP3    H111349   1.971   4.886   3.419 -0.6192  0.4330 -0.4851
 3781TIP3    H211350   1.966   4.978   3.539 -0.3510  0.8326 -0.7774
 3782TIP3   OH211351   3.676   2.367   0.651 -0.0802 -0.3749 -0.2647
 3782TIP3    H111352   3.618   2.296   0.624 -1.2872  0.6570 -0.4974
 3782TIP3    H211353   3.764   2.336   0.629 -0.6530 -1.4235 -1.1705
 3783TIP3   OH211354   0.754   3.577   2.106 -0.9262  0.2330 -0.1289
 3783TIP3    H111355   0.683   3.614   2.054 -4.1944 -2.8883  1.5635
 3783TIP3    H211356   0.748   3.622   2.190  0.5705  1.3815 -0.6069
 3784TIP3   OH211357   3.863   3.805   4.817 -0.3362 -0.7697  0.2148
 3784TIP3    H111358   3.798   3.874   4.832 -0.7497 -1.1351  0.1269
 3784TIP3    H211359   3.813   3.731   4.782  0.1991 -0.8935 -0.3128
 3785TIP3   OH211360   0.732   4.254   4.158 -0.1610 -0.4356 -0.4055
 3785TIP3    H111361   0.754   4.337   4.115 -0.2113 -0.1739  0.0716
 3785TIP3    H211362   0.810   4.200   4.148 -0.2327 -0.4407 -0.9746
 3786TIP3   OH211363   5.871   3.281   0.521  0.4297 -0.0260  0.5257
 3786TIP3    H111364   5.796   3.288   0.460  0.1785 -1.1447  0.6906
 3786TIP3    H211365   5.948   3.285   0.464  0.2102 -0.3771  0.1967
 3787TIP3   OH211366   0.646   4.390   1.169  0.0842  0.1174 -0.5489
 3787TIP3    H111367   0.698   4.310   1.170  1.1259  0.7211  2.2679
 3787TIP3    H211368   0.708   4.459   1.145  0.0029  0.4902  0.2744
 3788TIP3   OH211369   4.622   1.419   0.735  0.4297 -0.0587 -0.6734
 3788TIP3    H111370   4.694   1.446   0.678  2.1970  0.7804  1.7557
 3788TIP3    H211371   4.575   1.500   0.755  0.6193 -0.1087  0.0255
 3789TIP3   OH211372   6.086   4.093   1.666 -0.6661  0.1564 -0.4364
 3789TIP3    H111373   6.093   4.021   1.729 -1.9060 -0.5710 -1.0864
 3789TIP3    H211374   6.177   4.118   1.648 -0.1942 -1.3977 -0.3698
 3790TIP3   OH211375   2.820   5.892   1.051 -0.0596  0.0583  0.1332
 3790TIP3    H111376   2.820   5.846   0.967  0.5763  0.4547 -0.0930
 3790TIP3    H211377   2.896   5.856   1.098  1.0564  1.5701 -0.4524
 3791TIP3   OH211378   0.192   0.614   3.427 -0.0492 -0.1773  0.9918
 3791TIP3    H111379   0.207   0.522   3.447 -0.2610 -0.4239  0.0715
 3791TIP3    H211380   0.267   0.639   3.374 -0.0673  0.1406  1.1156
 3792TIP3   OH211381   1.466   5.682   2.970  0.2301 -0.5797  0.0779
 3792TIP3    H111382   1.557   5.704   2.992 -0.5383  1.2337  1.6122
 3792TIP3    H211383   1.458   5.705   2.878  0.7715  1.2595  0.4552
 3793TIP3   OH211384   4.680   2.307   0.819  0.2329  0.2713 -0.1428
 3793TIP3    H111385   4.730   2.375   0.865 -1.1694  2.4972 -1.7495
 3793TIP3    H211386   4.591   2.340   0.816 -0.4991 -1.6303 -1.1046
 3794TIP3   OH211387   0.163   0.669   1.410  0.1514  0.3146  0.0077
 3794TIP3    H111388   0.202   0.583   1.424  0.3646  0.6382  1.6537
 3794TIP3    H211389   0.235   0.722   1.375  0.5401  0.2889  0.7454
 3795TIP3   OH211390   5.981   2.246   3.396 -0.3780  0.4864  0.6117
 3795TIP3    H111391   5.976   2.160   3.439 -1.8230  0.5408  0.5794
 3795TIP3    H211392   6.040   2.231   3.322  0.2751 -0.1917  1.2457
 3796TIP3   OH211393   5.809   0.235   2.908 -0.2412 -0.5358 -0.1696
 3796TIP3    H111394   5.871   0.308   2.905 -0.5324 -0.2340  0.8065
 3796TIP3    H211395   5.744   0.256   2.842 -1.4344  1.1480  1.4443
 3797TIP3   OH211396   4.474   5.330   4.593  0.3887  0.3276 -0.1255
 3797TIP3    H111397   4.441   5.247   4.629  0.1776  0.0892 -0.8539
 3797TIP3    H211398   4.436   5.397   4.649 -0.5194 -0.0008 -0.3360
 3798TIP3   OH211399   4.254   0.269   2.381  0.4364  0.0021  0.1843
 3798TIP3    H111400   4.327   0.247   2.323  1.0777  0.6665  0.7178
 3798TIP3    H211401   4.288   0.253   2.469  0.6423  2.1712  0.5589
 3799TIP3   OH211402   5.669   1.330   4.124 -0.2262  0.2428 -0.0566
 3799TIP3    H111403   5.701   1.320   4.035  0.9341 -1.6264  0.5009
 3799TIP3    H211404   5.679   1.423   4.144  2.2179  0.2397 -0.9225
 3800TIP3   OH211405   4.500   2.744   0.949 -0.0930 -0.7353 -0.4092
 3800TIP3    H111406   4.487   2.761   0.856 -0.4149 -1.7450 -0.5501
 3800TIP3    H211407   4.512   2.831   0.987  1.2570 -0.3648 -1.5717
 3801TIP3   OH211408   2.572   1.348   4.177  0.0455 -0.4160  0.2145
 3801TIP3    H111409   2.580   1.339   4.082  1.0457 -0.6807  0.3054
 3801TIP3    H211410   2.573   1.442   4.193  1.5878 -0.3768  0.0605
 3802TIP3   OH211411   3.052   3.868   0.124  0.0807  0.0325  0.6947
 3802TIP3    H111412   3.000   3.822   0.190  2.8844 -1.2216  2.2090
 3802TIP3    H211413   3.059   3.958   0.159 -1.4177  0.3698  0.1963
 3803TIP3   OH211414   2.711   0.286   0.629  0.3583 -0.0990 -0.0441
 3803TIP3    H111415   2.742   0.346   0.561  0.9474  0.1701  0.4516
 3803TIP3    H211416   2.711   0.337   0.709  0.3313 -0.6017  0.2852
 3804TIP3   OH211417   4.624   2.594   2.178 -0.3093  0.5922  0.7825
 3804TIP3    H111418   4.691   2.661   2.195 -0.0478  0.4507  0.3225
 3804TIP3    H211419   4.559   2.639   2.124  0.5834  0.0975 -0.7672
 3805TIP3   OH211420   1.413   4.478   3.343 -0.2367  0.4505  0.0051
 3805TIP3    H111421   1.377   4.397   3.307 -1.3881  0.6457  0.6634
 3805TIP3    H211422   1.384   4.478   3.434  0.8430  0.9890  0.3639
 3806TIP3   OH211423   4.383   3.611   2.789 -0.2396 -0.0434 -0.0958
 3806TIP3    H111424   4.406   3.564   2.709 -0.1423 -0.4064  0.1480
 3806TIP3    H211425   4.316   3.558   2.830  1.0568 -0.8548  1.0437
 3807TIP3   OH211426   2.142   5.870   5.049  0.1552  0.1858 -0.8913
 3807TIP3    H111427   2.100   5.808   5.109  0.1234  1.7083  0.7416
 3807TIP3    H211428   2.107   5.847   4.963 -0.7620 -1.2929 -0.1666
 3808TIP3   OH211429   4.593   2.625   0.430  0.6105  0.0447  0.6045
 3808TIP3    H111430   4.678   2.582   0.421  0.4012 -0.3751  0.6155
 3808TIP3    H211431   4.587   2.683   0.354  1.5249  1.1661  1.3474
 3809TIP3   OH211432   3.601   4.897   1.350  0.1893  0.0814 -0.3511
 3809TIP3    H111433   3.579   4.928   1.438 -0.8328 -0.0950 -0.5308
 3809TIP3    H211434   3.543   4.946   1.292 -0.4022 -1.0831 -0.7654
 3810TIP3   OH211435   5.255   5.033   1.261  0.0725 -0.7300 -0.4483
 3810TIP3    H111436   5.322   4.965   1.256 -1.7877 -2.6001 -1.7434
 3810TIP3    H211437   5.227   5.033   1.352  1.3279 -0.4049 -0.0461
 3811TIP3   OH211438   2.126   4.434   2.676 -0.4072  0.3656 -0.8095
 3811TIP3    H111439   2.078   4.371   2.623 -0.7338  2.0774 -2.6899
 3811TIP3    H211440   2.213   4.439   2.635  0.8489 -1.3163  1.4222
 3812TIP3   OH211441   2.706   0.492   4.002  0.4476 -0.1480  0.0928
 3812TIP3    H111442   2.636   0.428   3.986  1.6814 -1.0572 -2.1799
 3812TIP3    H211443   2.660   0.573   4.022 -1.1825 -1.4558  2.0374
 3813TIP3   OH211444   1.265   1.479   1.850 -0.5117  0.2605 -0.0076
 3813TIP3    H111445   1.275   1.391   1.814 -2.8439 -0.2538  0.4534
 3813TIP3    H211446   1.337   1.487   1.912  1.7378  0.0016 -2.3974
 3814TIP3   OH211447   1.637   0.372   4.764  0.1659 -0.0944 -0.5426
 3814TIP3    H111448   1.709   0.397   4.707  0.4090 -0.3190 -0.3343
 3814TIP3    H211449   1.582   0.314   4.711  0.8725 -1.0375 -0.2705
 3815TIP3   OH211450   3.508   4.372   2.237  0.1023 -0.6149 -0.0517
 3815TIP3    H111451   3.419   4.367   2.203  0.1851 -0.3078 -0.3130
 3815TIP3    H211452   3.558   4.417   2.169  0.3354 -0.2757  0.3416
 3816TIP3   OH211453   5.112   2.879   0.643 -0.0194  0.0493  0.2447
 3816TIP3    H111454   5.175   2.876   0.715 -1.5501 -0.0845  1.6458
 3816TIP3    H211455   5.095   2.787   0.622  1.7039  0.0673 -1.5426
 3817TIP3   OH211456   2.386   2.701   0.886 -0.0489  0.5452 -0.1176
 3817TIP3    H111457   2.369   2.778   0.941 -0.3181 -0.0100  0.5896
 3817TIP3    H211458   2.474   2.673   0.910  0.6131  1.4537 -1.3944
 3818TIP3   OH211459   3.637   4.146   2.554 -0.5129 -0.3741  0.0911
 3818TIP3    H111460   3.676   4.233   2.542  0.1915 -0.8565 -1.3299
 3818TIP3    H211461   3.704   4.095   2.598 -0.5459 -0.4724  0.0289
 3819TIP3   OH211462   4.583   3.443   0.069  0.1916 -0.0011 -0.2551
 3819TIP3    H111463   4.637   3.378   0.114  1.6322  0.9071 -0.6221
 3819TIP3    H211464   4.644   3.512   0.044 -1.5629  2.4662  1.8124
 3820TIP3   OH211465   3.084   2.099   2.994  0.2286  0.2497  0.2129
 3820TIP3    H111466   3.119   2.149   3.068 -0.2018 -0.3618  0.8405
 3820TIP3    H211467   3.011   2.050   3.030  2.2354 -2.9501  0.3270
 3821TIP3   OH211468   0.886   4.376   4.524  0.1462 -0.1362 -0.7132
 3821TIP3    H111469   0.854   4.407   4.608  0.5874 -0.9118 -0.2452
 3821TIP3    H211470   0.821   4.312   4.495  0.0765  0.0123 -0.8858
 3822TIP3   OH211471   1.231   5.246   1.074 -0.7689  0.1145  0.6062
 3822TIP3    H111472   1.297   5.188   1.112 -1.0965  0.7717  2.3029
 3822TIP3    H211473   1.153   5.190   1.066 -0.0123 -0.7209 -1.6129
 3823TIP3   OH211474   5.130   5.714   3.913 -0.0953  0.6093 -0.3210
 3823TIP3    H111475   5.100   5.805   3.917  0.3670  0.7374  0.4023
 3823TIP3    H211476   5.067   5.666   3.967 -0.2608  0.5203 -0.5920
 3824TIP3   OH211477   1.713   0.165   3.062 -0.5349  0.1967  0.2939
 3824TIP3    H111478   1.732   0.225   2.989  1.0859 -1.4466 -0.7223
 3824TIP3    H211479   1.719   0.078   3.023 -1.8660 -0.6856  1.9488
 3825TIP3   OH211480   2.576   2.192   4.611  0.3898  0.2240  0.3174
 3825TIP3    H111481   2.583   2.276   4.656  0.5922 -0.4173  1.5166
 3825TIP3    H211482   2.633   2.133   4.660 -0.0937 -0.7324 -0.2349
 3826TIP3   OH211483   5.973   1.895   2.352  0.4047  0.6521  0.5564
 3826TIP3    H111484   5.970   1.931   2.440 -0.7444  0.9644  0.4048
 3826TIP3    H211485   6.047   1.835   2.353  0.8703  1.2182  1.5111
 3827TIP3   OH211486   2.694   4.294   5.084  0.1892  0.0958  0.8650
 3827TIP3    H111487   2.763   4.359   5.068 -0.8980  1.0430 -0.2747
 3827TIP3    H211488   2.676   4.257   4.997 -0.9898  0.1437  1.0730
 3828TIP3   OH211489   2.872   4.052   3.606 -0.4567 -0.0362  0.1742
 3828TIP3    H111490   2.816   4.127   3.624  0.7163  0.7790  0.5427
 3828TIP3    H211491   2.954   4.071   3.652  0.4500 -0.7730 -1.0754
 3829TIP3   OH211492  -0.031   4.556   3.230  0.1531  0.2062  0.0005
 3829TIP3    H111493  -0.007   4.639   3.272 -1.4518  1.3412 -1.1661
 3829TIP3    H211494   0.042   4.537   3.171  1.2244 -0.0286  1.3539
 3830TIP3   OH211495   1.637   2.721   1.584  0.3162 -0.0241  0.0142
 3830TIP3    H111496   1.684   2.797   1.618  0.4727  1.1201 -2.5036
 3830TIP3    H211497   1.702   2.651   1.579  0.5980  0.1821  0.7630
 3831TIP3   OH211498   5.916   5.286   4.556  0.2610 -0.0911 -0.7082
 3831TIP3    H111499   5.846   5.342   4.524 -1.0483 -2.4986 -2.3259
 3831TIP3    H211500   5.872   5.212   4.597  1.9180 -0.5421  0.4051
 3832TIP3   OH211501   0.126   0.370   2.393 -0.0809  0.6120  0.0612
 3832TIP3    H111502   0.197   0.413   2.441  1.2199  0.9053 -2.0023
 3832TIP3    H211503   0.121   0.283   2.430  0.5990  0.9586  1.0024
 3833TIP3   OH211504   0.211   3.549   3.357 -0.0191 -0.2863  0.3124
 3833TIP3    H111505   0.143   3.603   3.317 -0.4422 -1.0402 -0.0060
 3833TIP3    H211506   0.203   3.464   3.314 -0.9977 -1.3704  2.4545
 3834TIP3   OH211507   6.165   1.316   0.506  0.0883 -0.6759  0.1246
 3834TIP3    H111508   6.129   1.321   0.594 -0.8485 -1.7892 -0.1676
 3834TIP3    H211509   6.180   1.407   0.481 -2.1793 -0.1520  0.4321
 3835TIP3   OH211510   0.642   4.704   1.106 -0.3517 -0.7126  0.7271
 3835TIP3    H111511   0.582   4.654   1.050 -0.0256 -0.2727 -0.0265
 3835TIP3    H211512   0.729   4.687   1.069 -0.0047 -1.2836  1.7666
 3836TIP3   OH211513   3.304   4.920   2.247  0.4294  0.1654 -0.3546
 3836TIP3    H111514   3.212   4.914   2.220  0.3026  0.0726  0.0949
 3836TIP3    H211515   3.323   4.834   2.286  0.0642  0.9110  1.5612
 3837TIP3   OH211516   4.715   5.841   2.006 -0.0141  0.1330 -0.2357
 3837TIP3    H111517   4.758   5.893   1.938  1.0091 -0.0516  0.2580
 3837TIP3    H211518   4.646   5.899   2.040  0.2855  0.6896 -0.5669
 3838TIP3   OH211519   1.291   0.808   2.906 -0.4141 -0.1247  0.3019
 3838TIP3    H111520   1.359   0.756   2.950 -0.8450 -1.1965 -0.2527
 3838TIP3    H211521   1.274   0.761   2.824 -2.2378 -0.2157  0.6942
 3839TIP3   OH211522   3.377   4.394   4.935  0.5109  0.5234 -0.1349
 3839TIP3    H111523   3.449   4.369   4.877  0.4858  1.0475 -0.3989
 3839TIP3    H211524   3.298   4.358   4.893  0.7116 -1.0026  0.7137
 3840TIP3   OH211525   3.672   1.664   2.988  0.4736 -0.3780 -0.0936
 3840TIP3    H111526   3.683   1.587   3.043  1.3135  0.5234  1.0687
 3840TIP3    H211527   3.635   1.730   3.048  0.4359  0.3256 -0.8778
 3841TIP3   OH211528   2.327   1.378   4.353 -0.3983 -0.7926  0.1933
 3841TIP3    H111529   2.242   1.334   4.353 -0.2169 -1.1516  0.7421
 3841TIP3    H211530   2.380   1.329   4.291 -0.5983 -0.5409 -0.1846
 3842TIP3   OH211531   2.412   2.919   5.099  0.3312  0.3187 -0.2898
 3842TIP3    H111532   2.476   2.979   5.136  0.7851 -0.1440 -0.3025
 3842TIP3    H211533   2.458   2.878   5.025 -0.0645  0.1704 -0.4539
 3843TIP3   OH211534   4.578   2.738   4.138 -0.0791 -0.5693  0.0512
 3843TIP3    H111535   4.573   2.790   4.219  1.3915  0.4671 -0.4799
 3843TIP3    H211536   4.577   2.647   4.168  1.1145 -0.2085  1.3096
 3844TIP3   OH211537   2.748   0.525   3.371 -0.1444  0.2142 -0.5696
 3844TIP3    H111538   2.660   0.489   3.356  0.0445 -0.6097  0.1856
 3844TIP3    H211539   2.751   0.605   3.319 -1.1554 -0.0346 -1.0278
 3845TIP3   OH211540   1.316   1.336   0.599  0.5777  0.0661 -0.4176
 3845TIP3    H111541   1.248   1.276   0.567  1.7236 -3.1725  2.5646
 3845TIP3    H211542   1.272   1.389   0.665  0.3119  0.0349 -0.5670
 3846TIP3   OH211543   4.714   0.526   3.186 -0.4512 -0.2263 -0.0595
 3846TIP3    H111544   4.629   0.570   3.179 -0.8138 -0.7207  0.9554
 3846TIP3    H211545   4.778   0.596   3.177 -0.9374  0.0610 -1.5245
 3847TIP3   OH211546   0.184   3.033   1.709  0.0029 -0.3260  0.2559
 3847TIP3    H111547   0.114   3.003   1.651 -0.5811 -0.1940  0.8862
 3847TIP3    H211548   0.154   3.118   1.741 -0.1105 -0.8147  1.4755
 3848TIP3   OH211549   3.005   0.779   0.051  0.1559 -0.1871 -0.2726
 3848TIP3    H111550   3.088   0.763   0.005  0.4015 -0.0167  0.1019
 3848TIP3    H211551   3.030   0.834   0.126 -0.2391 -0.4452  0.0515
 3849TIP3   OH211552   1.413   1.520   2.703 -0.2640  0.1023  0.1068
 3849TIP3    H111553   1.327   1.523   2.661  0.9468  1.4272 -2.5447
 3849TIP3    H211554   1.438   1.428   2.702 -1.0541 -0.1121 -0.3756
 3850TIP3   OH211555   0.578   4.540   3.369  0.3932 -0.5060  0.1943
 3850TIP3    H111556   0.573   4.585   3.454 -0.2092 -0.9864  0.4220
 3850TIP3    H211557   0.616   4.605   3.310 -0.8622  0.4667  0.4135
 3851TIP3   OH211558   4.926   3.274   2.224  0.7207  0.0941 -0.5648
 3851TIP3    H111559   4.876   3.243   2.148  0.5528  1.1275 -0.8937
 3851TIP3    H211560   4.959   3.360   2.197 -0.2537  0.9730  0.9150
 3852TIP3   OH211561   2.033   1.295   4.989  0.6122 -0.3414  0.7249
 3852TIP3    H111562   2.052   1.215   4.939  0.3774 -0.0589  0.1692
 3852TIP3    H211563   1.979   1.265   5.062  0.0347 -0.6243  0.1943
 3853TIP3   OH211564   3.659   3.160   1.495 -0.2612 -0.1551 -0.0466
 3853TIP3    H111565   3.653   3.173   1.590  1.5141 -2.2538  0.4138
 3853TIP3    H211566   3.605   3.230   1.458  0.2837  1.7113  2.4415
 3854TIP3   OH211567   3.180   5.157   4.612  0.2298  0.1196  0.0786
 3854TIP3    H111568   3.178   5.252   4.601 -1.2215  0.2542  1.1804
 3854TIP3    H211569   3.096   5.128   4.575 -0.1367 -0.5138  1.3595
 3855TIP3   OH211570   3.495   5.548   1.406 -0.2951 -0.1739 -0.1368
 3855TIP3    H111571   3.590   5.542   1.393 -0.0062 -0.6495  1.8175
 3855TIP3    H211572   3.468   5.457   1.422 -0.7928  0.1300  0.8573
 3856TIP3   OH211573   4.248   1.109   1.669  0.3824  0.2850  0.6402
 3856TIP3    H111574   4.256   1.198   1.705 -2.4321  0.4276  1.1720
 3856TIP3    H211575   4.215   1.123   1.580  0.4381 -0.2303  0.5403
 3857TIP3   OH211576   0.535   3.787   0.763  0.4101 -0.1231 -0.2614
 3857TIP3    H111577   0.546   3.740   0.680 -1.4416 -0.2530 -0.4806
 3857TIP3    H211578   0.442   3.777   0.784  0.6685  0.6325  1.4085
 3858TIP3   OH211579   1.761   1.406   4.944  0.2988 -0.1157  0.1442
 3858TIP3    H111580   1.680   1.354   4.940 -0.4291  1.0146 -0.3471
 3858TIP3    H211581   1.805   1.387   4.862  0.9220 -1.2881  0.7126
 3859TIP3   OH211582   2.277   0.570   1.030 -0.9842 -0.0525  0.5359
 3859TIP3    H111583   2.310   0.626   0.960  0.7736 -0.5686  0.8997
 3859TIP3    H211584   2.309   0.611   1.110 -1.2147 -0.6139  0.9194
 3860TIP3   OH211585   0.399   3.776   3.235  0.2276  0.2611 -0.1352
 3860TIP3    H111586   0.360   3.725   3.164 -0.7079 -0.0307  0.5744
 3860TIP3    H211587   0.372   3.732   3.315  1.6740  0.3001  0.4138
 3861TIP3   OH211588   4.985   5.063   2.820  0.3014  0.3462 -0.5711
 3861TIP3    H111589   5.055   5.128   2.811  0.8471 -0.3662 -1.5580
 3861TIP3    H211590   5.027   4.988   2.862  0.0060  0.1162 -0.6842
 3862TIP3   OH211591  -0.019   0.309   1.039  0.0142  0.3405  0.1971
 3862TIP3    H111592   0.065   0.323   0.995 -0.5069  1.0894 -0.5895
 3862TIP3    H211593  -0.022   0.378   1.106  0.5541 -0.4511  1.0762
 3863TIP3   OH211594   2.170   4.942   0.414  0.1623  0.0303 -0.6607
 3863TIP3    H111595   2.106   4.873   0.396 -0.4109  0.7586 -1.4982
 3863TIP3    H211596   2.248   4.895   0.444 -0.0068 -1.0242 -1.7826
 3864TIP3   OH211597   0.717   0.283   1.659  0.4652 -0.4637  0.7681
 3864TIP3    H111598   0.700   0.358   1.716  1.3672 -1.0063  1.7864
 3864TIP3    H211599   0.680   0.308   1.575  1.4647  1.4784  0.8515
 3865TIP3   OH211600   5.590   3.746   2.872  0.1690  0.1069  0.4245
 3865TIP3    H111601   5.644   3.734   2.950  0.5339  1.9065  0.4968
 3865TIP3    H211602   5.653   3.761   2.801 -0.0865 -2.7840 -0.5668
 3866TIP3   OH211603   3.769   5.598   2.276 -0.0686 -0.4636  0.0612
 3866TIP3    H111604   3.724   5.580   2.359 -0.5916  0.1176 -0.0928
 3866TIP3    H211605   3.860   5.570   2.292  0.3228  1.4362  1.5012
 3867TIP3   OH211606   4.789   3.200   1.972  0.3450  0.5451 -0.0554
 3867TIP3    H111607   4.768   3.290   1.999 -0.9607  1.1129 -2.7063
 3867TIP3    H211608   4.722   3.146   2.013 -0.6963  1.1969 -0.8474
 3868TIP3   OH211609   4.800   2.884   4.579 -0.0814 -0.3928  0.0826
 3868TIP3    H111610   4.776   2.893   4.671 -0.3344 -1.2245  0.1094
 3868TIP3    H211611   4.881   2.832   4.581 -0.4451 -0.9760 -0.1894
 3869TIP3   OH211612   2.721   1.179   5.039  0.0103  0.4247  0.5136
 3869TIP3    H111613   2.745   1.257   5.088 -0.0531 -0.0217  1.2707
 3869TIP3    H211614   2.804   1.143   5.008  0.3156 -0.6577  2.4263
 3870TIP3   OH211615   2.422   0.107   2.285 -0.0084  0.0881  0.0132
 3870TIP3    H111616   2.469   0.038   2.238 -0.0562  1.1483 -1.6791
 3870TIP3    H211617   2.489   0.172   2.307  0.0248 -0.4213  1.5311
 3871TIP3   OH211618   5.833   1.545   2.861  0.0556  0.4965  0.5869
 3871TIP3    H111619   5.859   1.493   2.786  0.3446 -0.7788  1.5429
 3871TIP3    H211620   5.737   1.537   2.863 -0.0622  1.4553 -0.2687
 3872TIP3   OH211621   5.953   5.194   2.046 -0.1086  0.3672  0.1060
 3872TIP3    H111622   5.894   5.172   1.974 -1.8731  2.7524  0.6929
 3872TIP3    H211623   6.025   5.242   2.005 -1.4147  2.2660 -0.1151
 3873TIP3   OH211624   2.684   5.666   4.572 -0.7136  0.1389 -0.0645
 3873TIP3    H111625   2.650   5.755   4.584 -0.2458  0.2300  0.6576
 3873TIP3    H211626   2.779   5.676   4.575 -0.6591 -0.3967  0.0819
 3874TIP3   OH211627   0.914   3.827   4.267 -0.3074 -0.4833 -0.4203
 3874TIP3    H111628   0.846   3.841   4.334  0.1373  0.3156 -0.1119
 3874TIP3    H211629   0.926   3.732   4.264 -1.4107 -0.6337 -0.4541
 3875TIP3   OH211630   4.475   0.583   3.660  0.5325 -0.3741 -0.2775
 3875TIP3    H111631   4.516   0.669   3.664  0.3848 -0.3437  1.1935
 3875TIP3    H211632   4.534   0.531   3.606  1.3742  0.2637  0.0052
 3876TIP3   OH211633   5.643   5.728   4.878 -0.0961  0.0125  0.6998
 3876TIP3    H111634   5.610   5.756   4.963  0.4941  1.9700  0.3414
 3876TIP3    H211635   5.719   5.785   4.861 -2.2947  2.3565 -2.6911
 3877TIP3   OH211636   0.380   0.892   4.689 -0.0600  0.1488  0.0131
 3877TIP3    H111637   0.350   0.802   4.703  0.7685 -0.8656 -3.6233
 3877TIP3    H211638   0.468   0.894   4.727 -0.5327 -0.2083  1.1404
 3878TIP3   OH211639   4.780   2.093   4.664  0.0106 -0.1651  0.0649
 3878TIP3    H111640   4.861   2.067   4.708  0.4829  1.6856  0.3530
 3878TIP3    H211641   4.711   2.070   4.727  0.0336 -3.3481 -0.8564
 3879TIP3   OH211642   1.904   5.202   2.419 -0.7569  0.1080  0.5363
 3879TIP3    H111643   1.964   5.272   2.393 -0.6096  0.0950  0.8364
 3879TIP3    H211644   1.857   5.180   2.339 -0.6863  0.4360  0.4044
 3880TIP3   OH211645   5.035   1.788   2.427  0.6206  0.0987  0.0548
 3880TIP3    H111646   4.992   1.783   2.513 -0.6102  0.1397 -0.5320
 3880TIP3    H211647   5.065   1.699   2.409  0.5606  0.0141  0.3666
 3881TIP3   OH211648   2.422   5.069   3.357  0.0034 -0.7016 -0.4966
 3881TIP3    H111649   2.370   4.996   3.325  0.4610 -0.4717 -1.8522
 3881TIP3    H211650   2.358   5.137   3.379 -0.3186 -0.2726 -2.5219
 3882TIP3   OH211651   1.266   5.549   3.798 -0.4456 -0.0037 -0.5232
 3882TIP3    H111652   1.289   5.483   3.863 -0.1555 -0.7990 -1.4050
 3882TIP3    H211653   1.172   5.538   3.785 -0.7339  0.9641  0.6139
 3883TIP3   OH211654   3.719   4.114   5.061  0.6879  0.2918 -0.2209
 3883TIP3    H111655   3.679   4.199   5.046 -2.3088  0.0679  4.4382
 3883TIP3    H211656   3.696   4.062   4.984 -2.1630  2.2399 -0.8231
 3884TIP3   OH211657   1.053   0.263   2.257 -0.2583 -0.5146 -0.3978
 3884TIP3    H111658   0.963   0.294   2.246 -0.0716 -0.3652 -1.7502
 3884TIP3    H211659   1.045   0.170   2.278 -0.7414 -0.3615  0.0941
 3885TIP3   OH211660   1.269   0.340   1.312 -0.4064 -0.0535  0.1112
 3885TIP3    H111661   1.326   0.329   1.389  1.0400  0.9039 -0.7747
 3885TIP3    H211662   1.194   0.389   1.344 -0.5473 -0.9592  1.2223
 3886TIP3   OH211663   2.479   2.584   0.631  0.4665 -0.3242 -0.1084
 3886TIP3    H111664   2.467   2.497   0.667 -1.8708  0.4630  1.2005
 3886TIP3    H211665   2.489   2.641   0.707 -0.0411  0.7960 -0.8517
 3887TIP3   OH211666   2.838   0.590   0.164 -0.2573 -0.1961 -0.0417
 3887TIP3    H111667   2.775   0.603   0.093 -0.9172 -0.7701  0.4189
 3887TIP3    H211668   2.915   0.640   0.138 -1.2334  1.3085 -0.1670
 3888TIP3   OH211669   4.113   1.752   0.171  0.2495 -0.2634 -0.4524
 3888TIP3    H111670   4.128   1.829   0.225  2.2037  0.1573 -1.5102
 3888TIP3    H211671   4.135   1.780   0.082 -4.7096 -0.3492 -1.9867
 3889TIP3   OH211672   6.237   1.921   1.807  0.1926 -0.1314 -0.1149
 3889TIP3    H111673   6.233   2.016   1.815 -0.4108 -0.1028 -0.6613
 3889TIP3    H211674   6.309   1.905   1.745 -0.0700 -0.0003 -0.4572
 3890TIP3   OH211675   2.624   0.929   4.953  0.0128  0.3814 -0.5579
 3890TIP3    H111676   2.540   0.892   4.927  1.1709 -2.4051 -0.6876
 3890TIP3    H211677   2.612   1.023   4.946 -2.5013  0.0223 -2.4303
 3891TIP3   OH211678   5.476   4.568   0.431  0.4708  0.0847  0.3076
 3891TIP3    H111679   5.426   4.635   0.385  0.2004 -0.4399 -0.1627
 3891TIP3    H211680   5.564   4.573   0.393  0.3976  0.0292  0.1348
 3892TIP3   OH211681   5.140   4.791   0.497  0.2716  0.0704  0.1915
 3892TIP3    H111682   5.147   4.778   0.403 -0.7935 -1.1532  0.2504
 3892TIP3    H211683   5.085   4.719   0.527  0.3833  0.5837  1.7178
 3893TIP3   OH211684   1.406   4.679   3.801  0.2271 -0.3318 -0.2214
 3893TIP3    H111685   1.397   4.760   3.852 -0.3626 -0.5376  0.0012
 3893TIP3    H211686   1.501   4.670   3.788  0.4289 -0.4883  1.1835
 3894TIP3   OH211687   2.693   4.742   0.431 -0.0434 -0.3362 -0.0935
 3894TIP3    H111688   2.729   4.816   0.481 -1.6104  0.1342  0.3894
 3894TIP3    H211689   2.742   4.666   0.464  1.8402  0.4662 -0.8472
 3895TIP3   OH211690   2.871   0.623   1.583 -0.1955  0.2198 -0.2557
 3895TIP3    H111691   2.805   0.679   1.624 -0.1927  0.9800 -1.2547
 3895TIP3    H211692   2.921   0.587   1.656 -0.5507  1.0907  0.4284
 3896TIP3   OH211693   0.722   4.545   3.943  0.2198 -0.6094 -0.3217
 3896TIP3    H111694   0.674   4.524   3.862 -0.1394 -0.2818 -0.1962
 3896TIP3    H211695   0.782   4.615   3.917 -0.7714  0.3784 -0.0304
 3897TIP3   OH211696   0.691   3.139   3.538 -0.3989  0.1407  0.5366
 3897TIP3    H111697   0.693   3.081   3.614 -0.4631  1.4031  1.5391
 3897TIP3    H211698   0.781   3.141   3.507 -0.2473  0.1055  0.9666
 3898TIP3   OH211699   1.872   5.341   4.759  0.0791  0.1549  0.6171
 3898TIP3    H111700   1.941   5.390   4.715 -0.7326  0.1449 -0.7039
 3898TIP3    H211701   1.846   5.397   4.833  0.9463  0.5063  0.6574
 3899TIP3   OH211702   3.584   4.380   4.710 -0.6781  0.3750 -0.2058
 3899TIP3    H111703   3.592   4.304   4.651 -1.4704  0.5607 -0.5630
 3899TIP3    H211704   3.599   4.456   4.653  0.7383  0.4896  0.2674
 3900TIP3   OH211705   0.821   3.709   4.671  0.0495  0.0207 -0.3580
 3900TIP3    H111706   0.896   3.656   4.698 -2.0282 -2.8778  0.1918
 3900TIP3    H211707   0.779   3.735   4.752  0.0511  1.0845 -0.6781
 3901TIP3   OH211708   1.717   3.855   0.804 -0.0144  0.2888 -0.1062
 3901TIP3    H111709   1.624   3.851   0.828 -0.3460  1.9372 -0.9968
 3901TIP3    H211710   1.761   3.804   0.872 -1.7484 -2.4871 -0.8637
 3902TIP3   OH211711   3.134   2.730   4.417  0.2118  0.1151 -0.5389
 3902TIP3    H111712   3.086   2.802   4.458  0.1377 -0.0951 -0.2473
 3902TIP3    H211713   3.085   2.652   4.442  0.4041 -0.0521 -0.6846
 3903TIP3   OH211714   0.459   5.407   4.954 -0.4823  0.2529  0.0481
 3903TIP3    H111715   0.484   5.414   4.862 -2.4782  0.1709 -0.5599
 3903TIP3    H211716   0.520   5.344   4.991  0.8598  0.8742 -1.0008
 3904TIP3   OH211717   2.194   4.051   4.369  0.6566 -0.2334  0.4855
 3904TIP3    H111718   2.150   4.124   4.326 -0.2676 -0.8569  0.3568
 3904TIP3    H211719   2.248   4.092   4.437 -0.1628  0.5463  0.6857
 3905TIP3   OH211720   0.502   3.704   2.052 -0.2499 -0.5757 -0.2476
 3905TIP3    H111721   0.509   3.617   2.092  0.9870 -0.5558 -0.3861
 3905TIP3    H211722   0.430   3.746   2.099  0.4598 -0.9344  1.2391
 3906TIP3   OH211723   3.345   3.237   0.345 -0.0378 -0.0070 -0.1769
 3906TIP3    H111724   3.424   3.291   0.350  0.2136 -0.3832  0.0156
 3906TIP3    H211725   3.274   3.299   0.329  0.1158  0.4765  0.9253
 3907TIP3   OH211726   2.325   3.608   4.572  0.3042 -0.0789 -0.0482
 3907TIP3    H111727   2.335   3.632   4.664  1.1449 -1.9332  0.3807
 3907TIP3    H211728   2.231   3.611   4.556  0.0409 -0.8873  1.2234
 3908TIP3   OH211729   6.007   2.318   4.155 -0.3163  0.9631 -0.1526
 3908TIP3    H111730   5.928   2.350   4.113 -2.8266 -1.8366  1.9978
 3908TIP3    H211731   6.014   2.367   4.236 -0.1471  0.8466 -0.0941
 3909TIP3   OH211732   4.462   0.061   3.633  0.8744 -0.2529  0.6649
 3909TIP3    H111733   4.514  -0.003   3.586 -1.7535 -1.0567 -1.4029
 3909TIP3    H211734   4.449   0.132   3.571 -0.7409 -0.2483  0.9606
 3910TIP3   OH211735   1.463   3.150   0.232 -0.2502 -0.2399  0.4672
 3910TIP3    H111736   1.387   3.142   0.174  0.5691 -1.8930 -0.4750
 3910TIP3    H211737   1.536   3.113   0.181  0.9534  0.2531  1.7601
 3911TIP3   OH211738   1.728   2.884   4.613  0.2968  0.3966  0.2137
 3911TIP3    H111739   1.665   2.956   4.617 -0.7031 -0.4855  1.7263
 3911TIP3    H211740   1.678   2.810   4.579  0.7249 -0.1037  0.6379
 3912TIP3   OH211741   1.110   5.713   1.215  0.3353 -0.3120 -0.0555
 3912TIP3    H111742   1.165   5.636   1.204  1.8673  0.8409 -0.8077
 3912TIP3    H211743   1.027   5.689   1.175  0.1754 -2.1613  1.2778
 3913TIP3   OH211744   5.357   5.079   2.516 -0.9698  0.1219  0.0683
 3913TIP3    H111745   5.451   5.061   2.510 -1.3829 -2.0006 -1.0646
 3913TIP3    H211746   5.350   5.173   2.500  0.8757  0.0920 -1.3013
 3914TIP3   OH211747   3.525   2.363   3.450 -0.2753 -0.1759  0.3193
 3914TIP3    H111748   3.591   2.351   3.518  1.5263 -0.7678 -1.4468
 3914TIP3    H211749   3.535   2.287   3.393 -0.8475  0.9276 -1.3158
 3915TIP3   OH211750   3.931   1.283   2.321 -0.5145  0.2823  0.1265
 3915TIP3    H111751   3.995   1.325   2.264 -1.5366 -0.0053 -1.3028
 3915TIP3    H211752   3.958   1.306   2.410  1.8425 -0.2381 -0.3816
 3916TIP3   OH211753   0.154   4.402   1.001  0.0317 -0.5474 -0.3702
 3916TIP3    H111754   0.163   4.324   1.055  1.3356 -0.1752 -0.0136
 3916TIP3    H211755   0.196   4.471   1.051  1.0897 -0.1457 -1.7399
 3917TIP3   OH211756   3.249   0.963   4.101 -0.2748 -0.6023  0.2589
 3917TIP3    H111757   3.188   0.890   4.092 -1.4204  0.1871  1.1975
 3917TIP3    H211758   3.274   0.985   4.011 -0.2953 -1.8193 -0.0583
 3918TIP3   OH211759   5.768   1.212   1.021 -0.1546 -0.0963 -0.3532
 3918TIP3    H111760   5.679   1.187   0.998 -0.1447 -0.7077  0.2246
 3918TIP3    H211761   5.808   1.238   0.939 -0.9351  0.3965 -0.5824
 3919TIP3   OH211762   0.647   3.647   1.059 -0.4056 -0.4533  0.1485
 3919TIP3    H111763   0.591   3.718   1.090 -3.7170 -3.5486  1.9638
 3919TIP3    H211764   0.619   3.632   0.969 -1.9329 -1.3146  0.7246
 3920TIP3   OH211765   2.487   3.038   0.597  0.1171  0.1356 -0.6003
 3920TIP3    H111766   2.576   3.054   0.626  0.0461  1.9572 -1.2412
 3920TIP3    H211767   2.492   2.957   0.545  1.6735  0.9071 -1.7233
 3921TIP3   OH211768   4.653   3.317   3.014 -0.1586 -0.4372  0.9595
 3921TIP3    H111769   4.743   3.308   3.044 -0.1132 -3.5437  0.1654
 3921TIP3    H211770   4.660   3.352   2.925  0.0475  1.6437  1.7235
 3922TIP3   OH211771   6.103   1.116   1.817 -0.5580 -0.0305 -0.4057
 3922TIP3    H111772   6.143   1.147   1.898 -0.7568  0.9859 -0.6901
 3922TIP3    H211773   6.143   1.030   1.802 -0.5673 -0.2583  0.7940
 3923TIP3   OH211774   2.541   5.649   1.224  0.2692  0.5529  0.2371
 3923TIP3    H111775   2.451   5.650   1.256  0.2793  0.9359  0.2579
 3923TIP3    H211776   2.550   5.729   1.173  0.0956 -0.3080 -1.2097
 3924TIP3   OH211777   3.201   2.301   5.092  0.4042  0.2560 -0.5742
 3924TIP3    H111778   3.108   2.325   5.090  0.1289 -0.5077  1.1248
 3924TIP3    H211779   3.220   2.287   5.185  1.9465 -0.6318 -0.9892
 3925TIP3   OH211780   2.838   2.150   2.552 -0.2808  0.0800 -0.3710
 3925TIP3    H111781   2.921   2.118   2.518 -0.0872  2.2876 -2.2482
 3925TIP3    H211782   2.861   2.195   2.633  0.2844  0.1881 -0.5870
 3926TIP3   OH211783   5.559   4.513   3.787  0.1587  0.1698  0.5214
 3926TIP3    H111784   5.583   4.472   3.704  1.3492 -0.2459  1.0518
 3926TIP3    H211785   5.464   4.504   3.791 -0.0614  1.1887 -1.3025
 3927TIP3   OH211786   1.084   0.051   1.067 -0.5705  0.2781  0.6076
 3927TIP3    H111787   1.079   0.147   1.072 -1.2559  0.4042 -1.4941
 3927TIP3    H211788   1.001   0.025   1.028 -0.0583 -1.1000  0.3862
 3928TIP3   OH211789   4.848   4.209   0.844  0.2309  0.0144  0.5315
 3928TIP3    H111790   4.795   4.133   0.868 -1.8785  1.0704 -0.4935
 3928TIP3    H211791   4.806   4.283   0.889  1.3733  0.7759  0.3836
 3929TIP3   OH211792   0.202   5.139   1.708 -0.7317 -0.1009 -0.0425
 3929TIP3    H111793   0.203   5.234   1.704  0.1096 -0.0529  0.8384
 3929TIP3    H211794   0.194   5.119   1.801  2.7979 -0.8455  0.2149
 3930TIP3   OH211795   0.210   0.228   2.724 -0.2404 -0.1276 -0.0651
 3930TIP3    H111796   0.166   0.150   2.692  0.2988  0.1309 -1.4986
 3930TIP3    H211797   0.139   0.287   2.751 -0.7410 -0.1732 -1.2474
 3931TIP3   OH211798   5.997   0.005   4.601  0.1266  0.3836 -0.7234
 3931TIP3    H111799   5.908  -0.008   4.568  0.1472 -2.0277  0.0029
 3931TIP3    H211800   6.026   0.087   4.560 -2.7794  1.8243 -0.1491
 3932TIP3   OH211801   3.043   4.130   3.841 -0.1477  0.3835 -0.1739
 3932TIP3    H111802   3.064   4.216   3.804  0.3127  0.1861 -0.3812
 3932TIP3    H211803   2.985   4.149   3.915  1.0768  0.9871  0.6625
 3933TIP3   OH211804   0.287   5.283   1.364  0.1513  0.6219 -0.5708
 3933TIP3    H111805   0.321   5.345   1.428 -2.9912  0.2031  1.7510
 3933TIP3    H211806   0.317   5.197   1.395 -1.3267  0.4237  0.4239
 3934TIP3   OH211807   2.390   5.913   5.020 -0.5314 -0.1516  0.1257
 3934TIP3    H111808   2.404   5.971   5.096 -3.0281  1.6926 -0.6893
 3934TIP3    H211809   2.299   5.883   5.029  0.6903 -4.2580  0.5935
 3935TIP3   OH211810   0.664   2.880   0.333  0.0714  0.3407  0.1317
 3935TIP3    H111811   0.670   2.806   0.393 -0.7912  0.4755  0.3998
 3935TIP3    H211812   0.654   2.956   0.390 -3.1142  0.2516 -0.1276
 3936TIP3   OH211813   3.471   5.229   2.104  0.3350 -0.3179 -0.1968
 3936TIP3    H111814   3.395   5.264   2.150  0.8522  0.2054  0.2899
 3936TIP3    H211815   3.501   5.156   2.158  0.4768 -0.2001 -0.1141
 3937TIP3   OH211816   0.354   4.388   3.728 -0.4119 -0.3715 -0.1485
 3937TIP3    H111817   0.395   4.363   3.811  2.0235 -0.4756 -1.2984
 3937TIP3    H211818   0.358   4.309   3.675  0.3426  0.3697 -1.2130
 3938TIP3   OH211819   1.407   3.458   0.649  0.7667  0.1045 -0.5444
 3938TIP3    H111820   1.369   3.416   0.572  0.2443  1.4313 -1.0378
 3938TIP3    H211821   1.340   3.520   0.678  0.2994 -1.3951  1.9031
 3939TIP3   OH211822   3.853   3.847   4.028 -0.1517  0.6290  0.2109
 3939TIP3    H111823   3.916   3.857   3.956 -0.1467  2.2182  0.4036
 3939TIP3    H211824   3.770   3.877   3.991 -0.3862  0.4164  0.5583
 3940TIP3   OH211825   3.236   5.558   5.058 -0.1237 -0.3632  0.2068
 3940TIP3    H111826   3.224   5.584   5.149 -1.2832 -1.5407  0.4209
 3940TIP3    H211827   3.219   5.463   5.058 -1.1667 -0.2137 -1.3989
 3941TIP3   OH211828   3.800   4.436   3.890  0.3912 -0.3721  0.4830
 3941TIP3    H111829   3.880   4.455   3.841 -0.7213 -0.9212 -1.6723
 3941TIP3    H211830   3.796   4.341   3.893  0.6613 -0.3527  2.1006
 3942TIP3   OH211831   1.878   3.970   2.096  0.7990  0.2522  0.2104
 3942TIP3    H111832   1.964   3.963   2.137  1.1153  2.4971  0.0465
 3942TIP3    H211833   1.817   3.986   2.169  0.3548 -2.0277  0.4064
 3943TIP3   OH211834   4.743   3.839   0.381  0.3639  0.6283  0.1587
 3943TIP3    H111835   4.699   3.869   0.302  2.2781  0.4335 -1.0313
 3943TIP3    H211836   4.677   3.786   0.426 -0.6057  0.3084 -1.5486
 3944TIP3   OH211837   3.261   5.397   2.948 -0.5591  0.0611  0.5747
 3944TIP3    H111838   3.267   5.329   2.881  0.2789  0.6343  0.0461
 3944TIP3    H211839   3.227   5.352   3.025  1.1125 -1.2478  0.6105
 3945TIP3   OH211840   1.563   5.168   3.333  0.0042  0.2796 -0.2161
 3945TIP3    H111841   1.569   5.224   3.410  0.8223  0.1362 -0.1658
 3945TIP3    H211842   1.611   5.215   3.265 -1.1499  0.6488 -0.8020
 3946TIP3   OH211843   0.405   0.682   1.883  0.3706 -0.1612  0.6481
 3946TIP3    H111844   0.357   0.751   1.835  1.8880 -0.7038 -1.8597
 3946TIP3    H211845   0.374   0.690   1.973 -1.1602  2.3367  0.0233
 3947TIP3   OH211846   4.401   3.003   1.040  0.5671 -0.1233  0.2337
 3947TIP3    H111847   4.400   3.065   0.968 -3.8680  1.9049  1.6411
 3947TIP3    H211848   4.443   3.051   1.112  1.0729 -0.4837  0.1848
 3948TIP3   OH211849   3.407   5.785   0.435 -0.0645  0.0108 -0.3810
 3948TIP3    H111850   3.445   5.747   0.356  0.0273  0.6751 -0.6614
 3948TIP3    H211851   3.482   5.815   0.486 -0.1417 -0.0765 -0.2133
 3949TIP3   OH211852   4.294   1.617   0.719  0.1962 -0.0887 -0.1335
 3949TIP3    H111853   4.329   1.585   0.636  1.5898  0.5377  0.1778
 3949TIP3    H211854   4.283   1.539   0.772 -0.4711 -0.4704 -0.8169
 3950TIP3   OH211855   1.122   4.096   2.343  0.0427 -0.1378  0.2733
 3950TIP3    H111856   1.048   4.144   2.380 -0.2650  1.7413 -2.4610
 3950TIP3    H211857   1.197   4.153   2.357 -0.1394  0.7957 -2.0643
 3951TIP3   OH211858   3.636   4.360   3.048 -0.4404 -0.3648  0.3127
 3951TIP3    H111859   3.729   4.378   3.054 -0.5573  0.0259  1.2507
 3951TIP3    H211860   3.630   4.265   3.040  0.0673 -0.3044 -1.0139
 3952TIP3   OH211861   5.235   2.938   2.984  0.7251 -0.1101 -0.7212
 3952TIP3    H111862   5.285   2.862   2.953  1.4592 -0.2539  0.7141
 3952TIP3    H211863   5.144   2.916   2.965  1.0433 -0.6896 -1.6586
 3953TIP3   OH211864   1.548   1.435   0.900 -0.2021  0.1374 -0.1565
 3953TIP3    H111865   1.622   1.406   0.847  0.8926  2.6325 -0.1525
 3953TIP3    H211866   1.516   1.514   0.856 -2.0278 -0.1531  0.5736
 3954TIP3   OH211867   3.010   3.911   2.597 -0.0442 -0.1657 -0.4835
 3954TIP3    H111868   3.069   3.976   2.560  0.0385  0.1448  0.1935
 3954TIP3    H211869   3.058   3.829   2.592 -0.3026 -0.2564 -1.7158
 3955TIP3   OH211870   4.298   3.187   4.920  0.5366  0.2590  0.0205
 3955TIP3    H111871   4.310   3.203   4.826  1.2773 -1.1469 -0.1605
 3955TIP3    H211872   4.256   3.266   4.953 -0.3621  0.5129 -1.6220
 3956TIP3   OH211873   1.483  -0.002   2.923  0.1142  0.0583 -0.2761
 3956TIP3    H111874   1.397   0.019   2.960 -0.1770 -0.5193 -0.6124
 3956TIP3    H211875   1.508   0.078   2.877 -0.0980  0.3411  0.0869
 3957TIP3   OH211876   1.403   2.454   3.725 -0.3439 -0.0875 -0.3264
 3957TIP3    H111877   1.476   2.392   3.733  1.1790  1.7919  1.4444
 3957TIP3    H211878   1.327   2.399   3.705  0.9894 -2.4832  0.7487
 3958TIP3   OH211879   2.327   5.663  -0.017  0.2609  0.0952  0.2377
 3958TIP3    H111880   2.307   5.570  -0.021  0.8121 -0.0173  0.1002
 3958TIP3    H211881   2.294   5.691   0.069 -2.1762  0.3252 -0.6841
 3959TIP3   OH211882   1.941   4.795   0.423  0.3539 -0.6958  0.0744
 3959TIP3    H111883   1.884   4.737   0.372 -0.2855 -0.7911  0.8627
 3959TIP3    H211884   1.880   4.855   0.466  0.7461 -1.3994  1.6925
 3960TIP3   OH211885   2.304   2.302   0.297  0.2673  0.1355  0.0839
 3960TIP3    H111886   2.271   2.219   0.263 -0.4575  0.3053  0.3479
 3960TIP3    H211887   2.226   2.356   0.309  0.6183  0.4992  0.8568
 3961TIP3   OH211888   5.340   4.391   2.612  1.0462  0.1102 -0.6745
 3961TIP3    H111889   5.299   4.306   2.594 -3.1469  2.3254 -3.0657
 3961TIP3    H211890   5.295   4.423   2.690  1.4288  0.8383 -0.7445
 3962TIP3   OH211891   0.471   3.879   4.587 -0.5245  0.0367 -0.0976
 3962TIP3    H111892   0.435   3.944   4.527  1.0429  1.0363 -0.0092
 3962TIP3    H211893   0.401   3.814   4.597 -0.5306 -0.7023 -3.7008
 3963TIP3   OH211894   4.679   2.069   4.048 -0.2865 -0.7100  0.2424
 3963TIP3    H111895   4.648   2.072   4.138 -0.2262  1.7181  0.2512
 3963TIP3    H211896   4.602   2.089   3.995  0.3146  1.3169  0.0261
 3964TIP3   OH211897   1.648   5.893   4.893  0.0860  0.0093 -0.1842
 3964TIP3    H111898   1.581   5.960   4.902  2.0715  1.9206  1.4889
 3964TIP3    H211899   1.645   5.868   4.801 -2.1108  0.8470 -0.3968
 3965TIP3   OH211900   3.141   0.169   1.934 -0.3479  0.0183  0.2618
 3965TIP3    H111901   3.093   0.149   1.853  0.1170  0.0294 -0.0223
 3965TIP3    H211902   3.073   0.173   2.002 -0.6053 -1.2872  0.1133
 3966TIP3   OH211903   4.430   0.929   4.761 -0.4051 -0.0133  0.3440
 3966TIP3    H111904   4.438   0.844   4.805 -0.4176  1.0307  2.4752
 3966TIP3    H211905   4.430   0.993   4.832  1.0648  1.8934 -1.2675
 3967TIP3   OH211906   3.285   4.977   3.858  0.4243 -0.3425 -0.3940
 3967TIP3    H111907   3.359   5.031   3.829 -0.2374  0.5980 -0.3670
 3967TIP3    H211908   3.302   4.962   3.951 -0.2951  1.4022  0.0732
 3968TIP3   OH211909   0.636   3.672   0.515  0.2897 -0.2086  0.1970
 3968TIP3    H111910   0.612   3.678   0.423 -1.9125 -0.5718  0.7014
 3968TIP3    H211911   0.725   3.636   0.514  0.0424 -0.8776 -1.7694
 3969TIP3   OH211912   0.056   5.373   0.677  0.0922 -0.0916  0.1150
 3969TIP3    H111913   0.036   5.379   0.584 -0.2810  1.2103  0.2546
 3969TIP3    H211914   0.099   5.456   0.697  1.6031 -0.9875  0.7822
 3970TIP3   OH211915   5.935   3.431   4.990 -0.2000 -0.5815 -0.2854
 3970TIP3    H111916   5.945   3.399   4.900  0.4824 -0.8656 -0.1191
 3970TIP3    H211917   5.901   3.520   4.980  1.2041 -0.0776 -0.8850
 3971TIP3   OH211918   3.425   5.426   4.626 -0.5199  1.0309 -0.2073
 3971TIP3    H111919   3.478   5.478   4.686 -1.0186  1.3473 -0.0401
 3971TIP3    H211920   3.467   5.437   4.541  2.1795 -1.9851  0.5153
 3972TIP3   OH211921   1.462   1.913   0.868  0.2885 -0.0228 -0.3099
 3972TIP3    H111922   1.486   1.991   0.817 -0.9835  0.5518 -0.0793
 3972TIP3    H211923   1.460   1.842   0.804 -2.3947  0.8922 -1.3933
 3973TIP3   OH211924   2.958   2.227   4.801  0.1009 -0.2336 -0.3737
 3973TIP3    H111925   2.899   2.239   4.875 -0.6110  0.3370 -1.0221
 3973TIP3    H211926   2.991   2.315   4.781  0.1216 -0.3461 -0.8617
 3974TIP3   OH211927   3.491   0.098   2.420 -0.1530 -0.2552 -0.6966
 3974TIP3    H111928   3.427   0.142   2.476 -1.5455 -2.7548 -0.1999
 3974TIP3    H211929   3.438   0.055   2.353  1.0989 -1.4530 -0.9450
 3975TIP3   OH211930   3.293   2.967   2.328  0.1208 -0.2436  0.2834
 3975TIP3    H111931   3.343   2.909   2.270  0.8351 -0.5999  1.2479
 3975TIP3    H211932   3.214   2.988   2.277  0.7574 -0.4903 -0.8499
 3976TIP3   OH211933   2.238   3.810   2.280  0.3296  0.3016 -0.1767
 3976TIP3    H111934   2.314   3.760   2.308  0.1029  0.2098  0.2792
 3976TIP3    H211935   2.194   3.752   2.218 -0.5073 -0.5249  1.1388
 3977TIP3   OH211936   1.747   2.010   0.117 -0.4690  0.2250  0.3381
 3977TIP3    H111937   1.689   2.024   0.191 -0.8113 -2.3774  0.6613
 3977TIP3    H211938   1.690   1.975   0.048  0.0637  1.3969 -0.7214
 3978TIP3   OH211939   5.699   2.877   2.011  0.4641  0.4119 -0.4660
 3978TIP3    H111940   5.763   2.807   2.001 -0.5069 -0.3630 -1.5195
 3978TIP3    H211941   5.652   2.878   1.927 -0.6308  1.2292  0.1365
 3979TIP3   OH211942   0.669   0.269   3.681 -0.2469  0.3056  0.2192
 3979TIP3    H111943   0.721   0.274   3.761  1.7788 -0.1537 -1.0017
 3979TIP3    H211944   0.733   0.274   3.610 -2.0754  2.5073 -1.4577
 3980TIP3   OH211945   1.424   5.243   4.881 -0.1949 -0.3406  0.3422
 3980TIP3    H111946   1.470   5.225   4.963  2.7017 -0.4998 -1.1875
 3980TIP3    H211947   1.468   5.320   4.845 -0.0392 -1.4136 -1.9623
 3981TIP3   OH211948   1.883   0.030   2.357  0.6314 -0.2026  0.2487
 3981TIP3    H111949   1.880   0.121   2.327 -0.9536 -0.7376 -1.3967
 3981TIP3    H211950   1.865   0.035   2.451 -0.4407  1.1240  0.0015
 3982TIP3   OH211951   4.381   1.754   2.040  0.3412  0.3649  0.2707
 3982TIP3    H111952   4.439   1.681   2.056 -0.0872 -0.4124 -1.5139
 3982TIP3    H211953   4.429   1.831   2.071  1.2388 -0.5301  1.1473
 3983TIP3   OH211954   1.934   1.711   1.519 -0.1010  0.1874 -0.2901
 3983TIP3    H111955   1.951   1.697   1.426  1.8320 -1.3626  0.2233
 3983TIP3    H211956   1.985   1.789   1.541 -2.0133  1.6734 -0.8407
 3984TIP3   OH211957   3.467   1.337   0.433  0.0754  0.2431  0.5121
 3984TIP3    H111958   3.382   1.357   0.394  0.2978  0.6304  0.2157
 3984TIP3    H211959   3.520   1.415   0.417  0.6092 -0.1417  0.3498
 3985TIP3   OH211960   0.224   5.975   0.258  0.5850 -0.2676  0.1354
 3985TIP3    H111961   0.147   5.960   0.203  0.7246 -0.3995 -0.0237
 3985TIP3    H211962   0.247   5.887   0.290  1.0136 -0.3111 -0.2768
 3986TIP3   OH211963   5.989   4.257   1.455 -0.1882  0.0470  0.0382
 3986TIP3    H111964   5.999   4.335   1.509  0.0458 -0.8671  1.3728
 3986TIP3    H211965   6.017   4.185   1.512 -2.5114 -1.2577 -0.3461
 3987TIP3   OH211966   2.101   0.729   3.721  0.5052 -0.3002 -0.8531
 3987TIP3    H111967   2.095   0.756   3.813 -0.5351 -1.6437 -0.4894
 3987TIP3    H211968   2.077   0.808   3.672  2.5322  0.8886 -0.0863
 3988TIP3   OH211969   3.590   1.574   0.551 -0.3370 -0.1513 -0.6159
 3988TIP3    H111970   3.658   1.514   0.521 -1.5471 -1.4652 -0.8245
 3988TIP3    H211971   3.636   1.638   0.604  0.9705 -1.4326 -0.1492
 3989TIP3   OH211972   4.295   5.317   3.385 -0.3679 -0.1684  0.7914
 3989TIP3    H111973   4.272   5.349   3.472  0.7388  0.6983  0.7789
 3989TIP3    H211974   4.342   5.389   3.344  1.2913 -1.4191  0.3816
 3990TIP3   OH211975   2.508   1.103   3.918  0.2352  0.4589  0.0470
 3990TIP3    H111976   2.528   1.089   4.011  1.8070 -1.8889 -0.5584
 3990TIP3    H211977   2.565   1.175   3.892  0.6103  0.3880  0.6464
 3991TIP3   OH211978   5.838   2.310   0.253 -0.2337 -0.3389 -0.0771
 3991TIP3    H111979   5.892   2.231   0.243 -1.0518 -0.6840 -2.5418
 3991TIP3    H211980   5.750   2.277   0.267 -0.3522  0.1675  0.3976
 3992TIP3   OH211981   3.404   0.128   3.520 -0.3246 -0.2104  0.1157
 3992TIP3    H111982   3.460   0.146   3.444  0.0455 -1.3986  0.0834
 3992TIP3    H211983   3.319   0.164   3.497  0.0811  0.4511 -0.3871
 3993TIP3   OH211984   2.366   4.125   2.546  0.1905  0.1613 -0.3566
 3993TIP3    H111985   2.397   4.035   2.550 -0.8239 -0.2259 -0.9155
 3993TIP3    H211986   2.375   4.150   2.454  1.5847  1.0559 -0.0053
 3994TIP3   OH211987   4.842   1.244   1.603 -0.9597 -0.2912  0.2313
 3994TIP3    H111988   4.768   1.241   1.542 -1.4102 -0.4978  0.7792
 3994TIP3    H211989   4.813   1.194   1.679  0.3444 -1.7544 -0.1774
 3995TIP3   OH211990   4.152   2.757   1.300 -0.1088 -0.2992 -0.3053
 3995TIP3    H111991   4.211   2.682   1.310  1.7295  1.1453  0.2150
 3995TIP3    H211992   4.202   2.820   1.248 -1.1982  0.9977  0.1561
 3996TIP3   OH211993   5.403   2.357   4.830  0.1123  0.2224  0.1118
 3996TIP3    H111994   5.466   2.287   4.846 -0.4460 -0.2269  0.3778
 3996TIP3    H211995   5.438   2.433   4.877  1.0552  0.3237 -0.7039
 3997TIP3   OH211996   1.830   3.870   5.064  0.0197  0.3833  0.0585
 3997TIP3    H111997   1.801   3.956   5.094 -0.4055 -0.1749  1.3301
 3997TIP3    H211998   1.750   3.817   5.064  0.5479 -0.4354  0.9073
 3998TIP3   OH211999   5.731   4.625   0.318 -0.4859 -0.0911 -0.3289
 3998TIP3    H112000   5.784   4.691   0.274  0.5696 -1.1296 -0.6580
 3998TIP3    H212001   5.742   4.546   0.266  0.3929 -1.2371  1.4745
 3999TIP3   OH212002   3.927   5.927   2.972  0.2541  0.6227 -0.0374
 3999TIP3    H112003   3.833   5.946   2.977  0.6053  2.4105  0.3266
 3999TIP3    H212004   3.953   5.911   3.063  0.1126 -1.0540 -0.2573
 4000TIP3   OH212005   4.609   1.550   3.094 -0.1162 -0.2557  0.0595
 4000TIP3    H112006   4.553   1.533   3.019 -1.3863 -2.5081  1.4082
 4000TIP3    H212007   4.653   1.467   3.111 -1.5382 -0.5407  3.0603
 4001TIP3   OH212008   2.642   4.019   1.356  0.1350  0.1478  0.2344
 4001TIP3    H112009   2.626   3.930   1.389 -0.2265 -0.3381 -1.1502
 4001TIP3    H212010   2.717   4.051   1.406  0.9798 -1.3692 -0.0050
 4002TIP3   OH212011   4.142   3.729   1.967  0.3851 -0.1750  0.3405
 4002TIP3    H112012   4.134   3.710   1.873 -0.5492 -0.8018  0.5237
 4002TIP3    H212013   4.155   3.824   1.971 -0.0797 -0.0656 -0.4044
 4003TIP3   OH212014   3.047   3.818   3.873  0.2526  0.5587 -0.9836
 4003TIP3    H112015   3.056   3.913   3.877  0.8307  0.5297 -1.5386
 4003TIP3    H212016   3.071   3.788   3.961  0.0099  0.9235 -0.7889
 4004TIP3   OH212017   2.164   2.625   0.708 -0.4185 -0.1214 -0.1495
 4004TIP3    H112018   2.073   2.647   0.728 -0.9967 -1.5199 -1.0684
 4004TIP3    H212019   2.206   2.614   0.794 -0.6187  2.2740  0.3090
 4005TIP3   OH212020   2.037   1.921   3.272 -0.1608 -0.2242  0.5737
 4005TIP3    H112021   2.132   1.912   3.263 -0.1052 -0.1170  1.0165
 4005TIP3    H212022   2.002   1.835   3.250 -0.1306  0.2676 -1.6558
 4006TIP3   OH212023   4.920  -0.009   4.585  0.3154  0.5108  0.0249
 4006TIP3    H112024   4.900   0.057   4.651 -0.2448 -0.6183  1.0201
 4006TIP3    H212025   4.869   0.018   4.508  1.6635  2.3275 -0.2887
 4007TIP3   OH212026   5.474   1.396   3.544 -0.1523  0.3536  0.4679
 4007TIP3    H112027   5.460   1.487   3.519 -1.6837  0.0624  0.1714
 4007TIP3    H212028   5.503   1.353   3.463 -0.4943  0.3620  0.3398
 4008TIP3   OH212029   5.389   4.037   0.135  0.0075 -0.1544  0.6446
 4008TIP3    H112030   5.312   4.081   0.098 -0.5611 -1.6380 -0.0285
 4008TIP3    H212031   5.357   3.999   0.217  0.6413  1.1047  1.5082
 4009TIP3   OH212032   4.352   2.851   2.973 -0.1503  0.2872  0.0022
 4009TIP3    H112033   4.286   2.783   2.982 -0.4318  0.6478  0.7882
 4009TIP3    H212034   4.311   2.918   2.919  0.8996 -1.0805 -2.7388
 4010TIP3   OH212035   0.063   5.546   1.321  0.0753  0.0477  0.1398
 4010TIP3    H112036   0.005   5.553   1.397 -1.0720  0.9953 -0.7849
 4010TIP3    H212037   0.139   5.600   1.344  0.0603 -0.2416  0.8860
 4011TIP3   OH212038   6.053   4.997   4.062 -0.0498  0.2878  0.0579
 4011TIP3    H112039   6.144   4.966   4.058 -0.5965 -1.6239  1.1636
 4011TIP3    H212040   6.046   5.041   4.147 -0.1940  0.3059  0.0374
 4012TIP3   OH212041   4.320   4.993   0.134 -0.1990 -0.0332  0.0714
 4012TIP3    H112042   4.264   5.067   0.110 -0.2920  0.7201  2.3225
 4012TIP3    H212043   4.409   5.026   0.125 -0.1990 -0.1293 -0.2970
 4013TIP3   OH212044   5.301   1.224   3.337  0.3930  0.1780 -0.5198
 4013TIP3    H112045   5.265   1.312   3.336  1.2975  0.6022  0.8378
 4013TIP3    H212046   5.395   1.237   3.320  0.4778 -0.5577 -0.6443
 4014TIP3   OH212047   3.669   0.865   2.109  0.0440  0.6945 -0.2544
 4014TIP3    H112048   3.671   0.889   2.202 -0.1100 -2.0601  0.5493
 4014TIP3    H212049   3.734   0.922   2.068  0.3120  1.7862  1.5684
 4015TIP3   OH212050   0.885   4.603   1.081  0.5064  0.3121 -0.1110
 4015TIP3    H112051   0.932   4.533   1.126  1.0482  0.8374  0.1528
 4015TIP3    H212052   0.941   4.627   1.007  0.8156  1.1419  0.3745
 4016TIP3   OH212053   6.124   4.299   2.003  0.8213 -0.1344  0.1904
 4016TIP3    H112054   6.215   4.270   2.008  1.1829  0.9922  0.3716
 4016TIP3    H212055   6.077   4.224   1.966  1.4697 -1.4487  1.8986
 4017TIP3   OH212056   1.562   2.109   2.463 -0.1030 -0.2908 -0.8697
 4017TIP3    H112057   1.518   2.066   2.390  1.9552 -1.5100 -1.4641
 4017TIP3    H212058   1.613   2.039   2.504  1.2536  1.0511 -0.2165
 4018TIP3   OH212059   1.665   3.508   4.488  0.6549 -0.3916  0.2162
 4018TIP3    H112060   1.655   3.442   4.556 -0.1189 -1.6304 -1.0467
 4018TIP3    H212061   1.729   3.471   4.427  0.8235  0.3908 -0.0987
 4019TIP3   OH212062   1.808   1.640   3.545 -0.4577  0.3207  0.5980
 4019TIP3    H112063   1.748   1.614   3.616  0.2220 -0.3327  0.9419
 4019TIP3    H212064   1.883   1.582   3.555  0.3672  1.3257  0.3505
 4020TIP3   OH212065   5.359   4.742   0.262 -0.0038  0.0497 -0.0568
 4020TIP3    H112066   5.318   4.803   0.200  0.4761  1.7939  1.2616
 4020TIP3    H212067   5.439   4.713   0.217 -1.2954 -1.3694 -1.5786
 4021TIP3   OH212068   0.284   5.184   2.256  0.8571 -0.0941  0.0895
 4021TIP3    H112069   0.364   5.164   2.305  0.1725 -2.1838  0.4582
 4021TIP3    H212070   0.213   5.158   2.314 -0.1081  1.1620 -0.4760
 4022TIP3   OH212071   6.172   1.803   0.012  0.1742 -0.2088 -0.7083
 4022TIP3    H112072   6.113   1.773   0.081 -1.5173  1.5343 -1.2841
 4022TIP3    H212073   6.183   1.727  -0.045  0.1543 -1.1554  0.5049
 4023TIP3   OH212074   3.775   5.366   0.805  0.3665  0.7186 -0.5065
 4023TIP3    H112075   3.697   5.371   0.750 -0.4131  0.4043  0.5476
 4023TIP3    H212076   3.752   5.305   0.875  0.8404  2.1525  0.9563
 4024TIP3   OH212077   4.118   5.194   0.796  0.0583  0.4002  0.3989
 4024TIP3    H112078   4.088   5.188   0.887 -0.3442 -1.0620  0.1821
 4024TIP3    H212079   4.195   5.251   0.800  1.5615 -1.6065  2.0589
 4025TIP3   OH212080   6.079   5.765   4.685  0.0985 -0.1219  0.1067
 4025TIP3    H112081   6.143   5.836   4.683  0.2522 -0.1638  1.9076
 4025TIP3    H212082   6.132   5.686   4.697 -0.1751 -0.3938 -0.4170
 4026TIP3   OH212083   3.059   1.764   1.629  0.1566 -0.0835  0.0727
 4026TIP3    H112084   3.118   1.822   1.676 -0.1315  0.3913 -0.1388
 4026TIP3    H212085   3.001   1.728   1.696 -0.8762  1.3327 -0.0182
 4027TIP3   OH212086   2.747   1.401   1.181  0.3556  0.0257  0.2458
 4027TIP3    H112087   2.813   1.332   1.173  1.0344  0.6643  0.1976
 4027TIP3    H212088   2.730   1.407   1.275  2.1238  1.4418  0.5207
 4028TIP3   OH212089   4.288   0.567   2.025 -0.0418  0.1310  0.0609
 4028TIP3    H112090   4.223   0.519   2.077  0.7136 -2.0162 -0.8418
 4028TIP3    H212091   4.305   0.510   1.950  2.5961  0.7675  0.0732
 4029TIP3   OH212092   0.918   5.849   4.977  0.4594  0.8846 -0.0455
 4029TIP3    H112093   0.988   5.884   4.922  2.3984 -1.6143  0.6268
 4029TIP3    H212094   0.881   5.778   4.925 -2.2431  2.6444 -0.7136
 4030TIP3   OH212095   3.225   3.284   2.962 -0.5230 -0.1148 -0.4363
 4030TIP3    H112096   3.187   3.371   2.976  0.2665  0.1255  0.3298
 4030TIP3    H212097   3.284   3.272   3.037  2.3267  0.3101 -2.4418
 4031TIP3   OH212098   3.629   3.386   1.681  0.0560  0.1980 -0.4651
 4031TIP3    H112099   3.724   3.394   1.682  0.1447 -0.5276 -1.7049
 4031TIP3    H212100   3.612   3.304   1.728  0.1033 -0.0760 -0.9175
 4032TIP3   OH212101   2.170   4.362   1.139  0.0877 -0.0649 -0.3855
 4032TIP3    H112102   2.223   4.319   1.206 -1.5170  0.2692  1.1681
 4032TIP3    H212103   2.102   4.297   1.117 -0.6362  0.5879 -0.1281
 4033TIP3   OH212104   1.138   4.636   0.962  0.3419  0.6806  0.9766
 4033TIP3    H112105   1.157   4.566   0.899 -1.7065  0.0480  0.9705
 4033TIP3    H212106   1.214   4.638   1.020  0.6612 -1.2421  0.6836
 4034TIP3   OH212107   1.888   4.577   3.812 -0.3417 -0.3552 -0.1458
 4034TIP3    H112108   1.943   4.638   3.862  0.1704 -0.9955  0.0795
 4034TIP3    H212109   1.930   4.492   3.823 -2.3935 -1.2440  1.6315
 4035TIP3   OH212110   4.064   4.335   0.761  0.3397 -0.2418  1.2811
 4035TIP3    H112111   3.982   4.296   0.790  1.5442 -2.0061  2.5015
 4035TIP3    H212112   4.057   4.426   0.788 -1.0266 -0.4546  1.7585
 4036TIP3   OH212113   0.484   0.253   5.132 -0.0030 -0.7948 -0.1832
 4036TIP3    H112114   0.436   0.261   5.214  0.5402 -0.6613  0.1278
 4036TIP3    H212115   0.527   0.167   5.137  1.2718 -0.1507  0.3634
 4037TIP3   OH212116   4.033   2.857   0.796  0.0562 -0.5578  0.6506
 4037TIP3    H112117   4.074   2.874   0.881  0.6520 -0.1905  0.2916
 4037TIP3    H212118   3.973   2.784   0.813 -1.0123  0.5240  1.7506
 4038TIP3   OH212119   3.321   5.126   0.921 -0.3156 -0.3953 -0.2783
 4038TIP3    H112120   3.358   5.195   0.976  2.0236  0.1534 -2.3874
 4038TIP3    H212121   3.246   5.167   0.878 -0.3986  0.0598  0.2939
 4039TIP3   OH212122   0.306   3.072   0.117 -0.2638 -0.1580 -0.2236
 4039TIP3    H112123   0.219   3.104   0.141 -0.4399 -0.3140 -0.6356
 4039TIP3    H212124   0.309   2.982   0.151  0.7647  0.7173  2.2023
 4040TIP3   OH212125   0.936   0.196   4.457  0.0745 -0.4386 -0.0747
 4040TIP3    H112126   1.026   0.182   4.425 -0.6368 -1.0307 -1.9741
 4040TIP3    H212127   0.907   0.109   4.483 -0.4903 -0.5505 -1.0409
 4041TIP3   OH212128   5.629   2.769   1.554  0.2578 -0.0160  0.0068
 4041TIP3    H112129   5.565   2.753   1.485  1.3435 -0.0219 -1.0149
 4041TIP3    H212130   5.622   2.692   1.611 -0.6184 -0.0265 -0.0957
 4042TIP3   OH212131   0.686   0.560   0.376  0.6395 -0.3978 -0.8154
 4042TIP3    H112132   0.665   0.480   0.328  1.7997  0.0079 -2.0652
 4042TIP3    H212133   0.756   0.601   0.325  1.9358  0.0683  1.2182
 4043TIP3   OH212134   2.710   4.165   3.128  0.0286 -0.8542  0.3038
 4043TIP3    H112135   2.727   4.251   3.090 -0.7691 -1.1933 -0.8572
 4043TIP3    H212136   2.631   4.176   3.180 -0.7510 -1.1462 -0.7986
 4044TIP3   OH212137   2.475   3.018   3.320  0.3101  0.0276  0.1627
 4044TIP3    H112138   2.477   3.086   3.253  1.3095  2.5363  2.5316
 4044TIP3    H212139   2.565   2.983   3.322  0.8856  1.4779  1.5375
 4045TIP3   OH212140   5.830   2.130   1.119 -0.0666 -0.1411  0.2739
 4045TIP3    H112141   5.901   2.101   1.176  0.1503 -0.7988 -0.3209
 4045TIP3    H212142   5.752   2.127   1.174  0.2646  0.0333  0.7674
 4046TIP3   OH212143   3.174   5.488   1.673 -0.2432  0.1879 -0.0097
 4046TIP3    H112144   3.107   5.495   1.741 -0.3815  2.2199 -0.2829
 4046TIP3    H212145   3.133   5.527   1.595  0.2413 -1.2324 -1.0112
 4047TIP3   OH212146   4.271   4.268   3.090  0.3092  0.1577 -0.1787
 4047TIP3    H112147   4.359   4.300   3.070  0.5217 -1.1443 -1.4915
 4047TIP3    H212148   4.213   4.340   3.066  1.0162  1.2030  1.1176
 4048TIP3   OH212149   2.602   4.785   3.963 -0.2860  0.7171 -0.5762
 4048TIP3    H112150   2.582   4.879   3.959 -0.3951  0.7152 -0.0740
 4048TIP3    H212151   2.517   4.743   3.973 -0.0788  0.7200  1.7221
 4049TIP3   OH212152   6.144   5.393   4.384  0.6243 -0.2627  0.7620
 4049TIP3    H112153   6.080   5.369   4.451 -0.2598  2.6587  1.0862
 4049TIP3    H212154   6.091   5.419   4.308  1.5105 -0.2861  0.1180
 4050TIP3   OH212155   0.906   2.533   4.021 -0.4085 -0.5527  0.7951
 4050TIP3    H112156   0.912   2.510   4.113  1.1046  0.0940  0.8809
 4050TIP3    H212157   0.992   2.513   3.985 -0.5668  0.4091 -0.1811
 4051TIP3   OH212158   0.518   0.738   2.256 -0.0543 -0.0989  0.1899
 4051TIP3    H112159   0.424   0.722   2.256 -0.2529  1.0288 -0.6337
 4051TIP3    H212160   0.552   0.675   2.321 -1.4163 -0.1596  0.8846
 4052TIP3   OH212161   5.032   0.173   0.562 -0.5921 -0.1489  0.6240
 4052TIP3    H112162   4.959   0.228   0.588 -1.0052 -0.2647 -0.2385
 4052TIP3    H212163   5.109   0.214   0.601 -1.0286  0.3943  0.9196
 4053TIP3   OH212164   0.755   4.096   2.519 -0.5487  0.2952 -0.0484
 4053TIP3    H112165   0.821   4.034   2.489 -1.1396 -0.5902  0.4615
 4053TIP3    H212166   0.752   4.163   2.451  0.5765  0.1316 -0.2749
 4054TIP3   OH212167   1.062   1.945   2.163 -0.1660 -0.1594 -0.1590
 4054TIP3    H112168   1.057   2.036   2.191 -1.5580 -0.6269  1.3131
 4054TIP3    H212169   1.110   1.947   2.081  0.5358  1.7979  0.2576
 4055TIP3   OH212170   1.898   0.483   3.748  0.3319 -0.0196  0.3285
 4055TIP3    H112171   1.913   0.536   3.827  1.9896  0.9643 -0.6049
 4055TIP3    H212172   1.932   0.396   3.771  0.6559  0.2141  0.7435
 4056TIP3   OH212173   0.193   3.786   1.435 -0.4242  0.6095 -0.3709
 4056TIP3    H112174   0.154   3.714   1.485 -1.6681  0.4275 -1.5682
 4056TIP3    H212175   0.126   3.854   1.434 -0.1779  0.8491 -1.2589
 4057TIP3   OH212176   5.656   5.098   4.398 -0.5068 -0.1834 -0.1263
 4057TIP3    H112177   5.657   5.010   4.434  1.6026 -0.0673  0.2354
 4057TIP3    H212178   5.598   5.093   4.322  0.1039 -2.0462 -0.5150
 4058TIP3   OH212179   4.168   4.728   1.891  0.2979  0.9294 -0.2490
 4058TIP3    H112180   4.093   4.692   1.843 -1.0621  0.6459  1.9757
 4058TIP3    H212181   4.165   4.822   1.872 -0.1907  0.8194 -0.7355
 4059TIP3   OH212182   6.279   0.491   1.222 -0.1738 -0.0325 -0.1173
 4059TIP3    H112183   6.343   0.546   1.268  0.5829 -1.7596  0.9866
 4059TIP3    H212184   6.205   0.550   1.205  0.5779  1.3214  1.0502
 4060TIP3   OH212185   6.066   2.272   2.532 -0.4327 -0.1431 -0.3824
 4060TIP3    H112186   6.007   2.260   2.606 -0.7998 -1.4133 -0.8612
 4060TIP3    H212187   6.032   2.349   2.486 -0.9055 -0.0631  0.0897
 4061TIP3   OH212188   4.689   0.768   4.514 -0.1482 -0.0306 -0.3710
 4061TIP3    H112189   4.764   0.805   4.561 -0.8903  1.1381 -0.0767
 4061TIP3    H212190   4.656   0.840   4.460 -0.9361 -0.5848 -0.6517
 4062TIP3   OH212191   0.636   1.087   1.367 -0.2757  0.3405  0.2616
 4062TIP3    H112192   0.600   1.165   1.323  0.4063  0.9422  0.7499
 4062TIP3    H212193   0.668   1.119   1.451  2.6883  0.1521 -0.6757
 4063TIP3   OH212194   1.707   2.140   1.691 -0.0617  0.0027 -0.0240
 4063TIP3    H112195   1.730   2.057   1.731  0.1729 -0.1625 -0.5080
 4063TIP3    H212196   1.734   2.132   1.600 -0.2046  0.5397 -0.1166
 4064TIP3   OH212197   1.202   0.614   3.768 -0.1702  0.5373 -0.0469
 4064TIP3    H112198   1.258   0.583   3.839 -1.1941 -0.5114  0.3311
 4064TIP3    H212199   1.196   0.541   3.707  0.2984  1.2581 -0.9823
 4065TIP3   OH212200   0.195   4.361   3.126 -0.2540 -0.0612  0.9562
 4065TIP3    H112201   0.170   4.301   3.196  1.1940 -1.7317  0.1230
 4065TIP3    H212202   0.251   4.308   3.068  0.5501  1.9279 -0.1770
 4066TIP3   OH212203   1.024   2.198   2.231  0.8020 -0.1469  0.2387
 4066TIP3    H112204   1.107   2.225   2.270  0.4625 -1.2074  1.8033
 4066TIP3    H212205   1.032   2.219   2.139  1.4954  2.8960  0.8965
 4067TIP3   OH212206   2.542   0.426   2.594  0.2303 -0.2398 -0.3776
 4067TIP3    H112207   2.537   0.339   2.553  1.3035 -0.9839  0.9984
 4067TIP3    H212208   2.540   0.408   2.688 -1.2418  1.3572 -0.0543
 4068TIP3   OH212209   5.867   5.045   0.660 -0.8486 -0.6097 -0.7271
 4068TIP3    H112210   5.852   5.139   0.646 -0.4876 -0.6029 -1.0951
 4068TIP3    H212211   5.884   5.037   0.754  2.6322  0.2133 -1.1570
 4069TIP3   OH212212   5.493   5.340   4.404  0.3049  0.0794 -0.1203
 4069TIP3    H112213   5.542   5.266   4.441  1.6432  1.6803  1.5090
 4069TIP3    H212214   5.532   5.354   4.317  4.2236  2.3389  1.7030
 4070TIP3   OH212215   1.682   1.430   4.152  0.3494 -0.5320  0.1627
 4070TIP3    H112216   1.759   1.375   4.161  0.1998 -0.6626  0.6875
 4070TIP3    H212217   1.628   1.409   4.228 -0.3707 -0.7080 -0.3783
 4071TIP3   OH212218   1.371   2.837   1.864 -0.6053  0.2394 -0.6877
 4071TIP3    H112219   1.401   2.778   1.932 -3.8167  0.2953  0.9320
 4071TIP3    H212220   1.430   2.912   1.870  0.4591 -0.6508  0.5799
 4072TIP3   OH212221   1.815   1.224   3.475  0.6279  0.4004 -0.1822
 4072TIP3    H112222   1.818   1.145   3.422  1.3595  0.7715 -0.7215
 4072TIP3    H212223   1.786   1.195   3.561  1.3711 -0.5296 -0.2370
 4073TIP3   OH212224   3.607   0.593   2.500 -0.1641  0.2299  0.1264
 4073TIP3    H112225   3.690   0.564   2.537  0.5386  0.2127 -1.3820
 4073TIP3    H212226   3.574   0.657   2.563  0.2292 -0.8617  1.4970
 4074TIP3   OH212227   1.151   4.898   3.039 -0.2182  0.1939  0.7969
 4074TIP3    H112228   1.208   4.861   3.106 -0.8332 -1.1775  0.6085
 4074TIP3    H212229   1.152   4.992   3.055  2.5003  0.2959  0.4732
 4075TIP3   OH212230   5.715   1.628   5.095  0.1722  0.1328 -0.0426
 4075TIP3    H112231   5.780   1.561   5.116  0.9726  0.7798 -0.4267
 4075TIP3    H212232   5.696   1.615   5.002 -0.2436 -0.0506  0.0676
 4076TIP3   OH212233   4.047   3.459   3.787 -0.5154 -0.1535 -0.3497
 4076TIP3    H112234   4.072   3.371   3.759 -0.4236 -0.2159 -0.0735
 4076TIP3    H212235   4.040   3.509   3.706  2.1875  0.3270 -0.3639
 4077TIP3   OH212236   0.721   2.087   2.178  0.6009  0.2537  0.3225
 4077TIP3    H112237   0.629   2.091   2.206  0.8028 -1.3006  1.3511
 4077TIP3    H212238   0.761   2.022   2.236  1.5995 -1.4739 -2.0983
 4078TIP3   OH212239   0.160   2.790   1.018  0.4522  0.6757  0.1280
 4078TIP3    H112240   0.106   2.746   1.084 -0.5027 -0.3156 -1.2768
 4078TIP3    H212241   0.126   2.760   0.934  0.0580  3.7031 -0.9464
 4079TIP3   OH212242   0.903   2.681   5.116  0.2090 -0.4701 -0.1852
 4079TIP3    H112243   0.903   2.598   5.164  1.1352 -1.7546 -2.2573
 4079TIP3    H212244   0.824   2.677   5.062 -0.7868  0.9259  1.0909
 4080TIP3   OH212245   1.697   4.235   4.926 -0.0398 -0.2228 -0.3981
 4080TIP3    H112246   1.629   4.179   4.963 -0.3282  0.1621 -0.3357
 4080TIP3    H212247   1.759   4.174   4.885 -0.9668 -0.5304 -1.3874
 4081TIP3   OH212248   3.819   3.915   0.386 -0.6916 -0.2740  0.3398
 4081TIP3    H112249   3.751   3.958   0.439 -1.5320  0.3736 -1.1990
 4081TIP3    H212250   3.880   3.985   0.364 -0.8263 -0.3457 -0.2730
 4082TIP3   OH212251   2.273   4.788   2.526 -0.5971 -0.0259 -0.2916
 4082TIP3    H112252   2.200   4.801   2.464 -0.2324  0.9638 -0.5231
 4082TIP3    H212253   2.314   4.874   2.533  0.8071 -0.6558 -0.4787
 4083TIP3   OH212254   0.902   0.986   3.899  0.7553 -0.2855  0.0007
 4083TIP3    H112255   0.810   1.008   3.910  0.5804 -0.7018 -0.5625
 4083TIP3    H212256   0.913   0.904   3.947  0.2487 -1.5203 -1.8949
 4084TIP3   OH212257   2.352   5.829   3.831  0.7994  0.2453 -0.0998
 4084TIP3    H112258   2.285   5.817   3.898 -1.1202 -1.2267 -2.1154
 4084TIP3    H212259   2.318   5.899   3.775  0.6001 -0.8884 -1.4612
 4085TIP3   OH212260   0.032   4.825   3.090  0.6843 -0.4649 -0.2269
 4085TIP3    H112261   0.017   4.823   2.995  0.0194 -2.5825 -0.1292
 4085TIP3    H212262   0.103   4.763   3.104  0.9946  0.0774  0.6362
 4086TIP3   OH212263   1.398   0.948   2.125  0.2405 -0.1706  0.2129
 4086TIP3    H112264   1.402   0.929   2.219 -0.4778  0.2442  0.3308
 4086TIP3    H212265   1.339   1.023   2.118  0.1662 -0.2979 -0.5830
 4087TIP3   OH212266   2.703   0.980   3.519 -0.4457 -0.5469 -0.1454
 4087TIP3    H112267   2.767   1.050   3.503 -2.1637  0.9283 -1.0517
 4087TIP3    H212268   2.699   0.972   3.614  1.7742 -1.4126 -0.0715
 4088TIP3   OH212269   0.023   2.887   4.078  0.0220  0.0304 -0.0745
 4088TIP3    H112270   0.014   2.866   4.171  0.1217 -1.9047 -0.4506
 4088TIP3    H212271   0.104   2.844   4.051  0.2180  0.9242 -0.9675
 4089TIP3   OH212272   5.898   2.928   0.873  0.3071  0.2519  0.0676
 4089TIP3    H112273   5.855   3.008   0.903 -0.8155  0.7457 -2.5398
 4089TIP3    H212274   5.940   2.953   0.791 -0.1736 -1.8158 -0.8804
 4090TIP3   OH212275   4.140   5.757   3.486 -0.0764 -0.0033 -0.1026
 4090TIP3    H112276   4.087   5.749   3.407 -1.8844 -0.6391  1.1218
 4090TIP3    H212277   4.199   5.681   3.482  1.8626  1.4786 -2.1808
 4091TIP3   OH212278   1.247   2.212   1.582  0.3513 -0.2201  0.1618
 4091TIP3    H112279   1.230   2.239   1.492  1.4597 -0.9175 -0.2764
 4091TIP3    H212280   1.218   2.286   1.635 -2.5091 -0.6821 -0.5606
 4092TIP3   OH212281   3.614   2.694   1.518  0.4026  0.4093  0.4991
 4092TIP3    H112282   3.618   2.748   1.439  1.5539  1.5866  1.3215
 4092TIP3    H212283   3.529   2.715   1.557 -0.1513 -0.1403 -0.3685
 4093TIP3   OH212284   3.122   2.973   5.120  0.3380 -0.7448 -0.1192
 4093TIP3    H112285   3.145   3.019   5.039 -1.2358  0.2985 -0.0132
 4093TIP3    H212286   3.092   2.887   5.092  1.9526 -1.2467 -0.4318
 4094TIP3   OH212287   1.861   3.206   1.173  0.0530  0.5839 -0.2247
 4094TIP3    H112288   1.956   3.215   1.170  0.0284  0.7120 -0.5938
 4094TIP3    H212289   1.831   3.231   1.086 -0.3222  0.5692 -0.1028
 4095TIP3   OH212290   2.650   5.461   2.989  0.1328  0.2290  0.1195
 4095TIP3    H112291   2.598   5.539   2.972 -0.5056 -0.1873  0.1571
 4095TIP3    H212292   2.645   5.411   2.908 -1.6733 -1.0416  0.9570
 4096TIP3   OH212293   0.639   5.283   3.438 -0.3104  0.0760 -0.1974
 4096TIP3    H112294   0.711   5.267   3.377 -0.6768 -1.4528 -0.2560
 4096TIP3    H212295   0.645   5.211   3.501 -0.4585  1.1500  1.1009
 4097TIP3   OH212296   1.287   4.262   3.218 -0.2352  0.1493 -0.2394
 4097TIP3    H112297   1.264   4.203   3.290 -0.1875 -0.2477 -0.5471
 4097TIP3    H212298   1.343   4.210   3.161 -0.2944  0.4530 -0.5804
 4098TIP3   OH212299   2.289   3.374   0.789 -0.0604 -0.1678  0.4531
 4098TIP3    H112300   2.208   3.335   0.823  0.0084 -0.2478  0.5262
 4098TIP3    H212301   2.330   3.415   0.865  0.2000 -0.5311  0.5150
 4099TIP3   OH212302   2.584   4.482   3.512  0.4779  0.1301  0.6493
 4099TIP3    H112303   2.589   4.533   3.593  1.2087  2.1148 -0.5746
 4099TIP3    H212304   2.521   4.530   3.457 -0.6864 -1.6653  0.3270
 4100TIP3   OH212305   2.183   3.248   2.243 -0.7003 -0.4901 -0.0281
 4100TIP3    H112306   2.184   3.176   2.306 -0.2445 -1.0612 -0.6676
 4100TIP3    H212307   2.275   3.269   2.229 -0.7685 -0.6950 -0.8464
 4101TIP3   OH212308   6.275   2.327   0.698  0.1140  0.0988  0.2915
 4101TIP3    H112309   6.250   2.408   0.742 -0.0557 -0.2361  0.8331
 4101TIP3    H212310   6.279   2.350   0.605 -2.0036  0.2424  0.1790
 4102TIP3   OH212311   0.811   1.056   0.484 -0.4490 -0.2923 -0.2211
 4102TIP3    H112312   0.760   1.044   0.404 -0.3264 -0.0118 -0.3449
 4102TIP3    H212313   0.855   0.973   0.497  2.6351  0.7610 -2.6399
 4103TIP3   OH212314   4.450   0.093   4.564  0.1682  0.4955 -0.1497
 4103TIP3    H112315   4.410   0.006   4.570 -0.4172  0.8197  1.0445
 4103TIP3    H212316   4.422   0.138   4.644  2.5109  0.9399  0.5001
 4104TIP3   OH212317   6.138   3.951   3.605  0.6794 -0.8491  0.3118
 4104TIP3    H112318   6.232   3.964   3.594  0.9879 -2.1332  1.1122
 4104TIP3    H212319   6.130   3.918   3.695 -0.6852  0.5296  0.7236
 4105TIP3   OH212320   6.301   3.813   4.813 -0.3133 -0.5553  0.2313
 4105TIP3    H112321   6.258   3.807   4.899  0.5611 -0.5737  0.6774
 4105TIP3    H212322   6.381   3.763   4.823 -0.0290 -0.2566 -0.4942
 4106TIP3   OH212323   5.237   2.059   1.225 -0.0806  0.3970  0.4386
 4106TIP3    H112324   5.307   2.120   1.248  1.8574 -2.3210  2.4871
 4106TIP3    H212325   5.236   2.059   1.129  0.2723  3.0469  0.3625
 4107TIP3   OH212326   2.198   0.201   2.166 -0.0969  0.2080 -0.1916
 4107TIP3    H112327   2.254   0.155   2.229 -0.5959  1.2647  1.0979
 4107TIP3    H212328   2.199   0.292   2.196 -1.3299  0.5188 -1.0010
 4108TIP3   OH212329   0.768   0.834   2.192 -0.6542  0.0692 -0.1356
 4108TIP3    H112330   0.835   0.774   2.224  0.4513  0.3606 -1.7991
 4108TIP3    H212331   0.685   0.792   2.215  0.0887 -1.9206 -0.8793
 4109TIP3   OH212332   3.012   3.051   2.667 -0.8276  0.2209 -0.1970
 4109TIP3    H112333   3.045   2.970   2.626 -0.2798 -0.5308  1.6214
 4109TIP3    H212334   3.091   3.102   2.684 -1.2842  2.0475 -2.9730
 4110TIP3   OH212335   2.479   1.508   2.636  0.2069 -0.1466  0.1646
 4110TIP3    H112336   2.476   1.570   2.709 -1.8138 -0.5937  0.5317
 4110TIP3    H212337   2.447   1.558   2.561  1.0443 -0.0527 -0.1428
 4111TIP3   OH212338   2.909   2.455   3.372 -0.6715 -0.0322  0.2538
 4111TIP3    H112339   2.992   2.461   3.418  0.3749  1.4100 -1.6658
 4111TIP3    H212340   2.891   2.361   3.366  0.4290 -0.3357  1.3111
 4112TIP3   OH212341   3.068   2.612   4.163 -0.3024  0.5222  0.3870
 4112TIP3    H112342   3.023   2.567   4.092 -0.4528  0.9466  0.2121
 4112TIP3    H212343   2.997   2.642   4.221 -0.1432 -0.6371  1.2174
 4113TIP3   OH212344   1.877   0.535   2.419  0.5750 -0.2913  0.0708
 4113TIP3    H112345   1.911   0.498   2.501  2.8651  0.2014 -0.5851
 4113TIP3    H212346   1.947   0.594   2.389 -0.3983 -0.1309 -2.0168
 4114TIP3   OH212347   3.151   1.799   5.148  0.2040 -0.0109 -0.4387
 4114TIP3    H112348   3.114   1.718   5.184  1.7855 -0.8512 -0.6115
 4114TIP3    H212349   3.187   1.773   5.062  0.6815  0.8788 -0.5218
 4115TIP3   OH212350   0.845   2.617   2.531  0.0960 -0.5637 -0.9444
 4115TIP3    H112351   0.780   2.686   2.544  1.5598  0.7308 -0.2034
 4115TIP3    H212352   0.913   2.657   2.477  0.5533 -1.7287 -1.2802
 4116TIP3   OH212353   2.869   5.235   0.338  0.3782 -0.8629  0.4075
 4116TIP3    H112354   2.882   5.305   0.401  1.5895  0.8362 -1.6140
 4116TIP3    H212355   2.774   5.225   0.331  0.2122  0.0927  1.2215
 4117TIP3   OH212356   4.447   3.051   0.640  0.1165 -0.1242  0.5862
 4117TIP3    H112357   4.461   3.137   0.680  0.8206 -0.0761  0.2494
 4117TIP3    H212358   4.535   3.016   0.629 -0.1322 -0.5603  0.0009
 4118TIP3   OH212359   1.933   0.881   0.272 -0.0788  0.1698 -0.2767
 4118TIP3    H112360   2.000   0.824   0.310 -0.2972  0.8740  1.2303
 4118TIP3    H212361   1.884   0.825   0.213 -0.1431 -1.1575  0.9995
 4119TIP3   OH212362   5.637   2.352   5.075 -0.3931  0.2255  0.5680
 4119TIP3    H112363   5.589   2.435   5.076  2.0933  1.8443 -1.0483
 4119TIP3    H212364   5.691   2.356   5.155 -0.0100  0.3710  0.3066
 4120TIP3   OH212365   0.863   1.690   2.596 -0.4022 -0.0565 -0.6029
 4120TIP3    H112366   0.827   1.772   2.629 -3.2291 -0.4079 -2.5528
 4120TIP3    H212367   0.863   1.699   2.501  1.3748 -1.5166 -0.8118
 4121TIP3   OH212368   5.660   3.324   5.020  0.2906 -0.0070 -0.1386
 4121TIP3    H112369   5.645   3.396   5.082  0.0943 -1.2068  1.2917
 4121TIP3    H212370   5.742   3.285   5.049 -1.5863 -2.9198  1.9113
 4122TIP3   OH212371   1.926   4.250   2.727  0.4447 -0.2796  0.0074
 4122TIP3    H112372   1.995   4.202   2.681  1.3940  0.5418  0.5255
 4122TIP3    H212373   1.972   4.294   2.799 -0.8336 -0.6543  1.0746
 4123TIP3   OH212374   3.069   5.487   3.920 -0.3302  0.0267  0.8850
 4123TIP3    H112375   3.062   5.523   3.832  2.7486 -0.8776  0.1708
 4123TIP3    H212376   3.001   5.533   3.970 -1.2646  1.5348 -1.6060
 4124TIP3   OH212377   1.494   1.346   3.073 -0.0823  0.3221  0.0920
 4124TIP3    H112378   1.418   1.402   3.084  0.2284  0.6715  0.5021
 4124TIP3    H212379   1.503   1.302   3.158  0.1082  0.2029  0.0105
 4125TIP3   OH212380   2.931   4.752   1.590 -0.3268  0.6866 -0.5859
 4125TIP3    H112381   2.967   4.837   1.564 -1.7631  1.2154 -0.9681
 4125TIP3    H212382   2.837   4.769   1.604 -0.8112 -1.0160 -1.4851
 4126TIP3   OH212383   1.917   5.070   2.814  0.1933  0.2128  0.0448
 4126TIP3    H112384   1.960   5.064   2.728  0.6645 -2.5724  0.4021
 4126TIP3    H212385   1.923   5.163   2.836  0.5142  0.9480 -2.6873
 4127TIP3   OH212386   3.562   4.537   1.677 -0.3332  0.2027  0.6402
 4127TIP3    H112387   3.632   4.572   1.622  0.9753 -0.9264  1.5081
 4127TIP3    H212388   3.524   4.467   1.624 -1.7242  1.6343 -0.3508
 4128TIP3   OH212389   2.383   5.697   2.630  0.0104 -0.4683  0.0716
 4128TIP3    H112390   2.376   5.629   2.697  0.9744  0.6188  1.3387
 4128TIP3    H212391   2.462   5.746   2.654  1.8323 -1.4955 -3.2653
 4129TIP3   OH212392   5.307   5.932   1.381  0.0960  0.5093  0.6582
 4129TIP3    H112393   5.366   5.976   1.320 -0.0725 -0.3422 -0.1448
 4129TIP3    H212394   5.241   5.892   1.325 -0.2797  0.0263  1.4346
 4130TIP3   OH212395   1.165   4.262   3.961 -0.5822 -0.3928  0.7002
 4130TIP3    H112396   1.157   4.347   3.918 -0.5442 -0.5006  0.4800
 4130TIP3    H212397   1.256   4.235   3.944  0.0498  0.4440  2.4718
 4131TIP3   OH212398   2.556   1.373  -0.009 -0.0939  0.1914 -0.5559
 4131TIP3    H112399   2.487   1.439   0.005  1.0927  0.8986  3.3189
 4131TIP3    H212400   2.517   1.291   0.021  0.3740  0.4435  0.8521
 4132TIP3   OH212401   5.569   2.077   1.180  0.7473 -0.1979  0.0010
 4132TIP3    H112402   5.579   2.067   1.085 -0.3996  0.2647 -0.1943
 4132TIP3    H212403   5.566   1.988   1.214  4.8941 -0.4735  0.1212
 4133TIP3   OH212404   4.156   3.373   4.625 -0.3395 -0.1624  0.1374
 4133TIP3    H112405   4.244   3.394   4.595 -0.3561 -0.4153 -0.0970
 4133TIP3    H212406   4.132   3.445   4.684 -0.2302  0.2421 -0.3091
 4134TIP3   OH212407   2.759   5.477   3.771 -0.4020 -0.1816 -0.1776
 4134TIP3    H112408   2.747   5.555   3.826 -0.0716 -0.0118 -0.3476
 4134TIP3    H212409   2.694   5.487   3.701  0.4946  0.5946 -0.9297
 4135TIP3   OH212410   5.960   2.261   1.638 -0.1007 -0.0069  0.5365
 4135TIP3    H112411   5.965   2.165   1.641  0.8335  0.0743  2.3651
 4135TIP3    H212412   5.877   2.282   1.682  0.7515  0.0887  2.1476
 4136TIP3   OH212413   5.222   2.603   4.412  0.3940 -0.0343  0.3078
 4136TIP3    H112414   5.175   2.643   4.485  0.6949  0.2462  0.3522
 4136TIP3    H212415   5.244   2.515   4.442  1.5983  0.4905  1.0438
 4137TIP3   OH212416   0.129   0.624   4.460  0.0698  0.2067 -0.0423
 4137TIP3    H112417   0.131   0.528   4.450 -1.9689  0.3101 -1.9379
 4137TIP3    H212418   0.222   0.648   4.467  0.7822 -1.7082 -1.7978
 4138TIP3   OH212419   1.451   0.031   0.983 -0.2104 -0.1996 -0.7400
 4138TIP3    H112420   1.408   0.112   1.009 -0.6686 -0.6988  0.1038
 4138TIP3    H212421   1.544   0.054   0.980 -0.3241  0.3294 -0.4112
 4139TIP3   OH212422   5.647  -0.010   4.361  0.2778  0.2199  0.2400
 4139TIP3    H112423   5.718   0.024   4.306  0.3064  1.5122  1.0533
 4139TIP3    H212424   5.569   0.036   4.331  0.3277  1.0929  1.3887
 4140TIP3   OH212425   4.382   2.402   1.573  0.2409  0.3897 -0.2505
 4140TIP3    H112426   4.459   2.402   1.630 -0.3830 -1.5110  0.6796
 4140TIP3    H212427   4.412   2.363   1.491 -0.0406 -1.8680  0.6613
 4141TIP3   OH212428   0.982   5.745   3.317 -0.0675  0.5059  0.1323
 4141TIP3    H112429   1.039   5.695   3.258  1.7815  1.0003  1.4102
 4141TIP3    H212430   0.991   5.836   3.287 -0.3813  0.5627  0.2064
 4142TIP3   OH212431   5.559   0.910   2.431  0.7274 -0.3550  0.5818
 4142TIP3    H112432   5.617   0.908   2.355  2.7084 -1.1144  2.0035
 4142TIP3    H212433   5.495   0.841   2.415 -1.4629  2.0827 -2.1547
 4143TIP3   OH212434   5.912   2.624   1.430  0.2730 -0.3851  0.0088
 4143TIP3    H112435   5.863   2.593   1.506 -0.3920 -0.1032 -0.2981
 4143TIP3    H212436   5.845   2.655   1.369  0.7546 -1.1405 -0.9340
 4144TIP3   OH212437   3.276   4.469   4.688  0.0239  0.6222 -0.0188
 4144TIP3    H112438   3.295   4.533   4.757  0.7271  1.4450 -0.9570
 4144TIP3    H212439   3.353   4.470   4.631 -1.2375  1.3065 -1.8284
 4145TIP3   OH212440   1.144   3.409   2.191 -0.5895  0.4089 -0.1787
 4145TIP3    H112441   1.122   3.457   2.111 -1.4054 -1.2237 -0.9805
 4145TIP3    H212442   1.059   3.379   2.224 -0.0669 -0.9259 -0.0077
 4146TIP3   OH212443   4.964   1.737   3.746  0.0964 -0.1700  0.4473
 4146TIP3    H112444   4.893   1.797   3.768  0.3851  0.5982 -0.6368
 4146TIP3    H212445   5.020   1.737   3.823 -0.7617 -0.3173  1.0798
 4147TIP3   OH212446   3.084   0.051   2.715 -0.3455  0.6942 -0.7721
 4147TIP3    H112447   2.992   0.078   2.717 -0.8265 -0.8379  1.0237
 4147TIP3    H212448   3.081  -0.037   2.678  0.5975  1.1399 -1.9631
 4148TIP3   OH212449   3.111   0.483   0.739 -0.3078 -0.0895 -0.2424
 4148TIP3    H112450   3.028   0.448   0.707  0.0025 -0.8098 -0.2765
 4148TIP3    H212451   3.137   0.547   0.672 -1.3900  1.0122  0.3352
 4149TIP3   OH212452   0.172   2.408   1.510 -0.2690  0.3543  0.0731
 4149TIP3    H112453   0.176   2.356   1.590  3.9770  0.1611 -0.0786
 4149TIP3    H212454   0.176   2.499   1.541  1.0237  0.2895  0.1228
 4150TIP3   OH212455   2.525   2.737   2.212 -0.9726 -0.6068  0.5140
 4150TIP3    H112456   2.522   2.820   2.260 -1.3148 -0.5419  0.3850
 4150TIP3    H212457   2.498   2.671   2.275 -2.2269 -0.4192  0.2039
 4151TIP3   OH212458   1.188   0.077   0.148  0.2852 -0.0824  0.0250
 4151TIP3    H112459   1.119   0.043   0.090 -0.1041  0.7710 -0.0177
 4151TIP3    H212460   1.169   0.170   0.156  0.8472 -0.0297  0.8324
 4152TIP3   OH212461   4.576   2.713   1.826  0.1646  0.1350  0.0473
 4152TIP3    H112462   4.523   2.743   1.900  1.2512 -0.8440  1.2953
 4152TIP3    H212463   4.665   2.709   1.862  0.5677 -1.2563 -1.0370
 4153TIP3   OH212464   3.547   5.361   0.629 -0.8076 -0.0676 -0.1116
 4153TIP3    H112465   3.483   5.389   0.694 -1.1394 -1.0903  0.0290
 4153TIP3    H212466   3.569   5.440   0.581 -0.2182  0.8159  1.5274
 4154TIP3   OH212467   4.866   1.376   1.947 -1.1870 -0.0657  0.1266
 4154TIP3    H112468   4.929   1.309   1.974 -0.8693 -0.0952 -0.6430
 4154TIP3    H212469   4.825   1.405   2.028 -1.6262 -1.4877  0.4557
 4155TIP3   OH212470   6.133   0.715   0.165  0.0385 -0.4615  0.3464
 4155TIP3    H112471   6.135   0.631   0.120  0.0275  0.8599 -2.3332
 4155TIP3    H212472   6.043   0.746   0.153  0.5496  0.7726 -0.4598
 4156TIP3   OH212473   3.994   4.601   4.213 -0.1918 -0.2112 -0.1244
 4156TIP3    H112474   4.034   4.670   4.159  0.1880  0.9148  1.5005
 4156TIP3    H212475   4.018   4.519   4.170  2.1088  0.5317 -0.3857
 4157TIP3   OH212476   0.691   1.992   4.443 -0.1695 -0.1466  0.6393
 4157TIP3    H112477   0.596   2.006   4.440  0.1236  2.2048 -0.2466
 4157TIP3    H212478   0.709   1.972   4.535 -1.4048  0.6991  1.1036
 4158TIP3   OH212479   1.042   4.646   2.411  0.1476  0.0157 -0.8030
 4158TIP3    H112480   1.070   4.638   2.320  0.5557  0.3618 -0.7060
 4158TIP3    H212481   0.946   4.640   2.407  0.0839  1.2719 -1.3845
 4159TIP3   OH212482   1.604   3.972   1.107 -0.2008  0.0975  0.0665
 4159TIP3    H112483   1.656   3.896   1.084 -0.1186 -0.0543  0.7409
 4159TIP3    H212484   1.528   3.937   1.152 -0.7536  0.3382 -0.6483
 4160TIP3   OH212485   1.278   2.485   4.806  0.0310  0.1584 -0.5580
 4160TIP3    H112486   1.356   2.525   4.767  1.4017 -0.6184  1.2536
 4160TIP3    H212487   1.253   2.546   4.876  0.7705 -0.9495  0.7265
 4161TIP3   OH212488   5.665   5.336   2.721  0.3212 -0.2090 -0.9345
 4161TIP3    H112489   5.642   5.277   2.649 -1.1683  0.3076 -0.9264
 4161TIP3    H212490   5.671   5.422   2.681 -2.0091  0.3373 -0.2665
 4162TIP3   OH212491   0.217   1.137   2.922 -0.4159  0.3410 -1.9769
 4162TIP3    H112492   0.292   1.085   2.894  0.0596  0.2915 -0.6388
 4162TIP3    H212493   0.252   1.225   2.935 -0.0032 -0.1553  0.9123
 4163TIP3   OH212494   2.772   3.866   0.631 -0.4147 -0.0031 -0.2309
 4163TIP3    H112495   2.810   3.952   0.616  3.3256 -0.9834  2.1598
 4163TIP3    H212496   2.816   3.809   0.568 -2.8173 -0.3046 -1.7576
 4164TIP3   OH212497   2.283   4.222   0.580  0.2705  0.4282  0.0663
 4164TIP3    H112498   2.322   4.175   0.506 -0.6010  0.3833 -0.3731
 4164TIP3    H212499   2.297   4.315   0.559 -0.4388  0.4327 -0.4270
 4165TIP3   OH212500   2.286   4.092   3.981 -0.5526  0.2843  0.5251
 4165TIP3    H112501   2.298   4.038   3.902 -1.0812 -0.4564  0.9362
 4165TIP3    H212502   2.216   4.152   3.957 -0.7511  0.0243  0.4435
 4166TIP3   OH212503   6.231   4.327   1.665  0.1964  0.1706 -0.1051
 4166TIP3    H112504   6.269   4.329   1.753  0.2798 -0.3251 -0.1266
 4166TIP3    H212505   6.141   4.355   1.677  0.5546  1.3536 -0.0522
 4167TIP3   OH212506   5.524   4.615   1.832 -0.1023 -0.0003 -0.4853
 4167TIP3    H112507   5.547   4.615   1.925  1.0904  0.0732 -0.7586
 4167TIP3    H212508   5.480   4.532   1.818 -2.0870  0.8202  0.5352
 4168TIP3   OH212509   4.955   1.322   0.327  0.0099 -0.2605 -0.1912
 4168TIP3    H112510   5.040   1.283   0.305  0.0170  0.2358 -1.0897
 4168TIP3    H212511   4.903   1.312   0.247  0.4725  2.8128 -1.0158
 4169TIP3   OH212512   4.119   4.444   3.509 -0.9370  0.5282  0.0422
 4169TIP3    H112513   4.069   4.362   3.499  0.6854 -0.4652 -0.3264
 4169TIP3    H212514   4.083   4.484   3.587 -0.3992 -1.6196  1.4914
 4170TIP3   OH212515   1.730   5.143   4.833 -0.1862 -0.1881  0.1267
 4170TIP3    H112516   1.784   5.064   4.831  0.3817  0.1602  1.0842
 4170TIP3    H212517   1.791   5.214   4.811 -0.9240 -0.1065 -1.8785
 4171TIP3   OH212518   2.994   5.014   1.516  0.2086 -0.0880  0.5203
 4171TIP3    H112519   2.909   5.059   1.509  0.2423 -0.2105 -1.1909
 4171TIP3    H212520   3.052   5.077   1.557  0.1622  1.3616 -1.5067
 4172TIP3   OH212521   5.874   4.367   4.448  0.0487  0.2488 -0.2954
 4172TIP3    H112522   5.960   4.329   4.434  1.0710  2.0250  0.7740
 4172TIP3    H212523   5.855   4.350   4.541 -0.2322  0.8320 -0.2382
 4173TIP3   OH212524   0.214   4.803   1.607 -0.5830  0.6284  0.7012
 4173TIP3    H112525   0.136   4.851   1.577  0.9720  2.0318 -1.3556
 4173TIP3    H212526   0.213   4.814   1.702 -1.4207  3.0331  0.4864
 4174TIP3   OH212527   1.992   2.831   0.905  0.1921  0.2707  0.2279
 4174TIP3    H112528   1.977   2.790   0.991 -1.0186  3.0306  1.4567
 4174TIP3    H212529   1.908   2.823   0.860  0.9489 -1.5550 -0.9605
 4175TIP3   OH212530   5.645   2.318   4.464  0.0223  0.5304  0.3353
 4175TIP3    H112531   5.601   2.327   4.379 -2.1532  0.1429  1.3515
 4175TIP3    H212532   5.627   2.228   4.490  1.6771  0.2867  0.7104
 4176TIP3   OH212533   4.302   0.736   2.377 -0.3990 -0.1702 -0.3257
 4176TIP3    H112534   4.270   0.806   2.433 -0.2706  0.2456 -0.7643
 4176TIP3    H212535   4.348   0.676   2.436 -1.5128 -0.5067  0.2309
 4177TIP3   OH212536   6.186   2.734   2.192  0.8309  0.1249 -0.7979
 4177TIP3    H112537   6.153   2.821   2.214  0.4035 -0.0217 -0.8531
 4177TIP3    H212538   6.248   2.714   2.262  1.1619  0.5998 -0.9481
 4178TIP3   OH212539   0.896   1.713   1.907  0.0389 -0.5177 -0.2410
 4178TIP3    H112540   0.981   1.731   1.867  0.6095 -0.7889  0.8084
 4178TIP3    H212541   0.848   1.664   1.841 -0.0464  1.3136 -1.5924
 4179TIP3   OH212542   3.857   2.242   4.240  0.4269  0.0397  0.0801
 4179TIP3    H112543   3.877   2.187   4.164 -0.1132 -0.0858  0.0226
 4179TIP3    H212544   3.915   2.318   4.231 -1.4799  1.3885 -1.9526
 4180TIP3   OH212545   3.060   0.313   0.484  0.0789 -0.2375  0.3655
 4180TIP3    H112546   3.076   0.254   0.557  1.1242  1.8717  1.9722
 4180TIP3    H212547   2.965   0.322   0.480 -0.0853 -1.8895  0.1589
 4181TIP3   OH212548   6.017   2.938   2.269 -0.5603 -0.7370  0.0960
 4181TIP3    H112549   6.058   3.011   2.317 -1.6292 -0.0421 -0.0201
 4181TIP3    H212550   5.938   2.976   2.230 -0.4870 -1.6541 -1.0100
 4182TIP3   OH212551   0.555   2.984   0.856 -0.1749  0.4105  0.6967
 4182TIP3    H112552   0.465   2.956   0.876 -0.3941  0.6523  0.0772
 4182TIP3    H212553   0.581   2.930   0.782 -0.3201  1.2944 -0.0168
 4183TIP3   OH212554   4.058   3.918   1.244 -0.2610  0.3705 -0.1218
 4183TIP3    H112555   4.038   3.830   1.276  0.4224 -0.1819 -1.1201
 4183TIP3    H212556   3.988   3.937   1.181 -0.7643  0.8136  0.5698
 4184TIP3   OH212557   3.437   1.902   4.290 -0.4994 -0.4340 -0.1454
 4184TIP3    H112558   3.466   1.897   4.381 -0.4571  1.5302 -0.0119
 4184TIP3    H212559   3.346   1.873   4.293  0.1359 -2.6133  0.0994
 4185TIP3   OH212560   0.520   3.878   1.144  0.3468  0.1566 -0.0116
 4185TIP3    H112561   0.490   3.910   1.230  0.7571  0.5856 -0.0256
 4185TIP3    H212562   0.441   3.844   1.103  0.3358 -1.1253  0.9940
 4186TIP3   OH212563   5.522   4.774   2.369  0.8082  0.1578 -0.1525
 4186TIP3    H112564   5.549   4.863   2.390 -0.4112  0.1305  1.8819
 4186TIP3    H212565   5.589   4.719   2.409  1.5160  0.1399 -1.3362
 4187TIP3   OH212566   1.943   5.531   4.586  0.0518  0.2416  0.4056
 4187TIP3    H112567   1.992   5.542   4.504 -0.6907  0.2748 -0.0441
 4187TIP3    H212568   1.960   5.611   4.635 -0.6817  0.8936 -0.3618
 4188TIP3   OH212569   1.693   2.164   2.175 -0.6153  0.3313 -0.1766
 4188TIP3    H112570   1.708   2.089   2.233 -1.1517  1.3859  1.3777
 4188TIP3    H212571   1.604   2.150   2.142 -1.1861  0.8868  1.0791
 4189TIP3   OH212572   1.216   2.094   3.535 -0.1275  0.1764 -0.0713
 4189TIP3    H112573   1.261   2.023   3.580  0.6864  0.8326  0.1754
 4189TIP3    H212574   1.273   2.114   3.460  0.0912  1.1322  0.3413
 4190TIP3   OH212575   3.451   4.329   1.494  0.4185  0.2885 -0.3357
 4190TIP3    H112576   3.520   4.289   1.442 -0.0554 -2.1410  0.7453
 4190TIP3    H212577   3.375   4.271   1.482  0.2181 -0.2934  2.7825
 4191TIP3   OH212578   5.972   4.416   2.540 -0.2995  0.2398  0.2579
 4191TIP3    H112579   5.979   4.376   2.454  0.7098  1.0403 -0.0508
 4191TIP3    H212580   6.050   4.470   2.548 -1.7486  2.4600  0.4692
 4192TIP3   OH212581   5.616   5.942   1.275 -0.0913 -0.0789 -0.3769
 4192TIP3    H112582   5.574   5.973   1.194  3.5243  0.4018 -2.2968
 4192TIP3    H212583   5.640   5.851   1.256 -1.7369 -0.9501  1.3828
 4193TIP3   OH212584   5.051   2.082   4.770  0.2097  0.0814 -0.1756
 4193TIP3    H112585   5.131   2.133   4.781  0.3527 -0.2458  0.3194
 4193TIP3    H212586   5.016   2.073   4.858  0.4893 -1.1683 -0.1757
 4194TIP3   OH212587   6.175   2.534   4.030  0.2907 -0.0335  0.5941
 4194TIP3    H112588   6.102   2.579   3.988  0.4278 -0.8888 -0.6217
 4194TIP3    H212589   6.143   2.513   4.118 -0.8919 -0.2724  0.1237
 4195TIP3   OH212590   1.962   4.413   0.255 -0.1826  0.1287 -0.6101
 4195TIP3    H112591   1.910   4.332   0.250 -0.6645  0.4511 -0.8592
 4195TIP3    H212592   1.968   4.432   0.348  2.9276 -2.1067 -0.1733
 4196TIP3   OH212593   4.192   1.403   0.841 -0.2656 -0.1637 -0.1131
 4196TIP3    H112594   4.202   1.362   0.927 -1.9560 -0.4523 -0.0362
 4196TIP3    H212595   4.255   1.357   0.785  1.7353  0.8194  1.1894
 4197TIP3   OH212596   1.812   4.295   4.521 -0.5799 -0.1925 -0.4711
 4197TIP3    H112597   1.896   4.250   4.518  0.5485  1.8589 -1.3250
 4197TIP3    H212598   1.761   4.256   4.450 -0.2818 -1.2379 -0.1335
 4198TIP3   OH212599   2.971   1.293   0.636 -0.6921  0.3324 -0.0310
 4198TIP3    H112600   3.042   1.230   0.622 -2.6174 -2.0699  0.3816
 4198TIP3    H212601   3.013   1.368   0.678  1.6338 -0.8709 -0.0754
 4199TIP3   OH212602   2.828   3.339   3.882 -0.0146  0.5038  0.4324
 4199TIP3    H112603   2.858   3.406   3.943 -1.6736 -0.2072  2.1392
 4199TIP3    H212604   2.904   3.282   3.870 -0.0765 -0.4238  3.4431
 4200TIP3   OH212605   3.776   5.622   1.390  0.2239 -0.3020 -0.3017
 4200TIP3    H112606   3.760   5.661   1.476  0.1554 -1.2092  0.1107
 4200TIP3    H212607   3.871   5.610   1.387  0.2483 -0.0772 -0.4409
 4201TIP3   OH212608   2.432   4.543   1.834 -0.5667  0.7417 -0.1054
 4201TIP3    H112609   2.473   4.534   1.920 -0.4157 -0.1127 -0.2492
 4201TIP3    H212610   2.355   4.597   1.850 -0.4138  0.7843  0.5287
 4202TIP3   OH212611   1.809   5.556   0.921  0.2059  0.4782 -0.1387
 4202TIP3    H112612   1.717   5.579   0.912  0.1501  0.3270  0.0469
 4202TIP3    H212613   1.822   5.486   0.857  0.2335  0.6182 -0.2862
 4203TIP3   OH212614   5.367   5.322   0.210 -0.4457  0.2669  0.4629
 4203TIP3    H112615   5.403   5.408   0.233 -1.4100  1.2673 -1.4483
 4203TIP3    H212616   5.443   5.265   0.200  0.3718  1.4368 -0.1949
 4204TIP3   OH212617   3.692   3.646   4.207  0.5126  0.0187 -0.0216
 4204TIP3    H112618   3.707   3.555   4.182 -0.2659 -0.0591 -0.2158
 4204TIP3    H212619   3.757   3.695   4.156 -0.1433 -0.2767 -1.1884
 4205TIP3   OH212620   2.976   3.114   3.917  0.1480 -0.3069  0.1516
 4205TIP3    H112621   2.993   3.103   4.011 -0.8127  0.9682  0.4981
 4205TIP3    H212622   2.981   3.026   3.882  1.0971 -0.7489  1.2942
 4206TIP3   OH212623   1.140   1.452   0.301  0.1464 -0.5566  0.1033
 4206TIP3    H112624   1.054   1.426   0.270  0.6093 -1.1652 -0.7344
 4206TIP3    H212625   1.160   1.532   0.252 -0.1598 -0.1079  0.6988
 4207TIP3   OH212626   5.691   3.811   2.185 -0.0775  0.3071 -0.6833
 4207TIP3    H112627   5.722   3.735   2.135  0.2735 -0.1683  0.2322
 4207TIP3    H212628   5.712   3.790   2.276 -1.0507  0.9848 -0.2841
 4208TIP3   OH212629   5.769   4.793   1.668 -0.4797  0.5051 -0.6897
 4208TIP3    H112630   5.846   4.850   1.675  0.5889 -1.0393  1.5251
 4208TIP3    H212631   5.735   4.788   1.758 -2.3380  0.0276 -1.3775
 4209TIP3   OH212632   5.176   1.484   3.355 -0.0437  0.3056  0.2206
 4209TIP3    H112633   5.145   1.522   3.438 -0.8552  1.4390 -0.5766
 4209TIP3    H212634   5.266   1.517   3.346  0.0757  0.1137  0.6821
 4210TIP3   OH212635   1.544   2.389   2.701 -0.0226  0.4737 -0.4648
 4210TIP3    H112636   1.453   2.360   2.693  0.8297 -2.9672  0.7514
 4210TIP3    H212637   1.588   2.349   2.626  1.0422 -0.7122  0.7460
 4211TIP3   OH212638   4.007   1.766   0.782 -0.2673 -0.5194  0.2866
 4211TIP3    H112639   4.072   1.794   0.718 -0.5042 -1.5251 -0.4150
 4211TIP3    H212640   4.010   1.670   0.780 -1.4561 -0.5820  0.5589
 4212TIP3   OH212641   4.439   4.361   1.476 -0.3963 -0.0857 -0.2063
 4212TIP3    H112642   4.464   4.446   1.440 -0.6068 -0.4762 -1.3095
 4212TIP3    H212643   4.419   4.379   1.568  2.5106  0.5079  0.4186
 4213TIP3   OH212644   2.234   5.077   2.179  0.4441  0.3409 -0.1655
 4213TIP3    H112645   2.268   5.161   2.149 -0.0451  1.2109  1.6045
 4213TIP3    H212646   2.141   5.081   2.160  0.2053  0.7263  1.0503
 4214TIP3   OH212647   0.859   5.188   1.645 -0.2740 -0.0206 -0.0687
 4214TIP3    H112648   0.850   5.101   1.606  0.5869 -0.0545 -0.2265
 4214TIP3    H212649   0.800   5.244   1.594  0.7220 -0.0926 -1.3536
 4215TIP3   OH212650   2.394   1.417   5.142  0.7752  0.0040  0.0382
 4215TIP3    H112651   2.433   1.396   5.226  3.7197 -0.9165 -1.4163
 4215TIP3    H212652   2.447   1.489   5.108  0.7253 -0.7217 -1.6927
 4216TIP3   OH212653   2.732   1.302   4.395  0.5775 -0.0893  0.3621
 4216TIP3    H112654   2.681   1.308   4.314 -0.1749  1.9309  0.9258
 4216TIP3    H212655   2.676   1.251   4.454 -0.5383  1.5252  0.7501
 4217TIP3   OH212656   5.549   5.454   3.135  0.3006  0.5806 -0.0677
 4217TIP3    H112657   5.542   5.374   3.083 -1.2666 -0.5929  1.8368
 4217TIP3    H212658   5.526   5.524   3.074 -1.0138 -0.7009 -1.1043
 4218TIP3   OH212659   2.810   0.275   2.462  0.0494 -0.0300  0.0243
 4218TIP3    H112660   2.789   0.224   2.384 -2.7728  0.5154  0.3223
 4218TIP3    H212661   2.730   0.273   2.515  1.1864  1.3337  1.9463
 4219TIP3   OH212662   3.657   1.355   2.418  0.0361 -0.4341  0.3438
 4219TIP3    H112663   3.656   1.446   2.387 -1.0970 -0.1107  1.2521
 4219TIP3    H212664   3.705   1.307   2.350 -2.1203  0.2602 -1.8313
 4220TIP3   OH212665   6.018   5.948   0.029 -0.1958  0.2768 -0.2317
 4220TIP3    H112666   5.999   6.019   0.090 -0.1760 -0.5429  0.7370
 4220TIP3    H212667   5.936   5.900   0.021  0.1367 -0.3568  0.1241
 4221TIP3   OH212668   4.047   2.231   2.074  0.0891  0.1167  0.3753
 4221TIP3    H112669   4.026   2.312   2.027 -0.5529 -0.4053 -0.2612
 4221TIP3    H212670   4.137   2.244   2.104 -0.0977  1.1771  0.5342
 4222TIP3   OH212671   5.816   5.065   3.212 -0.2455  0.2360  0.1070
 4222TIP3    H112672   5.835   4.987   3.266 -0.5918 -0.6772 -1.0462
 4222TIP3    H212673   5.728   5.048   3.177  0.6965 -0.1050 -2.2351
 4223TIP3   OH212674   2.983   3.028   2.342  0.1109 -0.7248 -0.0899
 4223TIP3    H112675   3.046   2.959   2.363  1.4518  0.5887  0.4136
 4223TIP3    H212676   2.899   2.983   2.335  1.3312 -2.8105 -2.5587
 4224TIP3   OH212677   1.726   2.847   2.578 -0.1418  0.2356  0.0220
 4224TIP3    H112678   1.692   2.776   2.631 -1.6065 -0.1441 -1.3421
 4224TIP3    H212679   1.677   2.924   2.607 -0.7861  0.0692 -0.5905
 4225TIP3   OH212680   1.031   2.733   2.338  0.4430  0.4383  0.4306
 4225TIP3    H112681   1.040   2.807   2.278  0.0459  0.9680  1.0063
 4225TIP3    H212682   0.999   2.661   2.284  1.2987  0.5431 -0.2320
 4226TIP3   OH212683   3.809   2.968   1.831 -0.0128 -0.4226 -0.2635
 4226TIP3    H112684   3.825   2.957   1.925  0.1659  0.1124 -0.2265
 4226TIP3    H212685   3.865   3.041   1.806 -1.2263  0.4885 -0.4513
 4227TIP3   OH212686   2.177   3.840   2.826  0.0609  0.8108  0.1329
 4227TIP3    H112687   2.090   3.835   2.787  0.7704  0.3062 -1.4404
 4227TIP3    H212688   2.218   3.756   2.805  1.3619  1.5066 -0.1946
 4228TIP3   OH212689   1.206   1.109   3.016 -0.2289  0.0771 -0.0928
 4228TIP3    H112690   1.256   1.055   2.955 -0.4202 -1.0577  0.7085
 4228TIP3    H212691   1.170   1.179   2.963  0.7321 -0.1090 -1.0156
 4229TIP3   OH212692   4.690   1.287   2.221 -0.6354 -0.0942  0.0476
 4229TIP3    H112693   4.694   1.350   2.293 -0.7803  1.0594 -0.9331
 4229TIP3    H212694   4.657   1.207   2.262 -1.1857  0.6783  1.1790
 4230TIP3   OH212695   1.700   1.547   1.680  0.8021 -0.0475 -0.1719
 4230TIP3    H112696   1.790   1.577   1.669  1.3651 -1.5743 -0.0613
 4230TIP3    H212697   1.708   1.470   1.737 -0.7183  0.5433  0.9194
 4231TIP3   OH212698   5.554   4.407   3.543 -0.3199  0.2116  0.5568
 4231TIP3    H112699   5.579   4.445   3.459 -1.0297  0.5910  0.5138
 4231TIP3    H212700   5.490   4.339   3.521 -1.1397  0.8764  0.8494
 4232TIP3   OH212701   4.205   2.735   1.888 -0.4636 -0.0981  0.2751
 4232TIP3    H112702   4.219   2.804   1.824 -0.6975  0.4453  0.8042
 4232TIP3    H212703   4.133   2.767   1.943  0.4440 -0.0610  1.4854
 4233TIP3   OH212704   1.817   3.030   0.518 -0.4870  0.2688  0.4177
 4233TIP3    H112705   1.828   3.018   0.424 -0.0166 -0.4637  0.5575
 4233TIP3    H212706   1.725   3.009   0.535 -0.1056 -1.5457  0.3936
 4234TIP3   OH212707   5.656   3.035   1.408 -0.0069 -0.4252 -0.2942
 4234TIP3    H112708   5.583   2.994   1.361 -1.9594  2.8665 -0.4288
 4234TIP3    H212709   5.680   2.971   1.474 -2.0949 -2.2258 -1.1323
 4235TIP3   OH212710   5.381   4.507   4.821 -0.3133  0.0450 -0.1895
 4235TIP3    H112711   5.322   4.539   4.889  1.4045  1.7833  0.5753
 4235TIP3    H212712   5.355   4.556   4.743  0.5094  1.3443  0.3146
 4236TIP3   OH212713   0.757   1.737   1.436 -0.4073 -0.6018  0.5049
 4236TIP3    H112714   0.805   1.754   1.355 -0.0972 -1.7117  0.4364
 4236TIP3    H212715   0.826   1.719   1.501 -0.6448  0.4509  1.0655
 4237TIP3   OH212716   5.399   3.160   3.090  0.3893  0.2336  0.7799
 4237TIP3    H112717   5.323   3.145   3.033  0.4439 -0.1581  0.8109
 4237TIP3    H212718   5.452   3.081   3.081  1.9122  1.3564 -0.9356
 4238TIP3   OH212719   4.403   0.122   1.008 -0.3507  0.0640  0.7739
 4238TIP3    H112720   4.429   0.144   1.097  0.5435 -2.0584  1.0962
 4238TIP3    H212721   4.406   0.205   0.961  3.8230  0.6130  1.6086
 4239TIP3   OH212722   2.827   0.700   4.514 -0.4859 -0.1513 -0.0758
 4239TIP3    H112723   2.737   0.706   4.545 -0.7840  2.0182 -1.1845
 4239TIP3    H212724   2.880   0.722   4.591 -1.0046  0.7671  0.0285
 4240TIP3   OH212725   0.979   3.375   1.287 -0.0693 -0.2224  0.4241
 4240TIP3    H112726   0.946   3.385   1.377  1.8139 -1.1932  1.2854
 4240TIP3    H212727   1.057   3.321   1.297 -0.1073 -0.7749 -1.8919
 4241TIP3   OH212728   2.277   2.538   4.889 -0.3944 -0.1862  0.5867
 4241TIP3    H112729   2.349   2.600   4.876  0.5711 -1.0756  1.4758
 4241TIP3    H212730   2.225   2.544   4.809  0.6383  0.5254 -0.0527
 4242TIP3   OH212731   1.978   0.816   1.528  0.2853  0.2937 -0.2175
 4242TIP3    H112732   1.999   0.731   1.565 -2.4928  0.2891  1.5757
 4242TIP3    H212733   2.000   0.807   1.435  1.7525 -1.7263  0.2501
 4243TIP3   OH212734   0.334   3.773   0.307 -0.4451  0.1860  0.4043
 4243TIP3    H112735   0.349   3.756   0.400 -0.8090 -0.0611  0.4207
 4243TIP3    H212736   0.396   3.843   0.285  0.4288 -0.5244  0.5607
 4244TIP3   OH212737   4.275   2.889   3.384 -0.2812  0.5876  0.3299
 4244TIP3    H112738   4.242   2.942   3.456  1.3472  1.0886  0.7483
 4244TIP3    H212739   4.213   2.905   3.313 -1.8768  0.1444  1.5510
 4245TIP3   OH212740   0.729   3.663   3.949  0.0305  0.1774 -0.1503
 4245TIP3    H112741   0.765   3.575   3.939 -1.0148 -0.2092 -0.5793
 4245TIP3    H212742   0.683   3.680   3.867 -0.6502  0.7155  0.3333
 4246TIP3   OH212743   5.554   1.422   1.083 -0.1077 -0.2290 -0.0413
 4246TIP3    H112744   5.552   1.485   1.011 -2.1354 -0.0049  0.1440
 4246TIP3    H212745   5.560   1.337   1.041  0.2595 -0.0293 -0.4009
 4247TIP3   OH212746   5.034   3.578   4.332  0.0290  0.4687 -0.4730
 4247TIP3    H112747   5.001   3.514   4.394  0.1975  1.6849  0.9121
 4247TIP3    H212748   4.997   3.551   4.247 -0.0018 -1.3483  0.0989
 4248TIP3   OH212749   1.929   4.276   2.266 -0.4700 -0.0577 -0.1755
 4248TIP3    H112750   1.964   4.322   2.189 -1.6929  0.6700 -0.3346
 4248TIP3    H212751   1.984   4.199   2.276  0.3903  0.4153 -1.1256
 4249TIP3   OH212752   0.868   1.970   4.683  0.1256 -0.2572  0.2846
 4249TIP3    H112753   0.937   2.035   4.689 -0.5210  0.3662  1.1918
 4249TIP3    H212754   0.889   1.906   4.750 -0.4438  0.1994  0.9041
 4250TIP3   OH212755   0.301   2.197   4.657 -0.1389  0.3529 -0.3294
 4250TIP3    H112756   0.244   2.121   4.670  0.2103 -0.0491 -1.0922
 4250TIP3    H212757   0.267   2.263   4.718 -1.1735 -0.0145 -0.4886
 4251TIP3   OH212758   0.281   2.241   1.333 -0.1086 -0.3308  0.1170
 4251TIP3    H112759   0.209   2.180   1.318 -1.4865  1.7630 -2.9170
 4251TIP3    H212760   0.242   2.311   1.386 -0.5116  0.9509 -1.7723
 4252TIP3   OH212761   2.330   1.660   1.390 -0.3281  0.0581 -0.3737
 4252TIP3    H112762   2.375   1.584   1.354 -0.4260  0.2340 -0.8760
 4252TIP3    H212763   2.321   1.720   1.316  1.8522  1.6033  0.5016
 4253TIP3   OH212764   1.759   2.974   1.619  0.1596  0.2472  0.3580
 4253TIP3    H112765   1.842   2.986   1.665 -1.6424  1.7466  3.5007
 4253TIP3    H212766   1.751   3.052   1.564  1.2276 -0.4067 -0.7827
 4254TIP3   OH212767   1.059   3.812   4.850 -0.3415  0.2520 -0.1987
 4254TIP3    H112768   1.029   3.898   4.818  0.8105  0.9482  0.5132
 4254TIP3    H212769   1.126   3.786   4.786 -0.3726  0.0953 -0.1666
 4255TIP3   OH212770   5.632   2.670   3.716  0.0815  0.0773 -0.4630
 4255TIP3    H112771   5.628   2.763   3.694 -0.0307 -0.1416 -1.4203
 4255TIP3    H212772   5.592   2.626   3.641  1.2042 -0.8096 -0.5729
 4256TIP3   OH212773   1.579   2.295   1.145  0.5708  0.0211 -0.0106
 4256TIP3    H112774   1.570   2.298   1.240 -1.1415 -0.5077 -0.1215
 4256TIP3    H212775   1.504   2.345   1.112  0.4283 -0.8506 -1.0797
 4257TIP3   OH212776   4.154   1.271   4.377  0.0463 -0.1725 -0.0276
 4257TIP3    H112777   4.180   1.292   4.466 -1.1923 -0.7302  0.4934
 4257TIP3    H212778   4.196   1.187   4.358 -2.6866 -2.0672  1.5182
 4258TIP3   OH212779   0.425   2.123   4.371 -0.2118  0.0799 -0.2352
 4258TIP3    H112780   0.404   2.158   4.458  0.1946 -2.2273  0.8778
 4258TIP3    H212781   0.351   2.067   4.349  0.4221 -0.6206 -0.6364
 4259TIP3   OH212782   0.617   3.601   3.397 -0.4103 -0.3093 -0.0282
 4259TIP3    H112783   0.618   3.511   3.365 -2.2491 -0.3320 -0.1565
 4259TIP3    H212784   0.633   3.655   3.320 -1.7901 -0.4757 -0.4677
 4260TIP3   OH212785   5.423   2.787   4.649  0.3292 -0.1490  0.3493
 4260TIP3    H112786   5.485   2.859   4.640 -0.6931  0.6605 -0.4044
 4260TIP3    H212787   5.366   2.794   4.573  0.8159 -2.3855 -0.2805
 4261TIP3   OH212788   4.825   2.923   0.943  0.1627 -0.6253 -0.4127
 4261TIP3    H112789   4.771   2.995   0.974  0.3138 -1.1687  1.2418
 4261TIP3    H212790   4.764   2.861   0.904 -0.0608  0.0052 -1.0844
 4262TIP3   OH212791   0.603   4.517   3.690 -0.2092 -0.3551 -0.2812
 4262TIP3    H112792   0.612   4.439   3.635  0.1797 -0.6898  0.2362
 4262TIP3    H212793   0.508   4.527   3.701 -0.3323  0.2533 -1.7294
 4263TIP3   OH212794   0.259   2.570   1.924  0.2383  0.2341 -0.0978
 4263TIP3    H112795   0.223   2.552   1.837 -0.8137 -0.7552  0.5215
 4263TIP3    H212796   0.247   2.664   1.936 -0.1932  0.2688 -0.7657
 4264TIP3   OH212797   3.439   3.075   4.027 -0.0233  0.3208  0.1975
 4264TIP3    H112798   3.406   3.008   4.087  0.2460 -0.4241 -0.4760
 4264TIP3    H212799   3.480   3.026   3.956 -0.2042  1.1940 -0.5256
 4265TIP3   OH212800   1.691   5.649   3.363 -0.1938 -0.3117  0.3775
 4265TIP3    H112801   1.724   5.718   3.305  0.8167 -0.3677  0.8554
 4265TIP3    H212802   1.681   5.572   3.306  0.0792 -0.1612  0.1234
 4266TIP3   OH212803   5.267   1.595   1.230 -0.4923 -0.6653  0.7087
 4266TIP3    H112804   5.183   1.636   1.210 -0.3268 -1.0088 -0.8065
 4266TIP3    H212805   5.330   1.642   1.177  0.0563 -1.3534  0.7366
 4267TIP3   OH212806   5.176   4.307   1.300 -0.3126  0.5869 -0.7229
 4267TIP3    H112807   5.117   4.369   1.257  2.1996  2.9960 -0.9909
 4267TIP3    H212808   5.262   4.349   1.297  0.9720 -1.4736  2.0657
 4268TIP3   OH212809   0.015   0.864   2.618 -0.1151  0.2049 -0.7436
 4268TIP3    H112810  -0.052   0.865   2.686 -0.7986  0.9117 -1.4073
 4268TIP3    H212811   0.060   0.948   2.628  0.1474  0.0707 -0.8028
 4269TIP3   OH212812   2.536   0.718   3.932  0.0251  0.3678  0.3137
 4269TIP3    H112813   2.559   0.735   4.023  0.5025  1.2837  0.0401
 4269TIP3    H212814   2.441   0.707   3.932  0.1817 -1.4115  1.1687
 4270TIP3   OH212815   2.813   5.296   1.532 -0.2658  0.0685  0.1263
 4270TIP3    H112816   2.724   5.289   1.566  0.1619 -2.1667  0.9021
 4270TIP3    H212817   2.869   5.299   1.609  0.5209 -1.9114 -0.3091
 4271TIP3   OH212818   0.758   0.541   2.279 -0.4482  0.4049 -0.8963
 4271TIP3    H112819   0.784   0.449   2.275  1.8651  1.0386 -3.1258
 4271TIP3    H212820   0.733   0.562   2.189 -2.4716  1.6213 -0.1195
 4272TIP3   OH212821   2.079   4.743   4.899 -0.1121  0.5292 -0.2561
 4272TIP3    H112822   2.124   4.750   4.983  1.1937 -0.0029 -0.8796
 4272TIP3    H212823   2.102   4.656   4.866 -0.1428  0.9417 -1.4198
 4273TIP3   OH212824   0.841   1.478   1.192 -0.0576 -0.3029  0.2659
 4273TIP3    H112825   0.894   1.406   1.159 -0.7670 -0.7541  0.0829
 4273TIP3    H212826   0.847   1.546   1.125  0.1800 -0.4050  0.1852
 4274TIP3   OH212827   6.302   5.710   3.203  0.1138  0.1641  0.1815
 4274TIP3    H112828   6.264   5.792   3.170  1.2123  1.1030  1.1279
 4274TIP3    H212829   6.331   5.664   3.124 -1.5875  0.1078 -0.4471
 4275TIP3   OH212830   3.072   5.795   3.847  0.3136  0.1169 -0.0517
 4275TIP3    H112831   2.981   5.825   3.854 -0.1342 -0.8265 -1.2751
 4275TIP3    H212832   3.073   5.742   3.767  2.3356  1.4677 -1.0074
 4276TIP3   OH212833   2.490   3.752   4.434 -0.5423  0.2734 -0.5860
 4276TIP3    H112834   2.419   3.698   4.469 -0.4798 -0.1230 -1.0413
 4276TIP3    H212835   2.495   3.828   4.492 -0.2482 -0.4973  0.4299
 4277TIP3   OH212836   5.725   4.632   3.408  0.2287 -0.7854  0.0349
 4277TIP3    H112837   5.630   4.636   3.394  0.3298 -0.9757 -0.7790
 4277TIP3    H212838   5.757   4.717   3.376  0.1362  0.1072  2.1683
 4278TIP3   OH212839   4.063   2.834   2.092  0.4570  0.5663  0.1145
 4278TIP3    H112840   4.072   2.814   2.185  0.1104  2.0180  0.4774
 4278TIP3    H212841   3.976   2.873   2.084  0.6265  0.7875 -0.7647
 4279TIP3   OH212842   3.951   5.666   3.715 -0.5567  0.5953  0.1310
 4279TIP3    H112843   4.025   5.660   3.655 -0.9117  0.4683 -0.2982
 4279TIP3    H212844   3.934   5.759   3.724 -0.2460  0.6319  0.3536
 4280TIP3   OH212845   3.929   5.742   2.040 -0.4380  0.5816  0.0150
 4280TIP3    H112846   3.942   5.834   2.017 -0.8321  1.2675  2.2962
 4280TIP3    H212847   3.895   5.744   2.129  1.0669 -1.8345  0.7503
 4281TIP3   OH212848   0.935   1.886   3.181 -0.0293 -0.3646 -0.4167
 4281TIP3    H112849   0.952   1.846   3.096  0.7643  1.6620 -1.2774
 4281TIP3    H212850   1.001   1.849   3.239  1.9438  1.0432 -1.6557
 4282TIP3   OH212851   0.060   4.278   2.266  0.5847 -0.3375  0.2851
 4282TIP3    H112852   0.103   4.265   2.351 -2.3212  0.8480  2.0817
 4282TIP3    H212853   0.011   4.197   2.251 -0.0138 -0.0110  0.4540
 4283TIP3   OH212854   2.801   3.304   0.655  0.2979  0.0328 -0.8004
 4283TIP3    H112855   2.889   3.304   0.618 -0.4903  2.4305 -2.8760
 4283TIP3    H212856   2.743   3.287   0.581 -1.0769 -0.8014  0.4009
 4284TIP3   OH212857   3.490   5.633   3.366 -0.0920 -0.2950 -0.0668
 4284TIP3    H112858   3.398   5.608   3.379  0.0210 -0.6578  0.0552
 4284TIP3    H212859   3.493   5.666   3.276 -0.6704  1.2618  0.4459
 4285TIP3   OH212860   2.074   3.283   0.959 -0.4680 -0.4786  0.3669
 4285TIP3    H112861   2.094   3.209   1.015 -0.5390 -1.7031 -1.1687
 4285TIP3    H212862   2.012   3.249   0.895  0.4518  0.5484 -1.1276
 4286TIP3   OH212863   0.563   1.400   2.232  0.3615  0.3740  0.1461
 4286TIP3    H112864   0.511   1.475   2.204  1.1314  0.7040 -0.4219
 4286TIP3    H212865   0.519   1.369   2.312  0.8853  2.3707  1.2860
 4287TIP3   OH212866   5.692   0.815   2.209  0.0973 -0.0275  0.5126
 4287TIP3    H112867   5.774   0.843   2.169 -0.1312  0.7367  0.5743
 4287TIP3    H212868   5.694   0.719   2.203  0.5926  0.0295 -0.2706
 4288TIP3   OH212869   3.763   0.159   3.724 -0.3108  0.0326  0.1191
 4288TIP3    H112870   3.813   0.110   3.789 -0.5172  0.4576  0.6073
 4288TIP3    H212871   3.686   0.190   3.772 -0.0367  1.0965 -0.0854
 4289TIP3   OH212872   3.766   4.891   3.381  0.4434  0.3883 -0.1448
 4289TIP3    H112873   3.845   4.936   3.410  1.0284  0.3802 -1.6235
 4289TIP3    H212874   3.770   4.805   3.423  0.8122  0.6747  0.4147
 4290TIP3   OH212875   2.931   0.641   3.105  0.0408 -0.5525  0.4134
 4290TIP3    H112876   2.968   0.567   3.057 -0.6462 -0.4164 -0.3456
 4290TIP3    H212877   3.003   0.671   3.161  1.2569 -0.0435 -1.3091
 4291TIP3   OH212878   5.066   0.611   1.001 -0.3880 -0.0885 -0.0086
 4291TIP3    H112879   5.069   0.555   1.079  0.3908  1.3924  1.0693
 4291TIP3    H212880   5.150   0.596   0.957 -0.1708  0.2238  0.2916
 4292TIP3   OH212881   4.099   3.921   4.752  0.3819 -0.3167  0.1611
 4292TIP3    H112882   4.010   3.887   4.756  0.0624  0.3703 -0.7208
 4292TIP3    H212883   4.110   3.970   4.834  0.2069 -0.9931  0.5948
 4293TIP3   OH212884   0.123   0.021   1.469 -0.1086 -0.2060  0.0210
 4293TIP3    H112885   0.051   0.084   1.468 -0.4337 -0.5103  1.6819
 4293TIP3    H212886   0.082  -0.063   1.446  0.2324  0.0606 -1.6837
 4294TIP3   OH212887   5.561   2.278   0.799  0.1621 -0.0203  0.1397
 4294TIP3    H112888   5.624   2.324   0.743 -0.2399 -0.3396 -0.5807
 4294TIP3    H212889   5.532   2.345   0.862  0.8688  0.2485  0.1920
 4295TIP3   OH212890   4.753   1.722   4.731  0.6361 -0.3512 -0.1423
 4295TIP3    H112891   4.701   1.767   4.798 -0.8940 -2.9684  0.5723
 4295TIP3    H212892   4.732   1.769   4.650  0.9362  1.6084  0.8425
 4296TIP3   OH212893   0.242   4.526   1.235  0.1932  0.3384 -0.7595
 4296TIP3    H112894   0.314   4.585   1.214  1.8197 -1.9080 -1.8875
 4296TIP3    H212895   0.223   4.543   1.327  2.1590  1.0433 -0.4363
 4297TIP3   OH212896   1.280   2.349   0.205  0.7372 -0.3307  0.3035
 4297TIP3    H112897   1.207   2.294   0.233 -0.8609  0.6002 -1.7417
 4297TIP3    H212898   1.331   2.293   0.147 -0.0622 -0.1317 -0.6146
 4298TIP3   OH212899   2.104   5.447   1.437  0.5825 -0.2541 -0.3513
 4298TIP3    H112900   2.099   5.372   1.496  0.5912 -0.5388 -0.7134
 4298TIP3    H212901   2.197   5.467   1.431  0.5359  0.1588  0.2105
 4299TIP3   OH212902   1.356   3.347   2.830  0.1317 -0.2143 -0.6002
 4299TIP3    H112903   1.363   3.328   2.736 -1.9102 -4.0065 -0.1694
 4299TIP3    H212904   1.265   3.329   2.852  0.8117 -0.6462  2.3279
 4300TIP3   OH212905   5.378   1.029   3.744 -0.0851 -0.0214  0.3243
 4300TIP3    H112906   5.399   1.083   3.820 -0.9750 -1.2481  1.4926
 4300TIP3    H212907   5.443   0.959   3.746 -0.0652 -0.0190 -0.1033
 4301TIP3   OH212908   4.424   1.956   1.458 -0.3885 -0.1229 -0.4630
 4301TIP3    H112909   4.385   2.011   1.389  2.8733  0.1238 -2.3063
 4301TIP3    H212910   4.418   2.008   1.537 -3.8329 -0.2101 -0.5162
 4302TIP3   OH212911   0.755   2.993   2.309 -0.2614 -0.2863  0.4846
 4302TIP3    H112912   0.748   2.936   2.233 -0.8161 -2.3395  1.9864
 4302TIP3    H212913   0.848   3.014   2.314 -0.0060 -1.2177 -0.0335
 4303TIP3   OH212914   1.490   1.708   0.171 -0.0443 -0.5776  0.2006
 4303TIP3    H112915   1.444   1.790   0.151  0.2973 -0.9340 -2.3512
 4303TIP3    H212916   1.426   1.640   0.151 -0.4037 -1.0294  2.5261
 4304TIP3   OH212917   4.537   5.685   4.813  0.4299 -0.3091  0.4610
 4304TIP3    H112918   4.553   5.644   4.898  0.0260 -0.6297  0.3887
 4304TIP3    H212919   4.624   5.696   4.775  0.5642 -0.9293  0.5703
 4305TIP3   OH212920   1.147   3.339   0.904 -0.2106  0.3579  0.0489
 4305TIP3    H112921   1.058   3.314   0.882  0.0443  0.4927 -1.1701
 4305TIP3    H212922   1.153   3.325   0.999 -1.4115  0.0307  0.0869
 4306TIP3   OH212923   1.649   4.827   4.352  0.1192  0.5089 -0.4832
 4306TIP3    H112924   1.574   4.843   4.410  1.2290  0.0627  1.1368
 4306TIP3    H212925   1.652   4.732   4.342  0.4273  0.5290 -0.6005
 4307TIP3   OH212926   3.534   4.634   0.384 -0.1857  0.5009 -0.0760
 4307TIP3    H112927   3.551   4.725   0.359  0.0282  0.0922 -1.5103
 4307TIP3    H212928   3.617   4.589   0.368 -0.7800 -0.2824 -1.1074
 4308TIP3   OH212929   3.138   5.603   2.262 -0.2843  0.1967 -0.2038
 4308TIP3    H112930   3.232   5.588   2.270 -0.0365  0.8262 -1.5246
 4308TIP3    H212931   3.127   5.633   2.171 -1.6290  1.1080  0.2386
 4309TIP3   OH212932   4.204   5.522   0.452  0.1536  0.3958 -0.0967
 4309TIP3    H112933   4.227   5.449   0.394  1.3746  0.9322 -0.3237
 4309TIP3    H212934   4.163   5.480   0.527  0.3769 -0.4908 -0.4465
 4310TIP3   OH212935   5.348   1.063   0.379 -0.1026 -0.3057 -0.2154
 4310TIP3    H112936   5.361   0.993   0.315  0.8632  1.4112 -2.0036
 4310TIP3    H212937   5.436   1.092   0.402 -0.4675 -0.1355  1.0730
 4311TIP3   OH212938   5.987   4.190   3.214 -0.2955  0.0087 -0.3340
 4311TIP3    H112939   5.939   4.272   3.201  1.4283  1.0061 -0.7821
 4311TIP3    H212940   5.941   4.147   3.285 -1.4219  1.2351 -0.2712
 4312TIP3   OH212941   1.077   4.424   3.326  0.7448  0.3791 -0.7416
 4312TIP3    H112942   1.162   4.387   3.301  0.9667  0.1146  0.3332
 4312TIP3    H212943   1.071   4.407   3.420 -1.5054 -1.6947 -1.1455
 4313TIP3   OH212944   4.935   2.116   2.329  0.3951 -0.0002  0.1141
 4313TIP3    H112945   4.890   2.194   2.296  1.1042  0.9957  1.3956
 4313TIP3    H212946   5.024   2.124   2.294  0.3153 -0.5557 -0.2276
 4314TIP3   OH212947   1.131   3.982   4.566  0.5899 -0.1824 -0.7105
 4314TIP3    H112948   1.173   4.057   4.609  0.6132 -0.8411  0.4701
 4314TIP3    H212949   1.037   3.998   4.577  0.5816 -0.0058 -1.0350
 4315TIP3   OH212950   4.363   5.410   4.874  0.0966  0.1552  0.2214
 4315TIP3    H112951   4.286   5.378   4.921 -0.2314  1.4768  0.6378
 4315TIP3    H212952   4.427   5.430   4.942  0.0108  1.0651  0.0555
 4316TIP3   OH212953   3.927   3.339   2.095 -0.0335 -0.3911 -0.3545
 4316TIP3    H112954   4.000   3.389   2.060  0.8535 -1.2912  0.1501
 4316TIP3    H212955   3.963   3.295   2.172 -0.8727 -1.5310 -0.5925
 4317TIP3   OH212956   2.726   4.378   1.974  0.0892  0.2251  0.0146
 4317TIP3    H112957   2.768   4.298   2.004  2.9079  1.0209 -1.4566
 4317TIP3    H212958   2.724   4.370   1.879 -0.1049  1.6345 -0.1223
 4318TIP3   OH212959   5.047   0.585   1.621 -0.8047  0.1315 -0.6218
 4318TIP3    H112960   5.122   0.576   1.679 -0.6264 -1.7398 -1.0853
 4318TIP3    H212961   5.079   0.639   1.549 -0.3899  0.6726 -0.0349
 4319TIP3   OH212962   0.161   0.835   3.019  0.0658  0.3083 -0.2897
 4319TIP3    H112963   0.181   0.834   3.113 -0.0091 -1.8929 -0.2508
 4319TIP3    H212964   0.177   0.925   2.992 -1.1567  1.3231  2.0879
 4320TIP3   OH212965   6.267   3.799   4.304  0.0599  0.4727 -0.1960
 4320TIP3    H112966   6.325   3.874   4.318 -0.5776  1.3195 -1.8046
 4320TIP3    H212967   6.183   3.825   4.342  0.3493 -0.2509  1.0052
 4321TIP3   OH212968   0.298   0.250   3.809  0.2778  0.5291  0.1474
 4321TIP3    H112969   0.258   0.193   3.743  1.9976 -0.6052  0.0176
 4321TIP3    H212970   0.305   0.335   3.767 -1.7630  0.7281  0.1181
 4322TIP3   OH212971   1.304   2.497   0.432  0.1098 -0.0417  0.2007
 4322TIP3    H112972   1.293   2.430   0.364  2.8579 -1.0511  0.6332
 4322TIP3    H212973   1.265   2.458   0.510 -2.3822  0.8188 -0.5033
 4323TIP3   OH212974   3.263   5.316   3.620  0.0228 -0.0908  0.6755
 4323TIP3    H112975   3.329   5.247   3.618  0.7779  0.6128 -1.4375
 4323TIP3    H212976   3.206   5.293   3.693  0.4130 -2.7780  0.2315
 4324TIP3   OH212977   5.957   4.702   4.313  0.0163  0.3836  0.2842
 4324TIP3    H112978   6.049   4.695   4.337 -0.2845  0.6275  1.6183
 4324TIP3    H212979   5.950   4.658   4.228  1.8652  2.8296 -1.2568
 4325TIP3   OH212980   0.722   1.882   0.998 -0.3133 -0.1690  0.3289
 4325TIP3    H112981   0.698   1.973   1.015 -1.2008 -0.3698  0.2329
 4325TIP3    H212982   0.798   1.866   1.054  0.7585  1.0409 -0.7525
 4326TIP3   OH212983   1.134   5.465   2.520  0.5483  0.5154  0.8405
 4326TIP3    H112984   1.216   5.440   2.563  0.9009  1.0744  0.5140
 4326TIP3    H212985   1.069   5.405   2.556  1.0553  0.2129  1.2789
 4327TIP3   OH212986   6.212   1.893   1.458 -0.2149 -0.1881  0.7687
 4327TIP3    H112987   6.199   1.826   1.391 -0.1894  0.5791 -0.0243
 4327TIP3    H212988   6.302   1.879   1.489 -0.5286 -1.1060  1.2862
 4328TIP3   OH212989   5.351   2.990   0.435  0.8756 -0.0627 -0.2230
 4328TIP3    H112990   5.356   3.026   0.523 -1.9556  0.3206 -0.1402
 4328TIP3    H212991   5.327   2.898   0.448  1.7470 -0.3523 -0.5857
 4329TIP3   OH212992   5.732   4.720   3.858 -0.6094 -0.1707 -0.1670
 4329TIP3    H112993   5.699   4.782   3.793  1.6174  0.2721 -0.9553
 4329TIP3    H212994   5.677   4.643   3.848 -0.9694  0.2667 -1.8484
 4330TIP3   OH212995   3.265   3.161   2.691 -0.1318 -0.5376  0.3917
 4330TIP3    H112996   3.255   3.168   2.786  0.8779 -0.6077  0.5103
 4330TIP3    H212997   3.284   3.251   2.663  0.3511 -0.6484  0.3577
 4331TIP3   OH212998   3.130   2.992   0.582 -0.2248  0.1735 -0.0025
 4331TIP3    H112999   3.065   2.998   0.653  0.8930  1.5513  0.9675
 4331TIP3    H213000   3.150   3.083   0.560  1.0888 -0.2213 -0.5406
 4332TIP3   OH213001   1.175   2.370   2.979 -0.0414  0.1159 -0.3337
 4332TIP3    H113002   1.175   2.390   2.885  1.5779 -1.0985 -0.6428
 4332TIP3    H213003   1.102   2.309   2.991  0.2663 -0.3915 -0.9826
 4333TIP3   OH213004   4.615   2.323   1.702  0.5678  0.2710 -0.1002
 4333TIP3    H113005   4.642   2.346   1.791 -1.2124  0.3961  0.4585
 4333TIP3    H213006   4.641   2.232   1.691  2.8241  0.8831 -0.3211
 4334TIP3   OH213007   3.405   0.668   4.124  0.3787  0.3577  0.6336
 4334TIP3    H113008   3.442   0.641   4.040 -0.0456  0.9932  0.2275
 4334TIP3    H213009   3.310   0.661   4.112  0.3295 -0.0372  1.2334
 4335TIP3   OH213010   3.416   4.184   0.449  0.0826 -0.5391 -0.3688
 4335TIP3    H113011   3.503   4.173   0.412 -0.0462 -1.3980 -0.4381
 4335TIP3    H213012   3.366   4.109   0.416 -0.5848 -0.2414 -0.0565
 4336TIP3   OH213013   2.196   2.947   1.543  0.3053  0.0971  0.1668
 4336TIP3    H113014   2.186   2.865   1.592  0.7196 -0.1380 -0.1317
 4336TIP3    H213015   2.191   2.920   1.451 -0.2430  0.5034  0.0687
 4337TIP3   OH213016   0.647   5.259   1.091 -0.1176  0.3830  0.0129
 4337TIP3    H113017   0.714   5.196   1.062  0.2497  0.5722  0.4297
 4337TIP3    H213018   0.619   5.226   1.177 -0.0298  0.7001  0.1670
 4338TIP3   OH213019   3.653   4.660   3.941 -0.2644  0.2623 -0.2157
 4338TIP3    H113020   3.702   4.742   3.939 -1.2624  0.8757 -2.0648
 4338TIP3    H213021   3.708   4.599   3.890 -1.8865  1.3459 -3.5776
 4339TIP3   OH213022   3.967   0.996   0.875  0.0557  0.3533  0.0093
 4339TIP3    H113023   3.965   1.014   0.780  1.7078  0.0158 -0.1202
 4339TIP3    H213024   3.998   1.079   0.913 -0.5400  0.4646  0.2533
 4340TIP3   OH213025   1.233   3.737   4.605 -0.0261 -0.0999  0.5060
 4340TIP3    H113026   1.320   3.731   4.565  0.1040  0.2672  0.7348
 4340TIP3    H213027   1.201   3.823   4.580 -0.0082  0.0715  1.0628
 4341TIP3   OH213028   4.993   1.655   1.379  0.1034  0.4350 -0.5290
 4341TIP3    H113029   4.949   1.585   1.331  1.0227  0.7166 -1.8417
 4341TIP3    H213030   5.008   1.723   1.314  2.6583  0.2676 -0.2547
 4342TIP3   OH213031   2.630   0.966   1.175  0.5121 -0.0444  0.5779
 4342TIP3    H113032   2.651   1.020   1.099 -2.0047  1.9977  1.1932
 4342TIP3    H213033   2.549   0.921   1.151 -0.3839  0.7139  2.0193
 4343TIP3   OH213034   1.961   4.427   3.529  0.2274 -0.5848  0.1805
 4343TIP3    H113035   1.954   4.370   3.453  0.7769 -1.6639  0.9169
 4343TIP3    H213036   1.946   4.370   3.604  0.4863  0.2946  0.9239
 4344TIP3   OH213037   2.518   5.279   4.435  0.0373 -0.1940  0.5634
 4344TIP3    H113038   2.526   5.183   4.433 -1.4793 -0.3788  1.6054
 4344TIP3    H213039   2.446   5.298   4.375  0.9276  0.3992 -0.3453
 4345TIP3   OH213040   5.551   3.940   4.890  0.2391 -0.0362  0.1166
 4345TIP3    H113041   5.471   3.993   4.894  0.3194  0.1395 -0.4841
 4345TIP3    H213042   5.534   3.866   4.948 -0.4985 -0.1805 -0.2716
 4346TIP3   OH213043   2.511   4.341   1.417  0.2198 -0.2170 -0.2447
 4346TIP3    H113044   2.490   4.298   1.500 -0.0433 -0.3258 -0.3699
 4346TIP3    H213045   2.607   4.344   1.416  0.2417 -0.8130 -0.2465
 4347TIP3   OH213046   5.279   3.417   3.001  0.7207 -0.1757 -0.4818
 4347TIP3    H113047   5.289   3.322   3.001  1.2442 -0.1851  2.0619
 4347TIP3    H213048   5.350   3.449   2.944  1.1194 -1.2463 -0.5983
 4348TIP3   OH213049   1.893   4.482   0.732 -0.7878 -0.4354 -0.3094
 4348TIP3    H113050   1.930   4.537   0.802 -0.2167  1.4500 -1.9936
 4348TIP3    H213051   1.799   4.503   0.734 -0.7097 -0.0614 -0.3575
 4349TIP3   OH213052   5.286   2.723   1.233 -0.0571  0.1436  0.1233
 4349TIP3    H113053   5.264   2.813   1.210 -1.5002  0.0912  1.1547
 4349TIP3    H213054   5.278   2.675   1.150 -0.2193  0.7942 -0.2498
 4350TIP3   OH213055   2.303   5.048   1.334  0.5030  0.2097  0.2910
 4350TIP3    H113056   2.276   5.035   1.244  1.3614  0.5883 -0.0355
 4350TIP3    H213057   2.223   5.070   1.381  0.3227  1.9020 -0.7434
 4351TIP3   OH213058   0.057   4.007   1.435 -0.3949 -0.1816 -0.2727
 4351TIP3    H113059   0.064   4.096   1.400  0.3380 -0.3900 -0.6707
 4351TIP3    H213060  -0.034   3.982   1.419 -0.2571 -0.0105 -1.3895
 4352TIP3   OH213061   4.634   0.638   1.644  0.6068 -0.1151 -0.1190
 4352TIP3    H113062   4.540   0.623   1.644  0.8218 -1.6783  0.6583
 4352TIP3    H213063   4.644   0.731   1.623 -1.1726  0.4247  1.2015
 4353TIP3   OH213064   4.886   0.477   3.661 -0.1575 -0.0603 -0.2173
 4353TIP3    H113065   4.871   0.557   3.610  0.4197  0.2586  0.1052
 4353TIP3    H213066   4.890   0.407   3.595  2.1153  0.5380 -0.8281
 4354TIP3   OH213067   4.904   1.120   3.005  0.1708 -0.1232 -0.1683
 4354TIP3    H113068   4.923   1.035   3.045  1.2288  0.2745  0.2246
 4354TIP3    H213069   4.984   1.143   2.959  0.1252  0.9473  0.2604
 4355TIP3   OH213070   0.350   2.933   0.565  0.2482  0.1326 -0.0942
 4355TIP3    H113071   0.292   2.945   0.490 -0.9183 -2.5086  0.2709
 4355TIP3    H213072   0.297   2.958   0.640  0.5141  0.2671  0.0493
 4356TIP3   OH213073   4.552   1.090   0.310 -0.0045 -0.1047  0.1233
 4356TIP3    H113074   4.611   1.026   0.350  1.0238 -1.0949 -2.7192
 4356TIP3    H213075   4.593   1.175   0.330  1.4665 -0.6737 -0.3435
 4357TIP3   OH213076   4.890   4.399   0.089  0.1009 -0.2567 -0.4614
 4357TIP3    H113077   4.804   4.439   0.075  0.4930  0.5890 -0.5166
 4357TIP3    H213078   4.871   4.308   0.110 -0.9315  0.3594  1.4757
 4358TIP3   OH213079   0.089   5.811   4.113 -0.6711 -0.0534  0.3932
 4358TIP3    H113080   0.123   5.898   4.093 -0.0140 -0.1765  0.9362
 4358TIP3    H213081   0.154   5.751   4.074 -0.9887 -0.3000  0.2405
 4359TIP3   OH213082   0.776   2.283   3.315  0.1862  0.5286 -0.0605
 4359TIP3    H113083   0.760   2.189   3.315 -2.8264  0.9221 -1.3586
 4359TIP3    H213084   0.790   2.306   3.407  1.7281 -1.2402  0.1947
 4360TIP3   OH213085   4.734   5.153   4.308  0.1646 -0.1535 -0.0606
 4360TIP3    H113086   4.784   5.080   4.272  0.5734 -0.4646  1.1045
 4360TIP3    H213087   4.661   5.111   4.354 -0.9974  0.2838 -1.4516
 4361TIP3   OH213088   5.094   2.357   3.356  0.2913 -0.1953  0.6718
 4361TIP3    H113089   5.100   2.262   3.361  0.9480 -0.1758  0.2528
 4361TIP3    H213090   5.037   2.374   3.281  0.3651 -0.2514  0.6036
 4362TIP3   OH213091   5.908   4.228   4.109 -0.5130  0.4432 -0.0732
 4362TIP3    H113092   5.931   4.257   4.021  0.9732 -0.0116  0.1388
 4362TIP3    H213093   5.958   4.285   4.167 -0.1642 -0.3497  0.4238
 4363TIP3   OH213094   2.437   3.326   4.931  0.0058 -0.1239 -0.1694
 4363TIP3    H113095   2.343   3.336   4.916  0.3046  0.8104 -1.6180
 4363TIP3    H213096   2.462   3.406   4.977  0.0798 -0.4472  0.3648
 4364TIP3   OH213097   5.036   0.780   2.283  1.1797  0.0316 -1.0122
 4364TIP3    H113098   5.020   0.744   2.196  1.6893  0.0473 -1.1125
 4364TIP3    H213099   5.109   0.840   2.271  1.1493  0.1528 -0.6017
 4365TIP3   OH213100   0.924   5.375   1.012 -0.0939  0.2216 -0.7570
 4365TIP3    H113101   0.863   5.444   0.984 -1.2413 -0.9778 -1.2912
 4365TIP3    H213102   0.912   5.369   1.107  0.6036  1.2847 -0.5831
 4366TIP3   OH213103   3.086   2.077   3.714 -0.6051 -0.0193 -0.2051
 4366TIP3    H113104   3.123   2.011   3.772 -2.1072 -0.4241  0.3461
 4366TIP3    H213105   3.154   2.093   3.649  0.5656 -0.5986  0.8372
 4367TIP3   OH213106   1.876   1.507   0.456 -0.7174 -0.2157 -0.2468
 4367TIP3    H113107   1.789   1.537   0.429  0.0233  1.9616 -0.3952
 4367TIP3    H213108   1.927   1.505   0.375 -0.2899 -0.2106  0.0200
 4368TIP3   OH213109   1.331   3.709   3.676 -0.0262  0.7205 -0.2228
 4368TIP3    H113110   1.324   3.615   3.690 -1.2658  0.9957  1.2320
 4368TIP3    H213111   1.260   3.747   3.727 -0.5298  2.3640 -2.0119
 4369TIP3   OH213112   3.582   1.203   2.630 -0.3031 -0.0581  0.1357
 4369TIP3    H113113   3.583   1.243   2.543 -0.6344  0.0269  0.1681
 4369TIP3    H213114   3.501   1.153   2.633 -0.4750  0.2297  0.5189
 4370TIP3   OH213115   5.429   2.438   2.934 -0.4640 -0.3901 -0.2620
 4370TIP3    H113116   5.370   2.372   2.973  0.3267  0.0612  1.8724
 4370TIP3    H213117   5.502   2.443   2.995  0.9232  0.3736 -1.9210
 4371TIP3   OH213118   4.814   5.228   2.292 -0.0856 -0.0003 -0.3221
 4371TIP3    H113119   4.844   5.203   2.379 -0.6882 -0.3090 -0.1965
 4371TIP3    H213120   4.814   5.146   2.242 -1.2715 -0.1251 -0.1491
 4372TIP3   OH213121   3.803   5.567   4.575 -0.2831 -0.7907  0.4190
 4372TIP3    H113122   3.819   5.504   4.505  1.5167 -0.0737  0.1326
 4372TIP3    H213123   3.804   5.652   4.531  0.4583 -0.3583  1.2281
 4373TIP3   OH213124   0.949   3.660   5.060 -0.2562 -0.4668  0.3263
 4373TIP3    H113125   1.016   3.600   5.028 -1.0286 -1.5166  0.6233
 4373TIP3    H213126   0.967   3.742   5.015  1.6719 -0.5018  0.9496
 4374TIP3   OH213127   3.357   1.866   2.258 -0.5259  0.0658 -0.3067
 4374TIP3    H113128   3.416   1.916   2.315 -1.7055  1.8482 -0.5751
 4374TIP3    H213129   3.354   1.779   2.298  1.9417  0.0072 -0.0794
 4375TIP3   OH213130   5.687   2.770   5.003 -0.3847  0.2120 -0.2943
 4375TIP3    H113131   5.698   2.683   4.966  0.6359  0.4622 -0.6209
 4375TIP3    H213132   5.748   2.772   5.077 -0.6864  0.5157 -0.0503
 4376TIP3   OH213133   4.736   0.608   2.214 -0.5079  0.0871  0.5204
 4376TIP3    H113134   4.664   0.628   2.154 -0.0731 -1.8612 -0.7787
 4376TIP3    H213135   4.814   0.638   2.168 -0.2350 -0.7624  0.3969
 4377TIP3   OH213136   3.673   0.090   2.168  0.6061 -0.3947 -0.1994
 4377TIP3    H113137   3.626   0.117   2.246 -0.6944 -0.0014 -1.0832
 4377TIP3    H213138   3.632   0.006   2.144 -0.5790  0.5317 -1.6638
 4378TIP3   OH213139   1.421   4.925   4.507 -0.1538 -0.0186 -0.4109
 4378TIP3    H113140   1.365   4.970   4.571  1.5052  0.8535  0.4923
 4378TIP3    H213141   1.407   4.832   4.525 -2.1328  0.1307 -0.9639
 4379TIP3   OH213142   2.696   0.109   1.196  0.4926  0.2575  0.0058
 4379TIP3    H113143   2.728   0.053   1.125  1.1188  0.5647  0.0440
 4379TIP3    H213144   2.752   0.186   1.193 -0.3370  0.8721 -0.0229
 4380TIP3   OH213145   1.640   5.040   0.961  0.0965 -0.0460  0.2761
 4380TIP3    H113146   1.584   4.963   0.968 -1.1533  0.8908  1.2381
 4380TIP3    H213147   1.712   5.023   1.021 -0.7710 -0.0132  1.3680
 4381TIP3   OH213148   1.466   4.834   0.968 -0.5858  0.0898  0.2356
 4381TIP3    H113149   1.443   4.757   1.020 -0.2560 -1.0211 -1.1897
 4381TIP3    H213150   1.383   4.865   0.933 -0.5368 -0.8694 -0.8081
 4382TIP3   OH213151   5.781   1.983   4.964 -0.2902  0.0043  0.4009
 4382TIP3    H113152   5.853   2.024   5.013 -0.0746 -1.4932  1.3866
 4382TIP3    H213153   5.746   1.918   5.024 -1.0325 -0.8203 -0.8981
 4383TIP3   OH213154   1.531   5.247   1.415 -0.0740 -0.0828  0.3283
 4383TIP3    H113155   1.558   5.334   1.443 -2.4057  0.9500 -0.3918
 4383TIP3    H213156   1.485   5.210   1.490  0.3927 -0.4799  0.4273
 4384TIP3   OH213157   1.442   0.964   3.941 -0.2037  0.1162 -0.1681
 4384TIP3    H113158   1.385   0.967   3.865 -1.9048  0.8023  1.0750
 4384TIP3    H213159   1.383   0.953   4.015  1.3906 -0.4848  1.0786
 4385TIP3   OH213160   0.257   2.511   2.434  0.4060 -0.0945  0.2946
 4385TIP3    H113161   0.337   2.545   2.393 -0.2615  0.3794 -0.6534
 4385TIP3    H213162   0.223   2.449   2.370  1.0902 -1.8688  1.5873
 4386TIP3   OH213163   3.074   0.034   4.646 -0.1090 -0.1355  0.2582
 4386TIP3    H113164   3.010   0.063   4.711 -0.5358  0.4993 -0.4200
 4386TIP3    H213165   3.146   0.097   4.653 -1.5804  2.0191 -2.0747
 4387TIP3   OH213166   2.671   2.547   2.774  0.1959  0.1689 -0.4005
 4387TIP3    H113167   2.682   2.641   2.783  0.6143  0.1035 -0.1846
 4387TIP3    H213168   2.607   2.536   2.704  2.0539  0.5774 -2.2652
 4388TIP3   OH213169   4.365   5.930   4.828 -0.3440 -0.3365  0.5048
 4388TIP3    H113170   4.416   5.849   4.825 -0.2107 -0.2523  0.5296
 4388TIP3    H213171   4.275   5.901   4.813 -0.5961 -0.7602  2.5859
 4389TIP3   OH213172   3.688   3.384   0.167  0.1581 -0.0700  0.1410
 4389TIP3    H113173   3.667   3.408   0.257 -1.0424 -0.3739 -0.0473
 4389TIP3    H213174   3.752   3.313   0.176 -1.6347 -1.6818  0.8274
 4390TIP3   OH213175   6.161   5.379   0.150 -0.4576  0.1106  0.2729
 4390TIP3    H113176   6.095   5.329   0.103 -2.7815  2.9381  0.2234
 4390TIP3    H213177   6.245   5.344   0.120 -1.9009 -1.2915 -2.4096
 4391TIP3   OH213178   1.583   5.540   1.824 -0.4787 -0.5663 -0.1981
 4391TIP3    H113179   1.654   5.577   1.876  1.1854  0.1394 -2.8145
 4391TIP3    H213180   1.621   5.462   1.783 -1.5831 -0.8217 -0.7844
 4392TIP3   OH213181   2.609   5.260   0.342 -0.3496  0.1971 -0.0280
 4392TIP3    H113182   2.545   5.240   0.273 -1.0249  0.2795  0.5599
 4392TIP3    H213183   2.607   5.356   0.348 -0.4493  0.1784  0.2468
 4393TIP3   OH213184   0.142   3.296   1.781  0.4884 -0.5116 -0.6861
 4393TIP3    H113185   0.062   3.345   1.761  0.8269 -0.1137 -1.0745
 4393TIP3    H213186   0.186   3.349   1.848  0.6257 -0.5228 -0.7673
 4394TIP3   OH213187   4.129   3.637   1.692 -0.8975  0.2176 -0.4109
 4394TIP3    H113188   4.061   3.704   1.689 -1.3100 -0.2266 -1.4580
 4394TIP3    H213189   4.201   3.674   1.640 -0.6902  0.2998 -0.0710
 4395TIP3   OH213190   4.455   4.790   1.609 -0.0698  0.0805  0.0321
 4395TIP3    H113191   4.367   4.794   1.648  0.0485 -1.0986  0.4669
 4395TIP3    H213192   4.508   4.745   1.675  0.8556  0.7159 -0.2583
 4396TIP3   OH213193   4.181   1.437   1.158 -0.4149  0.2733 -0.8746
 4396TIP3    H113194   4.277   1.430   1.164 -0.4360 -0.7237 -1.4750
 4396TIP3    H213195   4.159   1.513   1.211  0.7991  1.0250 -1.4114
 4397TIP3   OH213196   3.499   2.949   1.601 -0.1120 -0.0241 -0.1475
 4397TIP3    H113197   3.578   2.992   1.568  0.1936 -0.3011  0.2185
 4397TIP3    H213198   3.427   3.003   1.568  0.2861  1.2290  0.9303
 4398TIP3   OH213199   0.580   3.954   3.886 -0.4681  0.0240  0.2433
 4398TIP3    H113200   0.636   4.032   3.881 -0.5672  0.0232 -1.4374
 4398TIP3    H213201   0.619   3.893   3.823 -0.9761 -0.9104  0.8217
 4399TIP3   OH213202   3.625   3.672   0.189 -0.1916  0.1970  0.9787
 4399TIP3    H113203   3.639   3.693   0.282  0.1063  2.7554  0.4229
 4399TIP3    H213204   3.535   3.640   0.186  0.3210 -1.5134  2.3532
 4400TIP3   OH213205   0.728   0.512   4.095  0.6081 -0.3547 -0.4640
 4400TIP3    H113206   0.758   0.444   4.035  1.1638 -1.9158  1.4525
 4400TIP3    H213207   0.750   0.478   4.182 -0.0617  1.8307  0.6364
 4401TIP3   OH213208   6.346   3.376   2.796  0.1125  0.0301  0.4108
 4401TIP3    H113209   6.341   3.304   2.734 -0.1360  0.6975 -0.3578
 4401TIP3    H213210   6.263   3.372   2.844  0.5969 -0.9199  1.2199
 4402TIP3   OH213211   5.749   1.246   4.709  0.2349  0.1124 -0.0190
 4402TIP3    H113212   5.808   1.203   4.647 -0.3303 -0.1495 -0.3816
 4402TIP3    H213213   5.803   1.259   4.787  1.0604  0.7921 -0.6849
 4403TIP3   OH213214   3.301   3.573   0.540 -0.0904 -0.2549  0.0346
 4403TIP3    H113215   3.255   3.526   0.610 -1.1484 -0.4014 -0.7215
 4403TIP3    H213216   3.246   3.559   0.462  0.4691  0.8190 -0.5795
 4404TIP3   OH213217   3.315   5.732   2.720 -0.1760  0.3412  0.3822
 4404TIP3    H113218   3.303   5.772   2.634 -0.7604 -2.9647 -1.2462
 4404TIP3    H213219   3.410   5.733   2.734  0.1922 -1.2506 -1.5560
 4405TIP3   OH213220   1.071   1.820   3.471 -0.2325  0.0457  0.5338
 4405TIP3    H113221   1.151   1.816   3.419  0.3215 -0.6359  1.4081
 4405TIP3    H213222   1.102   1.827   3.561 -1.1520 -0.5795  0.9090
 4406TIP3   OH213223   6.090   5.842   1.884  0.2810  0.1554  0.4923
 4406TIP3    H113224   6.101   5.926   1.840 -1.4509  0.0016 -0.3316
 4406TIP3    H213225   6.135   5.852   1.968  1.1473  1.4644 -0.1074
 4407TIP3   OH213226   1.435   2.270   4.783 -0.1670 -0.4324 -0.1045
 4407TIP3    H113227   1.358   2.316   4.817  0.3078 -0.4258  0.9756
 4407TIP3    H213228   1.466   2.218   4.856  0.7511 -0.5889 -0.5969
 4408TIP3   OH213229   1.684   1.008   1.511  0.2813  0.0113  0.2221
 4408TIP3    H113230   1.767   0.961   1.510  0.8916  1.0655 -1.1832
 4408TIP3    H213231   1.630   0.960   1.574  1.6183 -1.2515  0.4469
 4409TIP3   OH213232   4.010   0.384   4.269 -0.0521  0.3323 -0.0818
 4409TIP3    H113233   3.920   0.377   4.300  0.1109 -1.4836  0.0885
 4409TIP3    H213234   4.044   0.463   4.311 -1.0313  0.0648  1.2598
 4410TIP3   OH213235   5.325   3.186   3.796  0.2549 -0.2909  0.7757
 4410TIP3    H113236   5.340   3.100   3.758  0.1311 -0.5412  1.2780
 4410TIP3    H213237   5.356   3.248   3.730 -0.8246 -0.6730 -0.1295
 4411TIP3   OH213238   1.828   0.611   0.211 -0.0239 -0.5464  0.7422
 4411TIP3    H113239   1.733   0.624   0.211  0.0293 -0.1183  0.6709
 4411TIP3    H213240   1.852   0.607   0.303  0.1384  1.4477  0.8404
 4412TIP3   OH213241   2.151   2.856   2.884 -0.1371 -0.0861 -0.2830
 4412TIP3    H113242   2.068   2.868   2.930  0.0801  0.8971 -0.1221
 4412TIP3    H213243   2.187   2.775   2.920  0.4181  1.0568  1.9404
 4413TIP3   OH213244   0.283   0.621   2.318 -0.1818 -0.1507  1.0066
 4413TIP3    H113245   0.244   0.641   2.404  0.1888  1.2531  0.8826
 4413TIP3    H213246   0.211   0.586   2.266 -0.9614  1.1110  1.2028
 4414TIP3   OH213247   5.231   5.349   2.010  0.0914  0.1630 -0.1252
 4414TIP3    H113248   5.139   5.350   1.984  0.3025  1.7761 -0.9448
 4414TIP3    H213249   5.229   5.329   2.103 -1.3561  3.0481  0.5967
 4415TIP3   OH213250   1.103   2.202   0.397  0.7914 -1.2212 -0.1274
 4415TIP3    H113251   1.032   2.142   0.375 -2.1492  1.5129  1.1606
 4415TIP3    H213252   1.140   2.167   0.477 -0.6794 -1.5520  0.4410
 4416TIP3   OH213253   5.471   5.875   2.146 -0.0074  0.0881  0.0509
 4416TIP3    H113254   5.394   5.840   2.191 -0.0621 -0.0375 -0.1425
 4416TIP3    H213255   5.436   5.935   2.080 -0.0154 -1.0521 -1.0099
 4417TIP3   OH213256   2.124   1.628   2.261 -0.2534 -0.0247 -0.2852
 4417TIP3    H113257   2.100   1.640   2.169  0.6195 -0.7609 -0.6217
 4417TIP3    H213258   2.072   1.553   2.290 -0.5010  0.1844 -0.1845
 4418TIP3   OH213259   5.062   4.578   2.583  0.0981 -0.3802 -0.6800
 4418TIP3    H113260   5.027   4.645   2.641 -0.7360 -1.1727 -0.2466
 4418TIP3    H213261   5.127   4.624   2.530  0.8482  0.3617  0.8354
 4419TIP3   OH213262   1.984   2.512   2.975  0.3506  0.4115 -0.0090
 4419TIP3    H113263   1.904   2.464   2.958  0.5630  0.1166 -0.1869
 4419TIP3    H213264   2.032   2.510   2.892 -0.2312  2.0895 -0.4191
 4420TIP3   OH213265   5.488   5.449   1.032  0.2662  0.3361  0.1589
 4420TIP3    H113266   5.415   5.388   1.028 -0.8017  1.5610  0.4348
 4420TIP3    H213267   5.454   5.530   0.994  1.8809  0.5643 -0.8906
 4421TIP3   OH213268   0.965   1.238   4.384  0.8324 -0.4256  0.3208
 4421TIP3    H113269   0.984   1.322   4.426  0.3839  0.6793 -1.5578
 4421TIP3    H213270   0.948   1.261   4.293 -4.0917 -1.8679  0.6111
 4422TIP3   OH213271   4.716   1.457   4.787  0.5372 -0.0372  0.2703
 4422TIP3    H113272   4.687   1.548   4.789 -0.0092 -0.2177  0.5280
 4422TIP3    H213273   4.805   1.460   4.824  0.0057  0.2038  1.5772
 4423TIP3   OH213274   1.916   5.858   2.495  0.3409  0.2366 -0.5607
 4423TIP3    H113275   2.009   5.845   2.476 -0.0477 -3.9071 -0.5356
 4423TIP3    H213276   1.874   5.861   2.408  0.3961  1.2513 -0.5584
 4424TIP3   OH213277   3.580   3.851   4.387  0.0942  0.5898  0.3513
 4424TIP3    H113278   3.638   3.927   4.376  1.9946 -0.7155  0.7811
 4424TIP3    H213279   3.615   3.787   4.325 -0.4603 -0.4848  1.1366
 4425TIP3   OH213280   6.189   4.098   3.930 -0.1120 -0.0010 -0.1394
 4425TIP3    H113281   6.282   4.114   3.916 -0.2412  0.8760 -0.0456
 4425TIP3    H213282   6.177   4.005   3.910  0.4209  0.2917 -2.1113
 4426TIP3   OH213283   0.822   2.984   0.073  0.0908  0.2066  0.7400
 4426TIP3    H113284   0.833   3.072   0.108  0.8405  0.4002  0.0413
 4426TIP3    H213285   0.760   2.942   0.132 -1.6479  1.7642  0.1181
 4427TIP3   OH213286   2.490   1.351   0.404  0.2990 -0.1960  0.1166
 4427TIP3    H113287   2.493   1.444   0.425  0.0776 -0.4954  1.6046
 4427TIP3    H213288   2.578   1.319   0.422  0.6762 -0.1048 -1.4092
 4428TIP3   OH213289   1.691   4.661   3.404  0.1516 -0.1737 -0.1889
 4428TIP3    H113290   1.625   4.723   3.373 -0.6215  0.8196  3.0189
 4428TIP3    H213291   1.657   4.575   3.379 -2.2138  0.3465  0.9389
 4429TIP3   OH213292   1.866   0.112   0.486 -0.1459 -0.2437 -1.0148
 4429TIP3    H113293   1.911   0.196   0.473 -0.1418 -0.3460 -1.6806
 4429TIP3    H213294   1.894   0.084   0.573  0.7685 -0.1125 -1.2544
 4430TIP3   OH213295   1.322   2.967   4.070 -0.1160  0.0083  0.1622
 4430TIP3    H113296   1.313   2.999   4.161  2.0787 -0.1107  0.4573
 4430TIP3    H213297   1.336   2.873   4.079 -1.3782 -0.2540 -0.4204
 4431TIP3   OH213298   2.963   1.417   4.701  0.0635  0.1799  0.3000
 4431TIP3    H113299   2.868   1.409   4.710  0.0569  0.8258  0.9357
 4431TIP3    H213300   2.992   1.330   4.674 -0.7296  0.0392 -0.1345
 4432TIP3   OH213301   2.116   0.724   0.420 -0.1180 -0.7012  0.0404
 4432TIP3    H113302   2.187   0.686   0.369  3.1404  1.6284  2.4694
 4432TIP3    H213303   2.115   0.674   0.501 -1.0288 -0.4749  0.1822
 4433TIP3   OH213304   5.659   0.012   0.076  0.3918 -0.7975 -0.4931
 4433TIP3    H113305   5.732   0.074   0.072  1.1890 -1.7258 -0.7784
 4433TIP3    H213306   5.684  -0.058   0.015  0.3189 -2.2546  1.0973
 4434TIP3   OH213307   0.593   5.295   1.646 -0.1655 -0.1248 -0.3342
 4434TIP3    H113308   0.499   5.297   1.667 -0.1146 -0.1978 -0.0927
 4434TIP3    H213309   0.634   5.261   1.725 -0.1708 -2.5796 -1.3074
 4435TIP3   OH213310   4.005   3.741   5.043  0.7607 -0.1371  0.1059
 4435TIP3    H113311   3.985   3.812   5.104 -1.9137 -1.1922  0.6039
 4435TIP3    H213312   3.946   3.756   4.969  1.2580 -0.9910 -0.4837
 4436TIP3   OH213313   2.949   0.350   0.926 -0.0931  0.0818  0.5140
 4436TIP3    H113314   3.012   0.421   0.912  0.0010  0.0106  0.5751
 4436TIP3    H213315   2.996   0.286   0.978  0.9877 -1.6483 -2.3738
 4437TIP3   OH213316   6.165   0.882   0.398 -0.5337 -0.3931 -0.5124
 4437TIP3    H113317   6.128   0.867   0.485 -2.7770  1.5224 -1.0232
 4437TIP3    H213318   6.110   0.831   0.339  0.2368 -0.7404 -0.9517
 4438TIP3   OH213319   3.009   2.505   4.523  0.1324 -0.0097  0.1928
 4438TIP3    H113320   3.047   2.511   4.611  0.2027  2.2793  0.0515
 4438TIP3    H213321   3.024   2.414   4.497  2.1628 -0.1482  1.6329
 4439TIP3   OH213322   0.934   2.019   2.460 -0.0780 -0.2080  0.1761
 4439TIP3    H113323   0.965   2.069   2.385  1.2074  1.7826  1.8990
 4439TIP3    H213324   0.846   1.990   2.436  0.3195  0.3094 -2.0809
 4440TIP3   OH213325   1.458   3.119   0.506  0.2531  0.2461  0.3832
 4440TIP3    H113326   1.473   3.025   0.513  0.4599  0.0473 -1.9142
 4440TIP3    H213327   1.432   3.133   0.415 -1.3229  2.2271  1.0600
 4441TIP3   OH213328   5.751   3.036   4.071 -0.1636  0.0810 -0.2394
 4441TIP3    H113329   5.706   3.101   4.017  0.9674  0.7655 -0.4023
 4441TIP3    H213330   5.687   3.010   4.137 -1.0223  0.4762 -0.9078
 4442TIP3   OH213331   0.598   2.812   2.925 -0.9379  0.1016  0.4632
 4442TIP3    H113332   0.598   2.739   2.987 -0.8082  0.4606  0.8968
 4442TIP3    H213333   0.603   2.890   2.981 -1.6985  0.4658  0.0398
 4443TIP3   OH213334   3.173   5.768   4.913  0.2644  0.0219 -0.2240
 4443TIP3    H113335   3.106   5.815   4.963  2.6186  1.9838  1.3498
 4443TIP3    H213336   3.195   5.692   4.967  1.2136  0.9198  0.7150
 4444TIP3   OH213337   0.742   2.770   1.757 -0.1502 -0.2996  0.4708
 4444TIP3    H113338   0.783   2.733   1.835 -1.7828 -0.8499  1.1107
 4444TIP3    H213339   0.760   2.706   1.688  2.2221  0.6914  0.0482
 4445TIP3   OH213340   5.666   5.682   1.135 -0.5003  0.0558 -0.9506
 4445TIP3    H113341   5.573   5.680   1.116 -0.7789 -0.1228  0.3116
 4445TIP3    H213342   5.686   5.595   1.168 -0.3506  0.6716  0.6891
 4446TIP3   OH213343   4.776   0.103   5.016  0.0131  0.1036 -0.7167
 4446TIP3    H113344   4.801   0.011   5.026  2.1106  0.7319  0.4431
 4446TIP3    H213345   4.749   0.130   5.104  2.4195  1.3500 -0.2880
 4447TIP3   OH213346   0.985   5.739   2.097 -0.2271  0.2854  0.2024
 4447TIP3    H113347   1.036   5.789   2.034  0.8735 -1.2547 -0.2056
 4447TIP3    H213348   1.052   5.698   2.153 -1.0382 -1.1299  0.1714
 4448TIP3   OH213349   2.858   1.887   2.450  0.2812  0.0214 -0.5114
 4448TIP3    H113350   2.898   1.930   2.374  0.9460 -0.8031 -0.6483
 4448TIP3    H213351   2.809   1.957   2.494  0.1328  0.5826 -1.5225
 4449TIP3   OH213352   3.024   4.948   0.888 -0.7121 -0.0614  0.4020
 4449TIP3    H113353   3.082   4.878   0.918 -0.6472 -0.6449 -1.0438
 4449TIP3    H213354   3.026   5.012   0.960  0.6632 -0.6759  0.9587
 4450TIP3   OH213355   2.677   1.439   4.726  0.1583  0.0351  0.0986
 4450TIP3    H113356   2.645   1.472   4.642 -2.1717  1.6941  1.5293
 4450TIP3    H213357   2.616   1.370   4.750 -0.5677  1.0567  1.3729
 4451TIP3   OH213358   4.916   2.732   2.682 -0.0720  0.0255  0.3507
 4451TIP3    H113359   4.883   2.780   2.606  0.7722  0.2606  0.1250
 4451TIP3    H213360   4.845   2.738   2.747  0.0108  1.5657  0.3230
 4452TIP3   OH213361   1.726   5.602   2.319 -0.3631 -0.1034 -0.2111
 4452TIP3    H113362   1.754   5.690   2.294 -1.5014  0.2254 -0.3594
 4452TIP3    H213363   1.684   5.567   2.240 -0.6655 -0.4583  0.1040
 4453TIP3   OH213364   2.538   3.066   3.927 -0.1222  0.2015 -0.0028
 4453TIP3    H113365   2.563   2.974   3.920 -1.3156 -0.2133  0.8210
 4453TIP3    H213366   2.582   3.097   4.006 -2.2408 -0.6099  1.6188
 4454TIP3   OH213367   5.837   3.561   2.135 -0.3222  0.3190 -0.7102
 4454TIP3    H113368   5.884   3.507   2.071 -2.3338 -0.0069 -2.0324
 4454TIP3    H213369   5.786   3.498   2.186  1.5773  0.5456  1.5891
 4455TIP3   OH213370   4.786   2.204   2.685  0.3593 -1.0673  0.2863
 4455TIP3    H113371   4.771   2.285   2.734  0.7082 -0.7560 -0.1121
 4455TIP3    H213372   4.875   2.178   2.709  0.9118 -0.3711 -0.9265
 4456TIP3   OH213373   0.468   3.603   3.752  0.0377  0.4866  0.2095
 4456TIP3    H113374   0.495   3.685   3.710 -0.2013  0.7949  0.6459
 4456TIP3    H213375   0.382   3.584   3.715 -0.5324  1.1789  1.1038
 4457TIP3   OH213376   4.002   0.723   0.761  0.2858 -0.2021 -0.3842
 4457TIP3    H113377   4.015   0.808   0.802  0.8917 -0.7679  0.6415
 4457TIP3    H213378   4.077   0.712   0.704  0.2652 -0.0954 -0.4316
 4458TIP3   OH213379   5.321   0.058   2.832  0.0011  0.0372 -0.4794
 4458TIP3    H113380   5.347  -0.019   2.783 -1.0808 -0.9227  0.3888
 4458TIP3    H213381   5.239   0.087   2.791  0.0359  0.3021 -0.3675
 4459TIP3   OH213382   5.339   0.570   3.609 -0.0818  0.3606 -0.7365
 4459TIP3    H113383   5.274   0.542   3.673 -0.9297 -0.8226 -2.0637
 4459TIP3    H213384   5.392   0.635   3.656  0.0474 -1.2530  1.4912
 4460TIP3   OH213385   3.682   4.962   2.041 -0.3605  0.4854 -0.1307
 4460TIP3    H113386   3.751   4.952   1.975  0.7415 -1.9528  1.2487
 4460TIP3    H213387   3.618   4.895   2.019  0.4549 -0.9823  1.6711
 4461TIP3   OH213388   5.354   5.666   1.513 -1.1431 -0.3841 -0.5924
 4461TIP3    H113389   5.342   5.745   1.461 -1.6611  0.1414  0.3073
 4461TIP3    H213390   5.276   5.661   1.568 -0.4586 -0.7530  0.3618
 4462TIP3   OH213391   1.146   3.835   0.673  0.3931 -0.2330  0.5556
 4462TIP3    H113392   1.161   3.833   0.578  2.4369 -0.1845  0.8202
 4462TIP3    H213393   1.161   3.745   0.702 -0.6756 -0.3413  0.7804
 4463TIP3   OH213394   2.076   1.411   4.161 -0.5757 -0.0221 -0.4833
 4463TIP3    H113395   2.062   1.449   4.248  0.3161 -0.2338 -0.2391
 4463TIP3    H213396   2.013   1.339   4.155 -2.1802  1.3452 -0.8854
 4464TIP3   OH213397   3.318   4.123   1.065  0.2808  0.9258  0.6761
 4464TIP3    H113398   3.344   4.215   1.075 -0.2537  0.9470  2.0316
 4464TIP3    H213399   3.267   4.104   1.143 -1.0961 -0.0431 -0.4197
 4465TIP3   OH213400   5.134   5.538   5.151  0.1069 -0.4306 -0.3671
 4465TIP3    H113401   5.156   5.631   5.159 -0.9202 -0.2741  0.9436
 4465TIP3    H213402   5.112   5.527   5.059 -0.1766  0.7223 -0.4566
 4466TIP3   OH213403   5.700   1.944   4.420 -0.5615  0.4619  0.3270
 4466TIP3    H113404   5.694   1.885   4.496  0.0610 -1.1814 -0.8412
 4466TIP3    H213405   5.665   2.027   4.452 -1.8288 -0.6236  1.9650
 4467TIP3   OH213406   5.741   5.867   4.091  0.5513 -0.4522 -0.1890
 4467TIP3    H113407   5.788   5.817   4.026 -2.1413 -0.0338 -2.6662
 4467TIP3    H213408   5.695   5.802   4.144 -0.2362 -0.7579 -1.2120
 4468TIP3   OH213409   5.596   3.174   3.875 -0.3170 -0.4786  0.0971
 4468TIP3    H113410   5.509   3.214   3.883 -1.1467 -1.8965 -1.2935
 4468TIP3    H213411   5.647   3.239   3.826 -0.2948  0.7236  1.6221
 4469TIP3   OH213412   0.722   0.673   3.089 -0.1507 -0.8291  0.1747
 4469TIP3    H113413   0.643   0.720   3.061 -0.1345 -1.0762 -0.2899
 4469TIP3    H213414   0.782   0.743   3.115 -0.3594 -0.6178  0.1003
 4470TIP3   OH213415   1.291   0.091   4.772 -0.0385 -0.2481  0.5124
 4470TIP3    H113416   1.261   0.181   4.782  1.0239  0.1379  0.3236
 4470TIP3    H213417   1.332   0.070   4.856  2.6444  0.6022 -0.4865
 4471TIP3   OH213418   3.781   3.774   2.430 -0.5433 -0.2636  0.5274
 4471TIP3    H113419   3.876   3.766   2.429 -0.5597 -0.5377  0.8795
 4471TIP3    H213420   3.757   3.769   2.522 -0.9182 -0.4754  0.4230
 4472TIP3   OH213421   1.814   3.367   4.306 -0.2636 -0.1417 -0.0651
 4472TIP3    H113422   1.779   3.281   4.283 -2.0759 -0.1157  2.2386
 4472TIP3    H213423   1.906   3.351   4.325 -0.9328 -2.0175  2.0771
 4473TIP3   OH213424   5.070   2.242   1.795 -0.2859  0.5879 -0.0622
 4473TIP3    H113425   5.072   2.258   1.701  1.7314  2.3803  0.2081
 4473TIP3    H213426   5.051   2.327   1.834 -1.8740 -0.2768  1.1816
 4474TIP3   OH213427   0.120   0.513   1.915  0.0743 -0.3099  0.1605
 4474TIP3    H113428   0.109   0.451   1.988 -1.2700  0.8787  1.0123
 4474TIP3    H213429   0.114   0.599   1.956 -0.8331  0.3847 -1.3757
 4475TIP3   OH213430   3.859   3.953   3.380  0.5595  0.5605 -0.1287
 4475TIP3    H113431   3.857   3.913   3.467  0.2796 -0.0785 -0.4230
 4475TIP3    H213432   3.768   3.981   3.365  0.0202 -1.5733 -1.2205
 4476TIP3   OH213433   3.281   1.323   3.431  0.2755 -0.0023  0.0872
 4476TIP3    H113434   3.300   1.232   3.410  0.7882 -0.0832  0.8671
 4476TIP3    H213435   3.191   1.337   3.400 -0.7786 -1.5147  2.2642
 4477TIP3   OH213436   2.030   4.139   0.519  0.1550 -0.5492  0.8494
 4477TIP3    H113437   2.097   4.104   0.578  0.0770 -0.0053  1.2734
 4477TIP3    H213438   1.948   4.103   0.553  0.2968 -1.9801 -0.2338
 4478TIP3   OH213439   1.969   2.800   4.509  0.0391 -0.3202  0.1327
 4478TIP3    H113440   2.035   2.867   4.491  0.0590 -0.8139 -1.8386
 4478TIP3    H213441   1.887   2.849   4.519  0.6434  0.3105  2.7655
 4479TIP3   OH213442   1.089   3.980   1.284  0.0387 -0.0240 -0.1763
 4479TIP3    H113443   1.115   4.032   1.360  0.7237  0.1585 -0.5221
 4479TIP3    H213444   0.999   3.954   1.302  0.3389 -0.3633  0.8973
 4480TIP3   OH213445   4.890   0.504   4.389 -0.1493 -0.5484  0.6078
 4480TIP3    H113446   4.804   0.515   4.350  0.1194  2.5940  0.6926
 4480TIP3    H213447   4.943   0.575   4.353  1.7282 -0.9129  2.4264
 4481TIP3   OH213448   6.186   2.269   1.781  0.4512  0.4202  0.6076
 4481TIP3    H113449   6.139   2.228   1.853  0.4041 -1.9347 -0.6592
 4481TIP3    H213450   6.119   2.288   1.715  0.6488  1.4874  0.6932
 4482TIP3   OH213451   2.270   1.367   0.673  0.4464 -0.2548  0.9545
 4482TIP3    H113452   2.205   1.323   0.618 -1.3657  1.0835  1.9296
 4482TIP3    H213453   2.311   1.296   0.723  0.5542 -1.2379 -0.4647
 4483TIP3   OH213454   1.496   4.156   3.068  0.1161  0.4852  0.0746
 4483TIP3    H113455   1.540   4.214   3.007  0.1674  0.7154  0.3282
 4483TIP3    H213456   1.517   4.068   3.037 -0.6293  0.5965 -0.7845
 4484TIP3   OH213457   3.279   0.658   2.073 -0.2343 -0.3934  0.0753
 4484TIP3    H113458   3.222   0.600   2.124  0.6579 -2.0047 -0.6904
 4484TIP3    H213459   3.355   0.604   2.051  2.3613  2.0122  2.2657
 4485TIP3   OH213460   3.098   0.839   4.986 -0.0260 -0.6586  0.3674
 4485TIP3    H113461   3.178   0.786   4.984  1.8630  1.9869  0.2268
 4485TIP3    H213462   3.064   0.828   5.075  1.8084 -0.1216  1.1903
 4486TIP3   OH213463   6.204   1.772   4.087  0.1932 -0.1747 -0.3593
 4486TIP3    H113464   6.175   1.851   4.133  0.6661 -0.0873 -0.2095
 4486TIP3    H213465   6.153   1.772   4.006  0.9959  0.8965 -0.8927
 4487TIP3   OH213466   3.217   1.186   4.793 -0.0442  0.2556 -0.0763
 4487TIP3    H113467   3.180   1.235   4.866 -0.1395  0.5549 -0.3275
 4487TIP3    H213468   3.141   1.157   4.743 -0.0927 -1.5000  0.9269
 4488TIP3   OH213469   2.329   5.039   2.941  0.2725 -0.1406  0.5297
 4488TIP3    H113470   2.287   5.106   2.995 -0.7154  1.5151 -2.0448
 4488TIP3    H213471   2.261   4.973   2.929 -0.3836  0.6793 -0.5425
 4489TIP3   OH213472   2.094   1.953   0.994 -0.2274 -0.4633 -0.5101
 4489TIP3    H113473   2.014   1.906   1.021 -0.1837 -0.8913 -1.1109
 4489TIP3    H213474   2.160   1.926   1.058 -1.0696  1.5600  1.3034
 4490TIP3   OH213475   2.851   5.300   4.814 -0.0437  0.0315  0.4282
 4490TIP3    H113476   2.843   5.317   4.720 -0.2694  0.7275  0.5653
 4490TIP3    H213477   2.817   5.380   4.856  1.4379  0.3659  1.0821
 4491TIP3   OH213478   3.033   2.334   2.268 -0.5857  0.0812 -0.3042
 4491TIP3    H113479   3.061   2.405   2.210 -0.4690  0.7922  0.5880
 4491TIP3    H213480   3.007   2.263   2.210  0.9245  0.2266 -1.2052
 4492TIP3   OH213481   2.934   0.032   0.502  0.1764 -0.4502 -0.0786
 4492TIP3    H113482   2.840   0.051   0.498  0.2649 -0.1339 -0.6321
 4492TIP3    H213483   2.955   0.037   0.596 -0.0679  0.9086 -0.0798
 4493TIP3   OH213484   0.752   2.631   0.447 -0.3540  0.2804  0.3675
 4493TIP3    H113485   0.677   2.583   0.482 -0.2818  0.5172  0.8474
 4493TIP3    H213486   0.819   2.564   0.433 -0.4679  0.1508  0.4450
 4494TIP3   OH213487   6.297   2.254   1.386  0.3432 -0.4045  0.0293
 4494TIP3    H113488   6.365   2.280   1.448  0.7617 -0.1636 -0.5274
 4494TIP3    H213489   6.258   2.337   1.357 -0.9583 -0.5752  1.1874
 4495TIP3   OH213490   5.237   3.522   2.004  0.3331  0.2067 -0.2853
 4495TIP3    H113491   5.310   3.550   1.949 -1.2106  0.3419 -2.3844
 4495TIP3    H213492   5.223   3.430   1.981  0.3052 -0.0462  0.6873
 4496TIP3   OH213493   4.471   5.725   3.455 -0.1433 -0.0199 -0.0088
 4496TIP3    H113494   4.561   5.693   3.467  0.2131  1.1077  0.5219
 4496TIP3    H213495   4.437   5.734   3.544 -0.4863  0.3584 -0.1738
 4497TIP3   OH213496   2.175   1.853   0.403  0.5326  0.4459 -0.2784
 4497TIP3    H113497   2.230   1.782   0.371  0.2805  0.3221 -0.4397
 4497TIP3    H213498   2.200   1.863   0.495 -0.1838 -0.5820  0.0463
 4498TIP3   OH213499   2.387   5.376   1.306  0.0175 -0.1422  0.4671
 4498TIP3    H113500   2.423   5.290   1.283  1.5541  0.4099  0.6816
 4498TIP3    H213501   2.450   5.438   1.270 -0.1752  0.8501  1.7731
 4499TIP3   OH213502   5.036   1.921   0.091 -0.1568  0.0210 -0.5073
 4499TIP3    H113503   4.965   1.915   0.156 -0.0055 -0.4575 -0.3767
 4499TIP3    H213504   5.031   2.010   0.058 -0.6560  0.0713 -0.3093
 4500TIP3   OH213505   1.213   4.556   3.933 -0.4887 -0.1869 -0.0929
 4500TIP3    H113506   1.284   4.604   3.892 -0.9269  0.1339 -0.4942
 4500TIP3    H213507   1.151   4.539   3.862 -1.5348  0.8716  0.5100
 4501TIP3   OH213508   4.149   5.080   3.405 -0.2096  0.5952 -0.2972
 4501TIP3    H113509   4.219   5.023   3.434  0.4022 -0.1392 -2.9591
 4501TIP3    H213510   4.191   5.165   3.391 -0.6256  1.1152  1.3507
 4502TIP3   OH213511   3.627   3.200   0.849  0.4688 -0.2011 -0.2654
 4502TIP3    H113512   3.554   3.187   0.788 -1.6775 -1.4447  2.3529
 4502TIP3    H213513   3.668   3.114   0.857 -2.4844 -1.5736  3.5866
 4503TIP3   OH213514   5.884   2.611   3.818  0.0271 -0.3141 -0.4600
 4503TIP3    H113515   5.930   2.691   3.843 -1.1968 -0.3064  2.0739
 4503TIP3    H213516   5.796   2.640   3.794 -0.0715 -0.7906 -0.7032
 4504TIP3   OH213517   3.365   5.303   1.385 -0.1677 -0.2771 -0.2748
 4504TIP3    H113518   3.321   5.260   1.458 -0.7271  0.7481  0.0097
 4504TIP3    H213519   3.309   5.284   1.309 -0.6366  0.2851 -0.0751
 4505TIP3   OH213520   5.074   4.852   1.726  0.5398  0.5805  0.2725
 4505TIP3    H113521   5.120   4.918   1.779  2.3371 -0.7292  0.4332
 4505TIP3    H213522   5.099   4.768   1.765  0.0702 -0.3105 -1.2600
 4506TIP3   OH213523   6.003   0.233   4.811  0.4561  0.2565  0.3412
 4506TIP3    H113524   6.049   0.150   4.796  0.5672  0.6514 -1.8239
 4506TIP3    H213525   5.920   0.224   4.764  0.0348  1.0259  0.9053
 4507TIP3   OH213526   0.027   5.681   2.924  0.5450  0.3824  0.0233
 4507TIP3    H113527   0.047   5.596   2.886 -0.3053 -0.0650  0.5445
 4507TIP3    H213528   0.097   5.738   2.894 -0.4094  0.2272 -2.7749
 4508TIP3   OH213529   5.797   3.781   3.046 -0.0684 -0.6235  0.4277
 4508TIP3    H113530   5.868   3.793   3.109  0.8423 -0.3046 -0.6299
 4508TIP3    H213531   5.750   3.865   3.047 -0.2145 -0.7042  0.8456
 4509TIP3   OH213532   3.574   4.073   2.850  0.3385  0.2607  0.0584
 4509TIP3    H113533   3.632   4.002   2.878 -0.8746 -0.3886  1.0392
 4509TIP3    H213534   3.527   4.098   2.930 -1.4100  0.1077 -0.8738
 4510TIP3   OH213535   1.163   3.185   1.137  0.1010 -0.5942  0.3766
 4510TIP3    H113536   1.122   3.119   1.080 -0.4239 -0.8206  0.9997
 4510TIP3    H213537   1.255   3.160   1.138  0.4408  0.3455 -1.6249
 4511TIP3   OH213538   4.821   2.546   1.657 -0.2184  0.2184 -0.0508
 4511TIP3    H113539   4.758   2.587   1.715  0.0015 -0.2256  0.5144
 4511TIP3    H213540   4.780   2.463   1.631 -0.1291  0.2114 -0.1735
 4512TIP3   OH213541   2.348   1.867   4.130  0.3885 -0.3647  0.2680
 4512TIP3    H113542   2.286   1.939   4.141  0.0668 -0.4610 -0.7992
 4512TIP3    H213543   2.311   1.796   4.182  0.7093  0.2223  1.3303
 4513TIP3   OH213544   5.121   5.537   1.088 -0.4358  0.1235  0.1829
 4513TIP3    H113545   5.193   5.600   1.086 -0.2000 -0.1574 -0.2055
 4513TIP3    H213546   5.163   5.452   1.095 -0.7497 -0.0080  0.5084
 4514TIP3   OH213547   0.479   0.309   1.966  0.7125 -0.3607  0.2200
 4514TIP3    H113548   0.572   0.287   1.957  1.1406  1.4762 -0.1145
 4514TIP3    H213549   0.463   0.309   2.060  0.3229 -3.3197  0.2618
 4515TIP3   OH213550   0.170   2.988   1.261  0.5934  0.1205 -0.1876
 4515TIP3    H113551   0.130   2.978   1.175  0.3442 -0.6996  0.0190
 4515TIP3    H213552   0.261   3.011   1.243  0.4613  0.2757 -0.6653
 4516TIP3   OH213553   6.198   5.756   1.534  0.6254 -0.0931 -0.0210
 4516TIP3    H113554   6.240   5.840   1.518  2.1920 -0.8217  0.0638
 4516TIP3    H213555   6.121   5.756   1.476  1.7506  0.5548 -1.5928
 4517TIP3   OH213556   1.429   2.535   4.335  0.3719 -0.2769  0.3229
 4517TIP3    H113557   1.368   2.494   4.396 -2.0225  0.7351 -1.2379
 4517TIP3    H213558   1.449   2.620   4.373  0.0581 -0.2308  0.3800
 4518TIP3   OH213559   4.425   3.164   2.973 -0.3109  0.0681  0.1147
 4518TIP3    H113560   4.499   3.221   2.993  0.0681  0.0353 -1.1430
 4518TIP3    H213561   4.348   3.220   2.984  0.0161  0.6337 -0.4239
 4519TIP3   OH213562   1.123   1.378   2.331  0.4942  0.1630  0.2375
 4519TIP3    H113563   1.117   1.463   2.289 -0.5790 -0.3096 -0.6149
 4519TIP3    H213564   1.044   1.331   2.303  2.4626 -2.2173 -1.8070
 4520TIP3   OH213565   3.165   0.898   0.807  0.0758 -0.0947 -0.4688
 4520TIP3    H113566   3.129   0.839   0.873  0.9016 -0.2814 -0.1805
 4520TIP3    H213567   3.199   0.841   0.739  2.6061 -0.0752  0.6894
 4521TIP3   OH213568   0.033   2.954   5.090 -0.2135  0.2925 -0.1995
 4521TIP3    H113569   0.093   2.954   5.165  0.2581 -1.1216 -0.5346
 4521TIP3    H213570  -0.051   2.981   5.127 -0.0415 -0.5586  0.9070
 4522TIP3   OH213571   1.199   1.522   0.771 -0.0244 -0.3317  0.5651
 4522TIP3    H113572   1.104   1.525   0.784  0.0571  2.7399  1.2014
 4522TIP3    H213573   1.236   1.545   0.856  1.3031 -0.8206  0.1521
 4523TIP3   OH213574   5.182   3.164   0.654 -0.1306  0.2863  0.7350
 4523TIP3    H113575   5.197   3.072   0.673  0.3083  0.6459  2.1968
 4523TIP3    H213576   5.111   3.190   0.712 -1.1287  0.5817 -0.5598
 4524TIP3   OH213577   2.212   4.695   3.589 -0.4711 -0.4578  0.1625
 4524TIP3    H113578   2.124   4.709   3.556  0.0231  1.3066 -0.5074
 4524TIP3    H213579   2.268   4.695   3.511  0.3542  0.6864  0.7137
 4525TIP3   OH213580   2.628   4.166   4.852 -0.1772  0.1857  0.0586
 4525TIP3    H113581   2.552   4.107   4.855 -0.3637  0.4611  1.2165
 4525TIP3    H213582   2.698   4.112   4.814 -0.6192 -0.4711  0.1465
 4526TIP3   OH213583   4.315   3.250   4.377 -0.0426 -0.2529 -0.2100
 4526TIP3    H113584   4.388   3.310   4.359 -0.3584  0.3321  0.3683
 4526TIP3    H213585   4.335   3.214   4.463  0.4628 -1.4835 -0.8307
 4527TIP3   OH213586   2.438   2.635   4.001  0.5746  0.1007 -0.0822
 4527TIP3    H113587   2.392   2.633   3.917 -0.9161 -1.3814  0.7171
 4527TIP3    H213588   2.521   2.679   3.981  0.1037  0.1513 -2.2294
 4528TIP3   OH213589   5.498   1.812   3.190 -0.2107  0.5120  0.5951
 4528TIP3    H113590   5.542   1.793   3.107 -1.1498  2.6353 -0.4590
 4528TIP3    H213591   5.569   1.841   3.248  0.1593  1.3479 -0.2445
 4529TIP3   OH213592   3.805   0.832   0.442 -0.0101  0.5924  0.0007
 4529TIP3    H113593   3.749   0.863   0.371  0.0758 -1.6801 -1.1546
 4529TIP3    H213594   3.872   0.900   0.452 -1.0198  1.7588 -0.8905
 4530TIP3   OH213595   0.287   4.974   4.139  0.4793  0.3803 -0.2603
 4530TIP3    H113596   0.288   5.045   4.203 -0.4333  0.4610 -0.3243
 4530TIP3    H213597   0.258   5.016   4.058  2.6725  0.5163 -1.0502
 4531TIP3   OH213598   3.545   4.454   0.945 -0.1118  0.3077  0.3599
 4531TIP3    H113599   3.529   4.542   0.912  1.1784 -0.0860 -1.4610
 4531TIP3    H213600   3.545   4.398   0.868 -0.4588 -1.2466  1.4255
 4532TIP3   OH213601   1.104   2.390   3.415  0.6724 -0.5164 -0.4515
 4532TIP3    H113602   1.088   2.303   3.379  0.5562 -0.8108  0.2921
 4532TIP3    H213603   1.104   2.377   3.510 -0.3521  0.4714 -0.2976
 4533TIP3   OH213604   4.006   4.643   5.149 -0.4704 -0.1421 -0.0580
 4533TIP3    H113605   4.040   4.604   5.068 -1.1175 -1.1863  0.1540
 4533TIP3    H213606   3.911   4.636   5.140 -0.5938  1.2764  0.0628
 4534TIP3   OH213607   3.447   2.380   0.323  0.3968 -0.5107  0.5447
 4534TIP3    H113608   3.375   2.418   0.273 -0.1454  0.0020  1.6832
 4534TIP3    H213609   3.497   2.330   0.258 -1.0505 -0.9894 -0.2608
 4535TIP3   OH213610   5.610   4.334   3.997  0.2270  0.2839  0.3358
 4535TIP3    H113611   5.579   4.404   3.940 -1.5256  2.3005  3.4776
 4535TIP3    H213612   5.533   4.279   4.011  0.8544 -0.6606  0.2034
 4536TIP3   OH213613   1.189   3.886   3.880 -0.5133 -1.0359 -0.3304
 4536TIP3    H113614   1.096   3.885   3.905 -0.9381 -1.0704 -1.8570
 4536TIP3    H213615   1.233   3.924   3.956 -1.7646 -1.0423  0.4336
 4537TIP3   OH213616   5.178   3.378   1.083  0.0870  0.0866  0.5986
 4537TIP3    H113617   5.151   3.450   1.026 -0.2267 -0.3218  0.2258
 4537TIP3    H213618   5.148   3.299   1.037  2.3566 -0.4341 -0.1183
 4538TIP3   OH213619   2.534   3.813   2.226  0.3209 -0.0837  0.1973
 4538TIP3    H113620   2.522   3.860   2.308  1.7072 -1.3920  1.1843
 4538TIP3    H213621   2.495   3.871   2.160  1.5667  2.2576  1.3846
 4539TIP3   OH213622   0.251   4.659   3.148 -0.4329 -0.3404 -0.0158
 4539TIP3    H113623   0.253   4.565   3.166 -1.5782 -0.8952 -2.3286
 4539TIP3    H213624   0.325   4.675   3.090 -0.7093  0.0081 -0.2843
 4540TIP3   OH213625   1.787   1.240   2.591 -0.2404 -0.1390 -0.0122
 4540TIP3    H113626   1.782   1.328   2.552  0.0504 -0.8605 -1.7530
 4540TIP3    H213627   1.750   1.182   2.525 -1.8801 -1.2025  1.7350
 4541TIP3   OH213628   1.650   4.589   3.675  0.3621 -0.3200 -0.9440
 4541TIP3    H113629   1.675   4.621   3.588  1.1490  1.3852 -0.1518
 4541TIP3    H213630   1.732   4.591   3.725 -0.4227  0.5402  0.3434
 4542TIP3   OH213631   0.729   4.703   3.188  0.2687  0.5518  0.1239
 4542TIP3    H113632   0.745   4.787   3.231  0.8492  0.1235  0.7653
 4542TIP3    H213633   0.734   4.722   3.094 -0.0861  1.3204  0.2582
 4543TIP3   OH213634   4.930   1.648   4.973 -0.5001 -0.2475 -0.0449
 4543TIP3    H113635   4.967   1.725   5.016 -0.7869 -0.9003  1.4384
 4543TIP3    H213636   4.927   1.581   5.042  0.2490 -1.7762 -1.4188
 4544TIP3   OH213637   0.591   4.766   4.661  0.0165 -0.1395 -0.1783
 4544TIP3    H113638   0.680   4.782   4.632  0.4229 -2.2849 -0.2346
 4544TIP3    H213639   0.600   4.714   4.740 -1.1884  0.7503  0.5867
 4545TIP3   OH213640   2.805   4.479   0.452  0.3510  0.0540 -0.0367
 4545TIP3    H113641   2.894   4.492   0.483  0.4376  2.5302 -1.0898
 4545TIP3    H213642   2.815   4.442   0.364  0.3540  0.6038 -0.2689
 4546TIP3   OH213643   4.729   5.394   4.703 -0.5249  0.1759  0.3065
 4546TIP3    H113644   4.806   5.361   4.658 -0.1999 -1.1241  1.7427
 4546TIP3    H213645   4.658   5.383   4.640  0.3171  0.7765 -0.7924
 4547TIP3   OH213646   1.545   1.187   3.312 -0.0077 -0.7824  0.1103
 4547TIP3    H113647   1.602   1.215   3.384  0.1699  2.0876 -1.0299
 4547TIP3    H213648   1.580   1.102   3.286  0.9155 -1.1731  2.3391
 4548TIP3   OH213649   1.874   4.457   4.223  0.3235  0.2301 -0.6364
 4548TIP3    H113650   1.822   4.496   4.293  2.2284 -0.6578  1.3738
 4548TIP3    H213651   1.819   4.465   4.145 -1.6416  1.7782  0.8149
 4549TIP3   OH213652   2.206   2.392   2.364 -0.9887 -0.4803 -0.0940
 4549TIP3    H113653   2.275   2.353   2.309  1.0457  1.3296  1.0270
 4549TIP3    H213654   2.127   2.341   2.343  0.7875 -3.0946 -0.9602
 4550TIP3   OH213655   5.177   1.893   1.814  0.2470 -0.1177 -0.1444
 4550TIP3    H113656   5.094   1.872   1.771 -0.0357  1.9307 -0.7130
 4550TIP3    H213657   5.178   1.989   1.818  1.5004 -0.1635  2.0365
 4551TIP3   OH213658   0.202   2.124   2.904  0.3619  0.3440 -0.5977
 4551TIP3    H113659   0.253   2.176   2.842  0.1714  1.7207  0.3569
 4551TIP3    H213660   0.111   2.152   2.889  0.1106 -0.6043 -0.8914
 4552TIP3   OH213661   5.292   0.381   0.149  0.1753 -0.3874 -0.1687
 4552TIP3    H113662   5.232   0.424   0.210 -1.3900  0.4410 -2.1756
 4552TIP3    H213663   5.368   0.438   0.145 -0.3453  0.3181 -0.1048
 4553TIP3   OH213664   2.295   4.479   4.125  0.4868  0.1116 -0.2150
 4553TIP3    H113665   2.284   4.571   4.102  0.3623 -0.3188 -2.0240
 4553TIP3    H213666   2.372   4.478   4.182 -0.4772  1.5063  1.1894
 4554TIP3   OH213667   2.680   1.710   3.795  0.8334 -0.0904  0.4005
 4554TIP3    H113668   2.741   1.783   3.787 -0.6522  0.9896 -1.9712
 4554TIP3    H213669   2.731   1.633   3.767  1.6387  0.4649  0.2996
 4555TIP3   OH213670   2.237   3.082   0.481 -0.2081  0.2647  0.2465
 4555TIP3    H113671   2.203   2.996   0.506 -0.7838  0.6671  0.8685
 4555TIP3    H213672   2.328   3.082   0.512 -0.4062  0.1320  0.8322
 4556TIP3   OH213673   1.731   3.029   2.165 -0.0208 -0.1927  0.2308
 4556TIP3    H113674   1.805   2.999   2.112 -0.1215 -0.5897  0.3073
 4556TIP3    H213675   1.735   3.124   2.161 -0.2198 -0.2236 -0.7421
 4557TIP3   OH213676   2.259   2.497   5.195 -0.0999 -0.0597 -0.4857
 4557TIP3    H113677   2.201   2.573   5.184 -0.0072  0.2295  0.9174
 4557TIP3    H213678   2.301   2.487   5.109  0.1375  1.6775 -0.6051
 4558TIP3   OH213679   6.029   2.471   2.330 -0.0914 -0.3207 -0.0553
 4558TIP3    H113680   6.115   2.487   2.292  0.3919  1.5582  1.6676
 4558TIP3    H213681   5.979   2.550   2.311 -0.4627 -0.1647  1.4395
 4559TIP3   OH213682   5.944   5.380   1.732  0.2711  0.3022  0.1202
 4559TIP3    H113683   6.032   5.402   1.760  0.8112  1.8607 -2.4680
 4559TIP3    H213684   5.888   5.447   1.773  0.3563 -0.2381  1.1498
 4560TIP3   OH213685   3.500   1.590   3.635 -0.6678 -0.1873  0.1325
 4560TIP3    H113686   3.424   1.545   3.672 -0.9566  0.0865 -0.1239
 4560TIP3    H213687   3.566   1.584   3.704 -0.8911 -0.5011  0.3260
 4561TIP3   OH213688   4.123   0.359   3.383  0.0809  0.4190  0.0961
 4561TIP3    H113689   4.107   0.341   3.476  1.9634 -1.4356  0.1256
 4561TIP3    H213690   4.170   0.443   3.383  0.3784  0.2656  0.8552
 4562TIP3   OH213691   1.804   0.159   4.412  0.2850 -0.3182  0.1578
 4562TIP3    H113692   1.887   0.137   4.454  1.2296 -0.7814 -1.8540
 4562TIP3    H213693   1.777   0.078   4.368 -0.0851  0.4184 -1.0253
 4563TIP3   OH213694   0.937   3.309   3.703 -0.1882  0.1901  0.2359
 4563TIP3    H113695   0.879   3.384   3.717 -1.9674 -1.0979  0.1736
 4563TIP3    H213696   0.947   3.304   3.608 -0.3663  0.1527  0.2179
 4564TIP3   OH213697   3.459   0.862   0.027 -0.1337 -0.1723 -0.0031
 4564TIP3    H113698   3.414   0.946   0.028  0.3592  0.0949  0.6865
 4564TIP3    H213699   3.396   0.800  -0.010 -1.0081  0.2169  0.8367
 4565TIP3   OH213700   1.580   3.972   1.968 -0.1851  0.3860  0.3911
 4565TIP3    H113701   1.544   4.017   2.044  1.0136  1.3957  0.3937
 4565TIP3    H213702   1.675   3.975   1.980 -0.0129 -2.9626  0.8157
 4566TIP3   OH213703   2.219   1.024   0.356  0.3230  0.3791 -0.2223
 4566TIP3    H113704   2.221   1.120   0.366 -0.5855  0.3465  0.4080
 4566TIP3    H213705   2.163   1.009   0.281 -0.8465  0.2998  0.6480
 4567TIP3   OH213706   0.185   3.656   4.984  0.5571  0.2390 -0.1813
 4567TIP3    H113707   0.225   3.583   4.936  0.1845 -0.0240 -0.0975
 4567TIP3    H213708   0.190   3.631   5.076  3.0103  1.5851  0.1536
 4568TIP3   OH213709   3.673   3.110   2.413  0.6021 -0.2031 -0.0130
 4568TIP3    H113710   3.752   3.057   2.424  0.8494  0.2442  0.4464
 4568TIP3    H213711   3.604   3.061   2.458  0.9439  0.1044  0.8777
 4569TIP3   OH213712   1.428   1.390   0.371 -0.1865  0.1042 -0.2321
 4569TIP3    H113713   1.345   1.413   0.330 -0.6854 -0.9366  0.1634
 4569TIP3    H213714   1.404   1.362   0.460  0.6891  0.6725  0.1942
 4570TIP3   OH213715   5.623   0.534   0.335 -0.2528 -0.3461 -0.0813
 4570TIP3    H113716   5.578   0.548   0.252 -0.5073  0.0856  0.1251
 4570TIP3    H213717   5.716   0.531   0.311 -0.2791  0.3802 -0.3173
 4571TIP3   OH213718   0.683   5.298   4.447 -0.2353 -0.7293  0.1419
 4571TIP3    H113719   0.718   5.282   4.534  1.1197 -1.7640 -0.5654
 4571TIP3    H213720   0.755   5.277   4.387 -0.6142  1.4289 -1.1896
 4572TIP3   OH213721   3.014   3.461   1.418  0.3942  0.1426  0.1199
 4572TIP3    H113722   2.950   3.392   1.430 -0.6687  0.3916 -3.0358
 4572TIP3    H213723   3.084   3.441   1.479 -1.0867 -2.1714  1.1637
 4573TIP3   OH213724   1.042   0.715   4.919 -0.4663  0.3075 -0.2527
 4573TIP3    H113725   1.089   0.643   4.960 -0.9165  0.4152  0.4665
 4573TIP3    H213726   0.950   0.701   4.943 -0.4473  1.6347  0.6957
 4574TIP3   OH213727   0.997   4.926   4.685 -0.1724 -0.6044 -0.2595
 4574TIP3    H113728   0.972   4.834   4.680 -0.3154 -0.5203 -1.7010
 4574TIP3    H213729   1.014   4.951   4.594 -1.0259  1.0400 -0.0076
 4575TIP3   OH213730   1.444   5.815   4.712  0.1747 -0.2777 -0.0254
 4575TIP3    H113731   1.533   5.781   4.729  1.6875  3.0548 -0.5670
 4575TIP3    H213732   1.456   5.879   4.642 -2.4705  1.2494  0.8125
 4576TIP3   OH213733   2.778   3.771   4.970 -0.2584 -0.0344 -0.2591
 4576TIP3    H113734   2.834   3.697   4.946 -0.3044  0.6257 -2.6553
 4576TIP3    H213735   2.839   3.840   4.994 -0.1236 -0.0824 -0.4605
 4577TIP3   OH213736   5.752   4.678   3.093  0.1483 -0.0944 -0.2642
 4577TIP3    H113737   5.847   4.690   3.102 -0.2249  2.1891  1.8673
 4577TIP3    H213738   5.737   4.586   3.113  1.9246 -0.6295 -1.1519
 4578TIP3   OH213739   5.589   1.262   3.325  0.6135 -0.3623  0.2985
 4578TIP3    H113740   5.605   1.274   3.232  1.4230 -0.1862  0.4434
 4578TIP3    H213741   5.631   1.179   3.347  1.3580  0.0988  0.6943
 4579TIP3   OH213742   2.462   3.538   3.804  0.4438  0.3174  0.2582
 4579TIP3    H113743   2.423   3.451   3.813 -0.5467  0.7531  0.3145
 4579TIP3    H213744   2.389   3.595   3.781  0.6848  1.5021  2.2144
 4580TIP3   OH213745   1.250   3.139   0.713 -0.2931 -0.3553 -0.4013
 4580TIP3    H113746   1.276   3.176   0.797 -0.8375 -2.0155  0.5533
 4580TIP3    H213747   1.330   3.138   0.660  0.4771 -0.9180  0.7421
 4581TIP3   OH213748   2.222   0.031   0.522 -0.0735 -0.7803 -0.3048
 4581TIP3    H113749   2.265   0.010   0.439  0.1512 -0.8826 -0.1643
 4581TIP3    H213750   2.286   0.083   0.570 -0.7502  0.5283 -0.7734
 4582TIP3   OH213751   4.883   2.636   1.290  0.0939  0.1016 -0.3927
 4582TIP3    H113752   4.914   2.684   1.367 -0.0014 -0.5439  0.0612
 4582TIP3    H213753   4.935   2.669   1.217  0.3489  0.5522 -0.0061
 4583TIP3   OH213754   6.265   0.285   1.440  0.6125 -0.0871 -0.1131
 4583TIP3    H113755   6.303   0.349   1.500  1.2795 -0.4728 -0.1117
 4583TIP3    H213756   6.261   0.331   1.356 -0.2164  0.4132  0.1817
 4584TIP3   OH213757   6.139   1.654   1.298  0.5247  0.0697  0.3318
 4584TIP3    H113758   6.198   1.617   1.363  1.6723  0.3035 -0.5426
 4584TIP3    H213759   6.051   1.629   1.328  1.0252  0.0023  1.8416
 4585TIP3   OH213760   3.013   3.796   1.825 -0.3230  0.0506  0.6896
 4585TIP3    H113761   2.974   3.770   1.909 -0.0523  0.2976  0.8910
 4585TIP3    H213762   3.046   3.714   1.788 -2.3118 -0.4307 -0.1717
 4586TIP3   OH213763   0.712   2.757   1.393  0.3507 -0.2117  0.0783
 4586TIP3    H113764   0.717   2.744   1.298  0.5365  3.3785 -0.5520
 4586TIP3    H213765   0.771   2.831   1.410 -1.4699  0.7939  2.6160
 4587TIP3   OH213766   1.080   4.998   2.789 -0.2085 -0.1389  0.5997
 4587TIP3    H113767   1.112   4.947   2.714 -0.8356 -0.6988  0.7048
 4587TIP3    H213768   1.123   4.958   2.865 -0.0878  0.0002  0.6044
 4588TIP3   OH213769   0.496   4.530   0.915  0.2232 -0.3974 -0.2856
 4588TIP3    H113770   0.410   4.565   0.934  0.0716 -1.0653  0.3049
 4588TIP3    H213771   0.498   4.445   0.960  0.8192 -0.8397 -1.1065
 4589TIP3   OH213772   5.320   1.395   3.788  0.2795 -0.3902 -0.3793
 4589TIP3    H113773   5.293   1.306   3.764  0.4737 -0.4506 -0.3814
 4589TIP3    H213774   5.396   1.412   3.732  0.3765 -0.3060 -0.2217
 4590TIP3   OH213775   0.374   2.845   2.474  0.4549  0.2826  0.6105
 4590TIP3    H113776   0.444   2.780   2.480 -0.1761 -0.4113  0.7110
 4590TIP3    H213777   0.312   2.806   2.412  0.4889  1.2030 -0.0104
 4591TIP3   OH213778   0.791   0.692   1.617  0.0533  0.0096 -0.0180
 4591TIP3    H113779   0.735   0.715   1.691  0.9788 -0.6055  0.9118
 4591TIP3    H213780   0.740   0.628   1.566 -1.0121  1.2263 -0.5214
 4592TIP3   OH213781   2.867   5.297   0.990  0.1378 -0.3013  0.1141
 4592TIP3    H113782   2.894   5.260   1.074 -0.0216 -2.6810 -0.7951
 4592TIP3    H213783   2.776   5.324   1.004  0.7028  1.1725  1.2089
 4593TIP3   OH213784   2.202   1.787   4.652  0.0578  0.2132  0.1381
 4593TIP3    H113785   2.278   1.788   4.594  0.3546  0.4629  0.5256
 4593TIP3    H213786   2.189   1.879   4.675  0.4032  0.0430  1.0554
 4594TIP3   OH213787   4.227   4.756   3.118 -0.1115  0.1062 -0.5617
 4594TIP3    H113788   4.230   4.852   3.114 -0.7506  0.1169 -0.7214
 4594TIP3    H213789   4.247   4.736   3.210  0.1448  0.3856 -0.5557
 4595TIP3   OH213790   3.836   4.226   2.064 -0.6373  0.6410 -0.2324
 4595TIP3    H113791   3.849   4.256   1.974  1.0582 -0.3055 -0.3357
 4595TIP3    H213792   3.748   4.189   2.064 -1.1351  1.7575 -1.1702
 4596TIP3   OH213793   2.010   4.815   3.898  0.4490  0.5204  0.3914
 4596TIP3    H113794   2.038   4.873   3.827 -1.1930 -0.1591 -0.8908
 4596TIP3    H213795   1.953   4.870   3.952  0.0771  0.5263  0.0075
 4597TIP3   OH213796   3.787   5.877   4.855 -0.5681 -0.2957 -0.2980
 4597TIP3    H113797   3.694   5.877   4.877 -1.3241  2.0173 -2.8471
 4597TIP3    H213798   3.790   5.913   4.766  2.7354 -0.9797 -0.5816
 4598TIP3   OH213799   5.621   5.007   2.466  0.1029 -0.3146  0.1350
 4598TIP3    H113800   5.645   5.097   2.447  1.0209 -0.9342 -1.8844
 4598TIP3    H213801   5.664   4.988   2.550 -0.0942  1.0995  0.5702
 4599TIP3   OH213802   5.354   4.642   4.559 -0.1198  0.0590 -0.8109
 4599TIP3    H113803   5.416   4.671   4.492 -0.4313  1.0943 -0.6725
 4599TIP3    H213804   5.277   4.698   4.547 -0.3212  0.0193  0.1862
 4600TIP3   OH213805   0.131   4.810   4.459  0.1568 -0.5251 -0.5716
 4600TIP3    H113806   0.082   4.754   4.519 -1.2593 -0.2213 -1.3878
 4600TIP3    H213807   0.145   4.755   4.381  2.2144 -1.0091  0.0765
 4601TIP3   OH213808   5.167   0.555   4.259 -0.4534  0.2285  0.0514
 4601TIP3    H113809   5.126   0.493   4.199 -0.6869  0.0157  0.4216
 4601TIP3    H213810   5.186   0.503   4.337 -1.1034  0.7302  0.5562
 4602TIP3   OH213811   4.292   3.907   3.075  0.5309 -0.7464  0.8025
 4602TIP3    H113812   4.368   3.869   3.032  0.8635 -1.3818  1.9046
 4602TIP3    H213813   4.316   3.997   3.092  1.0196 -0.9330  1.1043
 4603TIP3   OH213814   4.213   1.972   4.091 -0.3710  0.5026 -0.3923
 4603TIP3    H113815   4.275   1.926   4.146  1.0620 -0.2340 -2.5024
 4603TIP3    H213816   4.175   1.904   4.035 -1.1713  1.3229 -0.8739
 4604TIP3   OH213817   1.694   5.904   5.165  0.1998  0.4314 -0.0173
 4604TIP3    H113818   1.706   5.896   5.071  3.1791 -1.5885  0.3988
 4604TIP3    H213819   1.658   5.820   5.192 -3.4666  1.9408  0.4855
 4605TIP3   OH213820   6.093   1.708   1.847 -0.1460  0.0639 -0.0814
 4605TIP3    H113821   6.090   1.673   1.757 -0.6013  1.0164 -0.4430
 4605TIP3    H213822   6.138   1.792   1.838  0.7964 -0.3381  0.7607
 4606TIP3   OH213823   1.649   2.035   4.098 -0.3294 -0.1897 -0.0043
 4606TIP3    H113824   1.628   1.946   4.071  0.6126 -0.4623  0.1122
 4606TIP3    H213825   1.665   2.082   4.016 -0.2974 -0.2689 -0.0437
 4607TIP3   OH213826   1.127   0.382   2.607  0.3342  0.7994  0.1320
 4607TIP3    H113827   1.033   0.386   2.623  0.0900  0.4840 -1.1141
 4607TIP3    H213828   1.145   0.289   2.593  0.5680  1.0137 -1.0677
 4608TIP3   OH213829   1.793   0.428   3.492 -0.2562 -0.0455  0.0881
 4608TIP3    H113830   1.833   0.487   3.556 -1.4623  0.2131  0.6226
 4608TIP3    H213831   1.747   0.362   3.545  1.0137 -1.4713 -0.4917
 4609TIP3   OH213832   5.665   1.792   0.206  0.1665  0.2324  0.7942
 4609TIP3    H113833   5.756   1.765   0.215  0.3357 -0.2324 -1.5337
 4609TIP3    H213834   5.669   1.873   0.155 -0.6964  0.7600  1.5318
 4610TIP3   OH213835   2.874   3.763   4.598  0.5057  0.2961  0.0644
 4610TIP3    H113836   2.959   3.800   4.623  0.4493  0.9999 -0.7252
 4610TIP3    H213837   2.823   3.839   4.568  0.2622 -0.3807 -1.2673
 4611TIP3   OH213838   5.929   5.503   0.258 -0.3292 -0.2838 -0.0694
 4611TIP3    H113839   5.993   5.437   0.234 -1.3903 -1.2661 -0.2597
 4611TIP3    H213840   5.888   5.470   0.338  0.3774  1.0279  0.8804
 4612TIP3   OH213841   3.083   2.229   4.171  0.1755  0.2104 -0.1754
 4612TIP3    H113842   3.143   2.281   4.119  1.1712  0.5961  1.2883
 4612TIP3    H213843   3.130   2.213   4.253 -1.0572 -0.9423  0.3495
 4613TIP3   OH213844   1.736   1.404   4.460  0.2897 -0.0561  0.2603
 4613TIP3    H113845   1.770   1.320   4.491  1.0039  0.5438  1.1358
 4613TIP3    H213846   1.813   1.459   4.449 -0.2642  0.8483  0.7860
 4614TIP3   OH213847   3.317   1.100   0.031 -0.4710  0.0899  0.0555
 4614TIP3    H113848   3.279   1.173  -0.018 -0.8156 -1.0078 -1.3520
 4614TIP3    H213849   3.409   1.124   0.041 -0.7631  1.1278  0.4131
 4615TIP3   OH213850   0.211   2.600   3.657  0.3133  0.1969  0.2449
 4615TIP3    H113851   0.132   2.583   3.708  0.6655 -2.2840  0.0917
 4615TIP3    H213852   0.276   2.541   3.693  1.8204  1.4133 -0.3617
 4616TIP3   OH213853   2.869   1.657   1.954  0.1767  0.2098  0.0113
 4616TIP3    H113854   2.812   1.581   1.940 -0.3493  0.8450 -1.5717
 4616TIP3    H213855   2.918   1.636   2.033 -0.2452 -1.5955 -0.1570
 4617TIP3   OH213856   0.417   4.924   3.317  0.2896 -0.0428  0.1268
 4617TIP3    H113857   0.427   4.833   3.347 -0.8654 -0.4645 -0.7040
 4617TIP3    H213858   0.502   4.947   3.281  1.4132  0.1167  2.6596
 4618TIP3   OH213859   2.819   0.908   2.578  0.5501 -0.3832 -0.1321
 4618TIP3    H113860   2.727   0.884   2.569  0.4277  0.0106  0.0531
 4618TIP3    H213861   2.819   1.003   2.589  0.9176 -0.4576  0.6141
 4619TIP3   OH213862   2.997   1.665   2.211  0.8890  0.1075 -0.0628
 4619TIP3    H113863   2.989   1.760   2.198  1.5319  0.2319  0.3808
 4619TIP3    H213864   3.061   1.656   2.281 -2.4143 -0.4872  3.2114
 4620TIP3   OH213865   5.458   4.438   1.190 -0.6064 -0.5242  0.2091
 4620TIP3    H113866   5.391   4.443   1.121  0.0181  1.7012 -0.3245
 4620TIP3    H213867   5.532   4.487   1.154  0.0691 -0.0859  2.1150
 4621TIP3   OH213868   5.763   3.646   4.977  0.3102 -0.3361 -0.5914
 4621TIP3    H113869   5.704   3.623   5.049  0.8196 -1.1583 -0.4220
 4621TIP3    H213870   5.785   3.738   4.993  0.3384 -0.4816  0.2585
 4622TIP3   OH213871   4.805   2.577   4.894 -0.2429  0.1868 -0.1932
 4622TIP3    H113872   4.841   2.519   4.827  0.8072  0.9419 -0.3014
 4622TIP3    H213873   4.787   2.519   4.968  2.0501 -0.1412  0.2016
 4623TIP3   OH213874   4.002   3.644   1.129 -0.1451 -0.3588 -0.0752
 4623TIP3    H113875   3.918   3.655   1.174 -1.1492 -2.0330 -1.4405
 4623TIP3    H213876   4.007   3.551   1.110  1.2065 -0.0136 -1.6070
 4624TIP3   OH213877   6.113   0.169   5.119  0.4716 -0.4459  0.1704
 4624TIP3    H113878   6.134   0.084   5.082 -0.0351  0.0400 -1.2848
 4624TIP3    H213879   6.048   0.207   5.059  0.1026  0.6426  1.2067
 4625TIP3   OH213880   2.153   0.747   4.062 -0.2883 -0.6282  0.1203
 4625TIP3    H113881   2.241   0.730   4.094 -0.2554 -0.7366 -0.0270
 4625TIP3    H213882   2.144   0.842   4.064 -0.3614 -0.6470  0.6498
 4626TIP3   OH213883   0.452   3.170   2.700  0.0536 -0.2574 -0.0947
 4626TIP3    H113884   0.502   3.124   2.633 -2.1127 -3.3705  0.2034
 4626TIP3    H213885   0.498   3.151   2.782  0.3073 -0.0939 -0.1972
 4627TIP3   OH213886   0.115   4.027   4.322 -0.3856  0.0494 -0.3187
 4627TIP3    H113887   0.134   4.060   4.234  0.0740 -0.0519 -0.2596
 4627TIP3    H213888   0.190   4.055   4.375  0.5212 -1.9173 -0.4724
 4628TIP3   OH213889   1.703   5.405   2.489  0.0416  0.5449  0.2762
 4628TIP3    H113890   1.770   5.348   2.452  0.2352  0.9661 -0.0285
 4628TIP3    H213891   1.695   5.477   2.427 -1.1600  0.1759 -0.0248
 4629TIP3   OH213892   0.178   5.856   3.833  0.1338 -0.7480  0.6109
 4629TIP3    H113893   0.251   5.867   3.894  0.6602  0.2638 -0.1642
 4629TIP3    H213894   0.201   5.912   3.758 -1.9250  0.4842  0.8069
 4630TIP3   OH213895   5.587   0.813   3.486 -0.5365  0.0151 -0.0268
 4630TIP3    H113896   5.633   0.737   3.524  0.2851 -0.5375 -2.0117
 4630TIP3    H213897   5.541   0.852   3.560  2.4194  0.0727  1.9765
 4631TIP3   OH213898   2.957   5.832   1.747  0.3813  0.1733  0.2379
 4631TIP3    H113899   2.991   5.874   1.668  0.8747 -1.1917 -0.3101
 4631TIP3    H213900   2.862   5.837   1.738  0.4100 -1.1050 -1.1105
 4632TIP3   OH213901   1.115   4.554   0.335  0.0659 -0.2897 -0.0438
 4632TIP3    H113902   1.035   4.516   0.370 -0.2404 -1.3245 -1.7623
 4632TIP3    H213903   1.162   4.480   0.296  1.4270  0.4483  0.1145
 4633TIP3   OH213904   2.767   5.534   1.338  0.0408  0.2326  1.0661
 4633TIP3    H113905   2.725   5.467   1.391 -0.1450 -0.7115 -0.2382
 4633TIP3    H213906   2.699   5.599   1.322  0.2214  0.7699  2.3275
 4634TIP3   OH213907   1.115   3.412   1.894 -0.1408 -0.1131  0.2928
 4634TIP3    H113908   1.119   3.382   1.803 -0.5266 -0.7390  0.4783
 4634TIP3    H213909   1.022   3.415   1.914 -0.1258  1.3305  0.2483
 4635TIP3   OH213910   1.599   3.597   2.061  0.5692  0.0831 -0.8866
 4635TIP3    H113911   1.532   3.642   2.010  0.7456  0.8737 -0.4330
 4635TIP3    H213912   1.561   3.588   2.148  1.2355  0.9911 -0.4893
 4636TIP3   OH213913   0.406   4.945   4.454 -0.0673 -0.2911 -0.1215
 4636TIP3    H113914   0.429   5.036   4.438 -0.6796  0.1382  1.3410
 4636TIP3    H213915   0.313   4.940   4.432  0.3664 -1.0391 -1.9994
 4637TIP3   OH213916   2.477   1.252   2.733  0.1079  0.7231 -0.0308
 4637TIP3    H113917   2.565   1.219   2.715  0.5645  1.6354  0.4458
 4637TIP3    H213918   2.471   1.332   2.681  0.1902  1.5535  1.1896
 4638TIP3   OH213919   4.340   3.615   2.280  0.5377 -0.6748 -0.2948
 4638TIP3    H113920   4.336   3.703   2.316  0.3772 -0.6325 -0.4176
 4638TIP3    H213921   4.424   3.611   2.234  0.5404 -0.5839 -0.2972
 4639TIP3   OH213922   4.967   5.547   3.159  0.1487 -0.1118 -0.0732
 4639TIP3    H113923   5.027   5.586   3.095  1.0320  2.6588  2.2668
 4639TIP3    H213924   5.020   5.538   3.238 -1.6956 -0.7078  1.1407
 4640TIP3   OH213925   1.989   2.208   2.306 -0.0349  0.2094 -0.4833
 4640TIP3    H113926   1.899   2.191   2.334 -0.6185  0.9877 -1.8129
 4640TIP3    H213927   1.987   2.296   2.269  2.2017  2.1568  3.3470
 4641TIP3   OH213928   0.713   5.598   4.641  0.4837  0.1684 -0.3776
 4641TIP3    H113929   0.799   5.601   4.598  0.7470 -1.4401 -0.0192
 4641TIP3    H213930   0.661   5.665   4.596  1.1880 -0.4668 -2.2185
 4642TIP3   OH213931   1.736   2.204   3.186 -0.5888  0.7095  0.4590
 4642TIP3    H113932   1.822   2.243   3.200  1.0401 -1.8489 -1.5058
 4642TIP3    H213933   1.704   2.246   3.106 -0.2750  0.2848  0.1088
 4643TIP3   OH213934   5.935   5.299   3.181  0.5342 -0.6366 -0.3116
 4643TIP3    H113935   5.888   5.357   3.242  2.2086 -0.6215  1.0215
 4643TIP3    H213936   5.905   5.211   3.205  1.2733 -0.6424  0.6656
 4644TIP3   OH213937   2.462   4.327   2.068 -0.0643 -0.0352 -0.5927
 4644TIP3    H113938   2.552   4.299   2.053 -0.0228 -0.0690 -0.2833
 4644TIP3    H213939   2.470   4.414   2.109 -0.1645 -0.1860 -0.2513
 4645TIP3   OH213940   2.555   4.796   0.200  0.1562  0.0888 -0.4631
 4645TIP3    H113941   2.481   4.736   0.212  0.7492 -0.7677 -0.9286
 4645TIP3    H213942   2.615   4.774   0.271 -0.2447  1.1314  0.2152
 4646TIP3   OH213943   4.177   0.147   4.297 -0.4921  0.1354 -0.2133
 4646TIP3    H113944   4.113   0.217   4.285  0.5701  1.2044  0.1624
 4646TIP3    H213945   4.166   0.120   4.388  1.0375  1.8538  0.5399
 4647TIP3   OH213946   5.968   5.865   2.946  0.1132  0.0726 -0.3172
 4647TIP3    H113947   5.879   5.849   2.915  0.2963  0.2549 -0.9589
 4647TIP3    H213948   6.021   5.800   2.900  0.1845 -0.6766  0.7997
 4648TIP3   OH213949   3.972   0.637   4.473  0.6897  0.0402 -0.4825
 4648TIP3    H113950   3.882   0.608   4.459  0.3728 -0.5900  2.2393
 4648TIP3    H213951   3.964   0.720   4.519  1.3842 -0.7522  1.1944
 4649TIP3   OH213952   3.942   0.898   2.466 -0.6384  0.2975 -0.1567
 4649TIP3    H113953   3.947   0.813   2.511  0.5092  0.3557 -0.1411
 4649TIP3    H213954   3.948   0.876   2.373 -0.7850  0.3231 -0.1708
 4650TIP3   OH213955   0.796   4.496   2.428 -0.6564  0.0212  0.9689
 4650TIP3    H113956   0.843   4.472   2.508  0.0036  2.6178  1.4623
 4650TIP3    H213957   0.711   4.529   2.458 -0.1459  1.6614  0.7456
 4651TIP3   OH213958   3.853   5.019   0.594 -0.5799 -0.0776 -0.2615
 4651TIP3    H113959   3.859   5.112   0.569 -1.6588  0.0604 -0.0563
 4651TIP3    H213960   3.824   4.975   0.515 -0.1711 -0.2286 -0.3286
 4652TIP3   OH213961   3.257   5.805   3.224 -0.0547 -0.4366 -0.3541
 4652TIP3    H113962   3.234   5.759   3.143 -0.9257  0.0304 -0.3811
 4652TIP3    H213963   3.352   5.796   3.230  0.0279 -0.4484 -1.4444
 4653TIP3   OH213964   5.201   0.808   4.354 -0.0595  0.2976  0.1485
 4653TIP3    H113965   5.193   0.718   4.321 -0.1862  0.8604 -1.4031
 4653TIP3    H213966   5.229   0.797   4.445 -2.8374 -1.3778  0.9153
 4654TIP3   OH213967   0.537   5.703   0.559 -0.0185  1.0128  0.0148
 4654TIP3    H113968   0.508   5.792   0.538  0.0760  1.2020  0.6764
 4654TIP3    H213969   0.502   5.686   0.646 -1.9706 -0.4564 -0.9917
 4655TIP3   OH213970   1.993   3.772   1.254 -0.7049 -0.2759 -0.3051
 4655TIP3    H113971   1.936   3.806   1.323 -1.1270 -1.5594  0.0022
 4655TIP3    H213972   2.077   3.758   1.297 -0.0549  1.7745 -0.7971
 4656TIP3   OH213973   2.261   5.156   2.592 -0.1180 -0.0667  0.1042
 4656TIP3    H113974   2.188   5.094   2.596  0.2330 -0.4216  1.6273
 4656TIP3    H213975   2.340   5.102   2.592  0.1676  0.3268 -1.0131
 4657TIP3   OH213976   3.091   3.520   1.139 -0.2733  0.4324  0.2307
 4657TIP3    H113977   3.008   3.566   1.127  0.2902  1.3624 -0.1806
 4657TIP3    H213978   3.081   3.475   1.222 -0.4927  2.0777  1.1373
 4658TIP3   OH213979   1.154   5.069   1.525  0.3606 -0.1887  0.4174
 4658TIP3    H113980   1.221   5.002   1.525  0.0090 -0.5648 -0.8711
 4658TIP3    H213981   1.095   5.044   1.596 -1.1649 -2.7305 -1.5825
 4659TIP3   OH213982   1.673   5.904   3.565  0.2160  0.5528  0.3891
 4659TIP3    H113983   1.766   5.911   3.541  0.4414  0.7549  1.2557
 4659TIP3    H213984   1.663   5.965   3.638 -0.0349 -1.0841  1.8103
 4660TIP3   OH213985   4.757   0.122   4.750  0.2194  0.0125  0.4515
 4660TIP3    H113986   4.702   0.046   4.734 -0.4515  0.2380  1.5484
 4660TIP3    H213987   4.776   0.118   4.844 -1.8519  2.4736  1.1032
 4661TIP3   OH213988   3.895   5.380   3.654 -0.0675  0.1254 -0.2423
 4661TIP3    H113989   3.807   5.343   3.644  0.0887 -1.4564  2.9848
 4661TIP3    H213990   3.884   5.474   3.637 -2.4148 -0.0066  0.2903
 4662TIP3   OH213991   5.717   3.666   1.850  0.0503 -0.5014  0.5541
 4662TIP3    H113992   5.687   3.682   1.760 -0.9025 -1.1640  0.7470
 4662TIP3    H213993   5.642   3.627   1.894 -0.4193  2.1489  2.3755
 4663TIP3   OH213994   5.507   5.385   4.100  0.0011 -0.3056 -0.1498
 4663TIP3    H113995   5.595   5.395   4.065  0.1844  0.0593  0.4145
 4663TIP3    H213996   5.450   5.397   4.025  0.3462  1.5325 -0.1460
 4664TIP3   OH213997   4.032   2.634   3.486  0.2010  0.4141 -0.0198
 4664TIP3    H113998   4.059   2.542   3.484 -0.6921  0.0935  1.3279
 4664TIP3    H213999   4.079   2.671   3.560  0.0293  0.8781 -0.1408
 4665TIP3   OH214000   5.499   0.765   3.203 -0.0887 -0.4980 -0.1032
 4665TIP3    H114001   5.563   0.815   3.152  0.8267  0.2771  1.7014
 4665TIP3    H214002   5.534   0.767   3.292 -2.2894 -0.6598  0.8101
 4666TIP3   OH214003   6.013   0.542   1.606 -0.3565  0.2533 -0.4141
 4666TIP3    H114004   6.098   0.543   1.563  0.0735  0.3960  0.4310
 4666TIP3    H214005   5.999   0.451   1.631 -0.2630  0.3007 -0.1867
 4667TIP3   OH214006   0.478   4.012   2.194  0.3408 -0.0215  0.2209
 4667TIP3    H114007   0.523   3.989   2.113 -3.4133 -2.8193 -1.3613
 4667TIP3    H214008   0.467   4.107   2.189  1.5609  0.0669 -1.7592
 4668TIP3   OH214009   3.121   3.841   4.667 -0.6314  0.4717 -0.1162
 4668TIP3    H114010   3.149   3.855   4.758 -1.1083  0.8189 -0.0173
 4668TIP3    H214011   3.202   3.826   4.619 -0.3726  0.3035  0.3654
 4669TIP3   OH214012   2.529   4.046   4.378 -0.2778  0.0542  1.0134
 4669TIP3    H114013   2.491   4.100   4.447 -1.0970 -0.7559  1.2204
 4669TIP3    H214014   2.523   4.100   4.299  1.5469  1.3662  1.7059
 4670TIP3   OH214015   5.081   5.671   1.859 -0.0589  0.0119  0.2305
 4670TIP3    H114016   5.064   5.649   1.768  1.2080  0.9061 -0.2626
 4670TIP3    H214017   5.108   5.763   1.857  0.8111 -0.1816  1.3821
 4671TIP3   OH214018   3.599   4.368   2.758 -0.2085  0.6311 -0.1427
 4671TIP3    H114019   3.628   4.390   2.846 -1.7834  1.0129  0.3122
 4671TIP3    H214020   3.603   4.273   2.754  0.2020  0.6330  0.2270
 4672TIP3   OH214021   1.372   0.395   2.916 -0.5634  0.0166  0.1869
 4672TIP3    H114022   1.420   0.451   2.855 -1.7187 -0.6255 -1.3954
 4672TIP3    H214023   1.339   0.455   2.983 -2.3750  1.4621 -1.8284
 4673TIP3   OH214024   5.352   0.725   2.367 -0.0241 -0.1321 -0.0231
 4673TIP3    H114025   5.297   0.719   2.289 -0.6845 -0.1034  0.4271
 4673TIP3    H214026   5.291   0.714   2.440  0.5264  0.2103  0.5019
 4674TIP3   OH214027   2.613   2.289   4.109  0.0983  0.2572  0.3305
 4674TIP3    H114028   2.681   2.356   4.120  1.3426 -0.9676  0.3432
 4674TIP3    H214029   2.535   2.339   4.084  0.9709  1.7116  0.3529
 4675TIP3   OH214030   4.379   3.134   4.597  0.1187 -0.5366  0.1845
 4675TIP3    H114031   4.452   3.112   4.655  0.2972 -0.5384 -0.0381
 4675TIP3    H214032   4.319   3.060   4.605  0.0710 -0.4661  0.4810
 4676TIP3   OH214033   0.237   0.257   4.753 -0.3957 -0.2915 -0.2593
 4676TIP3    H114034   0.298   0.259   4.679  1.5590  0.8673  1.2793
 4676TIP3    H214035   0.219   0.164   4.766  0.9111 -0.6529 -0.8747
 4677TIP3   OH214036   4.404   0.674   4.848 -0.1402 -0.0584 -0.0508
 4677TIP3    H114037   4.441   0.658   4.935 -0.9260 -0.2096  0.2626
 4677TIP3    H214038   4.417   0.592   4.801 -0.1797 -0.1487  0.0947
 4678TIP3   OH214039   5.672   5.836   0.358 -0.5469  0.3754 -0.1576
 4678TIP3    H114040   5.672   5.749   0.319 -2.5799  0.2779 -0.0644
 4678TIP3    H214041   5.759   5.845   0.397 -0.9259 -2.4563  1.6681
 4679TIP3   OH214042   0.500   3.209   2.000 -0.2591  0.1996 -0.0840
 4679TIP3    H114043   0.486   3.120   1.967 -1.9397  0.5075 -0.2956
 4679TIP3    H214044   0.509   3.263   1.921  0.6346  0.2459  0.0421
 4680TIP3   OH214045   1.306   0.749   1.590 -0.0090 -0.4195 -0.1495
 4680TIP3    H114046   1.276   0.747   1.499 -1.4039 -0.3239  0.2897
 4680TIP3    H214047   1.280   0.665   1.627  1.4815 -0.8877 -0.0968
 4681TIP3   OH214048   6.295   3.099   4.274 -0.2737  0.5642  0.4163
 4681TIP3    H114049   6.212   3.139   4.301  0.2835  1.0695  1.4363
 4681TIP3    H214050   6.279   3.005   4.279 -1.1577  0.6397 -0.6107
 4682TIP3   OH214051   1.945   4.385   3.224 -0.0559 -0.4026  0.1246
 4682TIP3    H114052   1.872   4.402   3.283 -0.1828  1.1193 -0.4235
 4682TIP3    H214053   1.922   4.302   3.181 -1.4037 -0.0152  0.0500
 4683TIP3   OH214054   1.691   0.611   1.174 -0.0866 -0.2933  0.3252
 4683TIP3    H114055   1.711   0.702   1.193 -0.7369 -0.1978  0.5933
 4683TIP3    H214056   1.631   0.614   1.100 -1.4971 -0.3909  1.4232
 4684TIP3   OH214057   0.721   3.306   3.266  0.0933  0.0680 -0.3650
 4684TIP3    H114058   0.793   3.367   3.284 -0.5933  0.5788  0.7538
 4684TIP3    H214059   0.701   3.267   3.351 -1.9302  1.0364 -0.3324
 4685TIP3   OH214060   0.717   5.454   0.189  0.4661  0.2085 -0.1564
 4685TIP3    H114061   0.740   5.414   0.273 -0.1310 -2.1417 -1.0431
 4685TIP3    H214062   0.639   5.506   0.208 -0.7129 -1.6789  0.4802
 4686TIP3   OH214063   5.630   0.673   3.723  0.1226  0.0737  0.0776
 4686TIP3    H114064   5.644   0.764   3.750  0.6072  0.4055 -1.2168
 4686TIP3    H214065   5.683   0.622   3.784 -0.3140  0.6325  0.9474
 4687TIP3   OH214066   6.058   3.897   0.930  0.4175 -0.7147 -0.5043
 4687TIP3    H114067   6.049   3.829   0.997  1.1344 -0.4197 -0.0862
 4687TIP3    H214068   5.971   3.935   0.922  0.4422 -0.3462  0.7249
 4688TIP3   OH214069   0.495   4.517   2.180 -0.1755  0.0384  0.1265
 4688TIP3    H114070   0.589   4.525   2.192 -0.2751  2.0980 -0.0906
 4688TIP3    H214071   0.473   4.583   2.114 -2.2069  2.1387  2.6502
 4689TIP3   OH214072   0.717   2.876   3.681 -0.2849  0.0655 -0.2368
 4689TIP3    H114073   0.683   2.876   3.770 -1.6289  0.2022 -0.7278
 4689TIP3    H214074   0.737   2.784   3.663 -1.1339 -0.1416 -0.1846
 4690TIP3   OH214075   1.035   1.185   4.884  0.0771 -0.2712  0.4099
 4690TIP3    H114076   1.112   1.199   4.829 -0.8189  0.7866 -0.6152
 4690TIP3    H214077   1.056   1.106   4.934  1.2719 -0.7803 -0.8185
 4691TIP3   OH214078   2.848   2.607   4.826 -0.5042 -0.1084  0.3650
 4691TIP3    H114079   2.817   2.649   4.746  0.8650  0.4288  0.0775
 4691TIP3    H214080   2.840   2.513   4.808 -4.2472 -0.1137  1.2762
 4692TIP3   OH214081   6.271   0.180   4.203  0.6024  0.0828  0.0449
 4692TIP3    H114082   6.346   0.198   4.146 -1.0603  3.1350 -1.4732
 4692TIP3    H214083   6.203   0.147   4.144 -0.6024  1.6256  0.4889
 4693TIP3   OH214084   1.450   2.506   1.608 -0.4213  0.0120  0.4415
 4693TIP3    H114085   1.482   2.596   1.612  0.8262 -0.2768 -1.6512
 4693TIP3    H214086   1.355   2.514   1.619 -0.6113  1.8649 -1.8085
 4694TIP3   OH214087   5.836   2.685   2.874  0.0068  0.1860 -0.8550
 4694TIP3    H114088   5.743   2.707   2.866 -0.1388 -0.7953 -2.3313
 4694TIP3    H214089   5.842   2.629   2.951 -0.2454  1.9812  0.5398
 4695TIP3   OH214090   5.156   5.292   1.453 -0.4153 -0.1240  0.4534
 4695TIP3    H114091   5.181   5.199   1.456  1.5912  0.3699  0.3977
 4695TIP3    H214092   5.152   5.318   1.545 -1.9848 -0.4696  0.5167
 4696TIP3   OH214093   5.508   2.580   3.959 -0.4082  0.3225 -0.2234
 4696TIP3    H114094   5.573   2.591   3.890  0.1180  0.9094  0.3631
 4696TIP3    H214095   5.489   2.669   3.989 -2.0371  0.2396 -0.8870
 4697TIP3   OH214096   3.830   1.937   4.822 -0.3173  0.2140  0.2081
 4697TIP3    H114097   3.901   1.954   4.760  1.0550  1.0842  1.9204
 4697TIP3    H214098   3.773   2.013   4.813 -1.1113 -0.5028 -1.2004
 4698TIP3   OH214099   2.376   0.843   3.622 -0.0774  0.3577  0.1830
 4698TIP3    H114100   2.339   0.891   3.695 -2.0046  1.9859 -1.7399
 4698TIP3    H214101   2.303   0.829   3.562  1.6870  0.4152 -2.1208
 4699TIP3   OH214102   2.412   5.309   2.336  0.7485 -0.0783  0.0810
 4699TIP3    H114103   2.370   5.305   2.422 -0.2901 -1.6554 -0.4599
 4699TIP3    H214104   2.468   5.232   2.333 -1.3973 -1.7108 -1.6691
 4700TIP3   OH214105   5.909   2.672   2.206 -0.3490  0.2247 -0.1312
 4700TIP3    H114106   5.901   2.690   2.112 -1.9002  1.1665  0.1486
 4700TIP3    H214107   5.979   2.730   2.235  0.2311 -0.1669 -0.7126
 4701TIP3   OH214108   5.602   2.114   3.127  0.3016 -0.0798 -0.2825
 4701TIP3    H114109   5.647   2.037   3.161 -1.0540 -0.1820  1.3725
 4701TIP3    H214110   5.512   2.106   3.158 -0.3504  1.2139 -1.6950
 4702TIP3   OH214111   6.344   0.577   0.417  0.0700 -0.6862  0.9321
 4702TIP3    H114112   6.357   0.668   0.445 -1.6648 -0.4998  1.2162
 4702TIP3    H214113   6.266   0.549   0.464  0.6065 -2.3496  0.8688
 4703TIP3   OH214114   2.338   1.774   2.113  0.3427 -0.2262 -0.0387
 4703TIP3    H114115   2.274   1.711   2.147  1.1049 -0.3655  1.1890
 4703TIP3    H214116   2.355   1.745   2.024 -0.2532 -1.0202  0.0970
 4704TIP3   OH214117   1.964   1.593   2.897  0.1444  0.5927  0.3232
 4704TIP3    H114118   1.871   1.573   2.902  0.0732  1.0405  0.8479
 4704TIP3    H214119   2.005   1.533   2.959 -0.0356  1.7968  1.6622
 4705TIP3   OH214120   0.422   2.310   3.293  0.2056 -0.0309 -0.0317
 4705TIP3    H114121   0.378   2.395   3.295 -1.3060 -0.7743 -0.0920
 4705TIP3    H214122   0.401   2.274   3.207  1.6502 -0.0779 -0.3896
 4706TIP3   OH214123   3.507   2.884   0.181  0.0537 -0.3119 -0.4299
 4706TIP3    H114124   3.444   2.879   0.253 -1.1429 -2.1563 -1.5054
 4706TIP3    H214125   3.484   2.964   0.134  0.3147  0.4695  0.7361
 4707TIP3   OH214126   2.724   2.650   3.305 -0.6619  0.9368 -0.2880
 4707TIP3    H114127   2.794   2.584   3.306 -0.5450  1.0279 -1.5308
 4707TIP3    H214128   2.644   2.600   3.320 -0.5689  0.5099 -1.1709
 4708TIP3   OH214129   1.948   0.188   2.588 -0.2919 -0.3706 -0.4274
 4708TIP3    H114130   1.879   0.234   2.636 -1.1682 -0.6560 -1.3738
 4708TIP3    H214131   2.001   0.146   2.657 -2.1625 -1.6886  0.3052
 4709TIP3   OH214132   6.111   2.738   4.814  0.2917 -0.0819 -0.0374
 4709TIP3    H114133   6.161   2.820   4.811  0.5065 -0.2472 -1.6368
 4709TIP3    H214134   6.090   2.727   4.907  2.2854  0.5538  0.5566
 4710TIP3   OH214135   0.503   3.923   0.521  0.4568  0.5016  0.3706
 4710TIP3    H114136   0.477   3.906   0.611  0.4915  2.1312  0.7130
 4710TIP3    H214137   0.593   3.890   0.515  0.1300 -0.4948  0.6271
 4711TIP3   OH214138   1.563   1.011   2.801  0.0020  0.3509 -0.2310
 4711TIP3    H114139   1.495   1.078   2.792 -0.6233 -0.1485  0.5832
 4711TIP3    H214140   1.527   0.934   2.758 -0.5784 -0.3298  1.3876
 4712TIP3   OH214141   2.196   5.664   0.247 -0.0940  0.3630 -0.0918
 4712TIP3    H114142   2.234   5.583   0.213 -0.6184 -0.3233  0.9273
 4712TIP3    H214143   2.121   5.636   0.299 -0.8330  1.5699 -0.4674
 4713TIP3   OH214144   1.245   1.370   4.938 -0.5948 -0.0338  0.0717
 4713TIP3    H114145   1.225   1.331   5.023 -0.3979  1.9463  1.0842
 4713TIP3    H214146   1.340   1.377   4.936 -0.3090 -2.8321 -1.6779
 4714TIP3   OH214147   2.270   0.730   1.426 -0.1544 -0.0379  0.1192
 4714TIP3    H114148   2.270   0.818   1.463 -0.2699  0.7327 -1.6151
 4714TIP3    H214149   2.350   0.726   1.372  0.4793 -1.4256  1.0863
 4715TIP3   OH214150   4.069   1.051   0.517  0.3648 -0.4772 -0.2101
 4715TIP3    H114151   4.125   1.056   0.439 -0.5834  0.1398 -0.8820
 4715TIP3    H214152   4.042   1.142   0.532  0.3126 -0.6334  0.6852
 4716TIP3   OH214153   4.842   0.737   0.615  0.3689 -0.0631  0.1405
 4716TIP3    H114154   4.905   0.771   0.552  0.5089  3.3940  1.8951
 4716TIP3    H214155   4.762   0.723   0.564  1.7320 -2.0432 -1.6168
 4717TIP3   OH214156   5.792   2.422   4.038 -0.3257 -0.2057 -0.1694
 4717TIP3    H114157   5.697   2.434   4.044 -0.4808 -1.7274  1.0300
 4717TIP3    H214158   5.818   2.470   3.959 -1.9354  1.0728  0.0356
 4718TIP3   OH214159   0.525   4.853   5.039  0.0005 -0.4589 -0.3121
 4718TIP3    H114160   0.617   4.856   5.014 -0.1838 -1.4305 -1.1814
 4718TIP3    H214161   0.524   4.800   5.119  0.2165 -0.3021 -0.2052
 4719TIP3   OH214162   5.214   2.666   2.910 -0.4669 -0.1871 -0.4495
 4719TIP3    H114163   5.266   2.589   2.932 -2.3474 -0.8227  2.3789
 4719TIP3    H214164   5.126   2.645   2.942 -1.3731  2.5956 -0.8465
 4720TIP3   OH214165   5.637   3.999   3.251  0.5241  0.8685 -0.1301
 4720TIP3    H114166   5.657   4.057   3.177  1.9267  0.0561 -0.4104
 4720TIP3    H214167   5.702   4.022   3.317  0.5720  0.1842  0.0679
 4721TIP3   OH214168   3.758   3.289   0.596 -0.1515  0.0256  0.3875
 4721TIP3    H114169   3.827   3.245   0.547  1.1148  2.3860 -0.0858
 4721TIP3    H214170   3.782   3.276   0.688 -0.0500 -0.6129  0.2742
 4722TIP3   OH214171   4.854   2.066   1.864  0.0094 -0.0947 -0.1060
 4722TIP3    H114172   4.895   1.993   1.818 -1.2361 -0.4234 -0.7375
 4722TIP3    H214173   4.902   2.143   1.834  0.7470 -0.5587 -0.1262
 4723TIP3   OH214174   4.204   1.757   3.874 -0.5513  0.2183  0.3580
 4723TIP3    H114175   4.273   1.690   3.874  0.1187  0.8870  0.1901
 4723TIP3    H214176   4.160   1.746   3.790  0.0286  0.4454  0.0175
 4724TIP3   OH214177   4.131   3.964   3.600  0.0647 -0.1346 -0.0933
 4724TIP3    H114178   4.098   4.027   3.536 -0.2576  0.1853  0.3843
 4724TIP3    H214179   4.226   3.964   3.588 -0.0760 -1.1123 -1.5300
 4725TIP3   OH214180   4.737   4.897   1.256 -0.2468 -0.1920 -0.4033
 4725TIP3    H114181   4.762   4.966   1.317 -1.3479 -1.8270  2.0434
 4725TIP3    H214182   4.646   4.914   1.236 -1.3252 -2.1759  2.2303
 4726TIP3   OH214183   1.203   2.059   3.846 -0.3084 -0.1686 -0.3627
 4726TIP3    H114184   1.226   1.967   3.845 -0.7501 -0.2805 -1.0412
 4726TIP3    H214185   1.125   2.065   3.790  0.5655  0.8307 -1.5211
 4727TIP3   OH214186   2.478   4.978   2.539  0.2170  0.0737 -0.7526
 4727TIP3    H114187   2.529   4.917   2.593 -0.8327 -0.5681 -0.4603
 4727TIP3    H214188   2.544   5.024   2.486  1.1041 -0.6565 -0.3112
 4728TIP3   OH214189   0.558   1.729   0.616 -0.1949  0.1703  0.3649
 4728TIP3    H114190   0.647   1.761   0.628  0.2813 -0.4645 -1.2683
 4728TIP3    H214191   0.518   1.792   0.555 -0.5226 -0.1280  0.2667
 4729TIP3   OH214192   5.405   1.573   3.274  0.1876 -0.3409  0.4523
 4729TIP3    H114193   5.430   1.665   3.266 -0.4189 -0.1227  1.0046
 4729TIP3    H214194   5.421   1.536   3.187 -0.5525  0.5254 -0.0615
 4730TIP3   OH214195   3.148   5.470   0.598 -0.3543  0.8057  0.7828
 4730TIP3    H114196   3.192   5.483   0.682 -0.3730  1.1013  0.7486
 4730TIP3    H214197   3.205   5.411   0.549 -0.8023 -0.1214  1.3561
 4731TIP3   OH214198   3.136   2.453   4.791 -0.4762  0.3472  0.8850
 4731TIP3    H114199   3.176   2.368   4.770 -1.3738  0.3126 -0.8845
 4731TIP3    H214200   3.113   2.446   4.884 -0.8592 -1.5124  0.7049
 4732TIP3   OH214201   2.353   1.356   2.972  0.8050  0.2696 -0.1934
 4732TIP3    H114202   2.411   1.328   2.901  0.3294  1.9395 -1.3032
 4732TIP3    H214203   2.408   1.409   3.029  1.1028 -0.7826  0.5204
 4733TIP3   OH214204   2.365   1.872   1.820 -1.1020  0.4921 -0.5653
 4733TIP3    H114205   2.369   1.813   1.745 -2.6315 -1.0010  0.4646
 4733TIP3    H214206   2.277   1.909   1.816 -0.7239  1.4496 -0.2479
 4734TIP3   OH214207   0.792   5.634   4.277  0.3772  1.0130 -0.1082
 4734TIP3    H114208   0.719   5.654   4.334  0.7678  1.6482  0.1736
 4734TIP3    H214209   0.752   5.614   4.192 -0.4894 -2.8951  1.0086
 4735TIP3   OH214210   2.194   1.152   2.514 -0.0953  0.2169  0.6161
 4735TIP3    H114211   2.150   1.237   2.502  0.6923  0.6328  0.6363
 4735TIP3    H214212   2.287   1.171   2.502  0.1557 -0.5171  1.2905
 4736TIP3   OH214213  -0.032   4.365   4.449  0.0891 -0.3685  0.0381
 4736TIP3    H114214   0.011   4.317   4.520  2.0851 -0.3617 -1.0767
 4736TIP3    H214215   0.038   4.378   4.384 -0.7013  2.8392 -0.3161
 4737TIP3   OH214216   2.733   2.584   2.467  0.0022  0.2186 -0.2211
 4737TIP3    H114217   2.729   2.489   2.455 -2.3346  0.3316 -0.8049
 4737TIP3    H214218   2.642   2.611   2.477  0.5874  2.4530 -0.3768
 4738TIP3   OH214219   1.604   2.359   0.624  0.0865 -0.2673 -0.0625
 4738TIP3    H114220   1.635   2.361   0.533  1.3017 -0.4391  0.3268
 4738TIP3    H214221   1.649   2.431   0.666  1.4949 -1.6869  0.9776
 4739TIP3   OH214222   5.621   4.160   3.034 -0.0420  0.3717 -0.8371
 4739TIP3    H114223   5.572   4.172   2.953  1.3321  0.9451 -1.6347
 4739TIP3    H214224   5.711   4.145   3.006  0.8236  2.3236  0.5755
 4740TIP3   OH214225   4.245   0.788   3.724 -0.0952 -0.0267  0.2099
 4740TIP3    H114226   4.154   0.815   3.714 -0.0580  0.8425  1.8497
 4740TIP3    H214227   4.252   0.707   3.673 -1.4033  0.6280 -1.0734
 4741TIP3   OH214228   5.266   1.655   2.833 -0.2910 -0.2968 -0.0163
 4741TIP3    H114229   5.216   1.573   2.831 -1.8094  0.6088 -1.6130
 4741TIP3    H214230   5.325   1.649   2.758  0.6127 -0.5196  0.7035
 4742TIP3   OH214231   5.039   5.526   1.347  0.2870 -0.0044  0.3234
 4742TIP3    H114232   5.059   5.435   1.369 -1.3285 -0.1396  1.3746
 4742TIP3    H214233   5.041   5.528   1.251  0.3025 -1.1499  0.2864
 4743TIP3   OH214234   4.405   0.705   1.072  0.4906 -0.1535  0.1388
 4743TIP3    H114235   4.366   0.726   0.987  0.1476 -0.1936  0.2827
 4743TIP3    H214236   4.496   0.681   1.052 -0.1240 -2.2259 -0.4946
 4744TIP3   OH214237   5.298   3.756   0.693  0.2684 -0.6587 -0.0975
 4744TIP3    H114238   5.301   3.843   0.732 -1.9713 -1.1582  1.3417
 4744TIP3    H214239   5.215   3.753   0.647 -0.6729 -2.6657  1.5764
 4745TIP3   OH214240   0.026   1.141   2.680  0.0466  0.3626  0.1488
 4745TIP3    H114241   0.114   1.167   2.654 -0.3744  0.0627 -1.7881
 4745TIP3    H214242   0.026   1.146   2.775  2.2185  0.1569  0.2115
 4746TIP3   OH214243   3.657   4.171   3.564 -0.0186 -0.4793 -0.3305
 4746TIP3    H114244   3.583   4.190   3.623 -0.6313 -0.0281 -1.2269
 4746TIP3    H214245   3.617   4.125   3.490  0.7738 -1.2089 -0.3194
 4747TIP3   OH214246   5.686   0.033   0.842 -0.2126 -0.2246 -0.6772
 4747TIP3    H114247   5.642   0.118   0.849 -1.3811 -0.5251 -3.3236
 4747TIP3    H214248   5.619  -0.026   0.808  0.0294 -2.7660  2.6758
 4748TIP3   OH214249   2.428   0.705   1.945 -0.4494  0.8091  0.7950
 4748TIP3    H114250   2.455   0.708   1.853  2.1622 -0.0751  1.4486
 4748TIP3    H214251   2.404   0.795   1.966  0.3272  1.3016 -0.3635
 4749TIP3   OH214252   6.265   3.572   0.566  0.1842 -0.0878 -0.4596
 4749TIP3    H114253   6.281   3.660   0.532 -1.8323  1.5084  2.3232
 4749TIP3    H214254   6.344   3.551   0.615 -0.4046  1.5588  1.3341
 4750TIP3   OH214255   4.047   4.109   0.290 -0.0827  0.3573  0.5019
 4750TIP3    H114256   4.102   4.143   0.360 -0.9336  0.5705  1.0781
 4750TIP3    H214257   4.108   4.087   0.220  0.7891  0.0115  1.3569
 4751TIP3   OH214258   2.685   4.040   5.177  0.1113  0.2768 -0.3448
 4751TIP3    H114259   2.771   4.027   5.138  0.6160  0.3759  0.7018
 4751TIP3    H214260   2.660   4.129   5.151  1.0011  0.8155  0.5761
 4752TIP3   OH214261   1.771   5.243   1.931  0.5915  0.3846 -0.4253
 4752TIP3    H114262   1.773   5.284   1.845  2.0933 -0.0391 -0.6220
 4752TIP3    H214263   1.781   5.149   1.913 -2.2845 -0.0804  0.0482
 4753TIP3   OH214264   6.298   4.930   1.525 -0.0767  0.2584  0.1083
 4753TIP3    H114265   6.266   4.931   1.435 -0.7088 -2.0845  0.2492
 4753TIP3    H214266   6.292   5.021   1.553  0.9238  1.2095 -2.4495
 4754TIP3   OH214267   3.759   4.764   4.888  0.0944  0.6617 -0.1016
 4754TIP3    H114268   3.846   4.793   4.861 -0.6436  1.6683 -1.5334
 4754TIP3    H214269   3.700   4.796   4.819 -1.0981 -2.3944 -0.6434
 4755TIP3   OH214270   1.692   4.424   2.634  0.2042 -0.0479  0.4604
 4755TIP3    H114271   1.769   4.383   2.674  0.1001  0.6839  1.4334
 4755TIP3    H214272   1.719   4.443   2.544  0.9407 -0.3565  0.6086
 4756TIP3   OH214273   2.482   4.754   2.325  0.4632  0.1497 -0.2991
 4756TIP3    H114274   2.435   4.758   2.408  1.4884  2.5621  0.2557
 4756TIP3    H214275   2.432   4.810   2.266  0.5501 -0.3697 -0.8803
 4757TIP3   OH214276   0.301   1.420   3.014 -0.8358  0.6449 -0.2404
 4757TIP3    H114277   0.290   1.413   3.109  0.0791  0.9174 -0.1046
 4757TIP3    H214278   0.372   1.483   3.003  0.7487 -1.1633 -1.0311
 4758TIP3   OH214279   0.255   5.596   3.156 -0.1621 -0.4675 -0.0195
 4758TIP3    H114280   0.226   5.688   3.157 -1.1129 -0.7258 -1.5496
 4758TIP3    H214281   0.241   5.566   3.246  0.5921  1.0022  0.6292
 4759TIP3   OH214282   3.049   1.039   3.337  0.2200  0.1159 -0.0203
 4759TIP3    H114283   3.015   1.112   3.388  1.0885  1.1716 -0.8921
 4759TIP3    H214284   2.973   1.005   3.289 -0.1250  0.6473  0.1499
 4760TIP3   OH214285   2.608   0.893   0.915  0.0315  0.3146  0.2867
 4760TIP3    H114286   2.669   0.848   0.857  0.3021  2.2055 -1.0172
 4760TIP3    H214287   2.535   0.832   0.927  0.8403 -0.8493 -0.5105
 4761TIP3   OH214288   4.913   2.064   5.008 -0.2050 -0.1944 -0.3385
 4761TIP3    H114289   4.959   2.005   5.069  0.0362  0.3878  0.0571
 4761TIP3    H214290   4.849   2.109   5.062  2.6392  3.3236  0.5333
 4762TIP3   OH214291   2.492   3.037   2.195  0.4096  0.2647 -0.2378
 4762TIP3    H114292   2.464   3.114   2.145 -0.9961  1.2663  1.9172
 4762TIP3    H214293   2.584   3.026   2.173 -0.0338  0.8334 -2.7094
 4763TIP3   OH214294   0.173   2.172   3.325  0.4887  0.4060 -0.0301
 4763TIP3    H114295   0.210   2.224   3.397  2.4936  0.4855 -1.0284
 4763TIP3    H214296   0.229   2.094   3.321 -0.4789 -0.2744 -0.6049
 4764TIP3   OH214297   4.732   3.257   0.632  0.6885 -0.0984  0.3822
 4764TIP3    H114298   4.740   3.162   0.622  0.4091 -0.1263  0.4251
 4764TIP3    H214299   4.657   3.269   0.690  0.8881  0.1396  0.5967
 4765TIP3   OH214300   1.197   4.932   0.887 -0.5540 -0.1110 -0.4046
 4765TIP3    H114301   1.140   4.864   0.922 -1.5558  0.8533 -0.1377
 4765TIP3    H214302   1.138   4.998   0.851  0.4153  0.2468 -1.3899
 4766TIP3   OH214303   4.304   2.454   1.910 -0.1874 -0.4525 -0.0748
 4766TIP3    H114304   4.259   2.396   1.849 -0.5510 -0.4830  0.2143
 4766TIP3    H214305   4.255   2.536   1.905  0.7042  0.0435 -0.9484
 4767TIP3   OH214306   5.277   5.335   2.434  0.1867 -0.5106 -0.0405
 4767TIP3    H114307   5.203   5.383   2.397  0.4587  1.8086  2.1667
 4767TIP3    H214308   5.354   5.371   2.389  0.1394 -1.9844 -1.3893
 4768TIP3   OH214309   1.229   5.494   4.110 -0.2780 -0.1737  0.1487
 4768TIP3    H114310   1.145   5.536   4.128 -0.2095  0.1217 -0.2151
 4768TIP3    H214311   1.206   5.407   4.079 -0.4388 -0.1979  0.3272
 4769TIP3   OH214312   2.003   5.047   4.707 -0.6540 -0.0926 -0.0900
 4769TIP3    H114313   2.085   5.030   4.662 -0.5967 -0.6002  0.1999
 4769TIP3    H214314   1.952   4.967   4.696  0.8909 -1.9574  4.0704
 4770TIP3   OH214315   0.461   2.418   5.043 -0.0828  0.2500 -0.4457
 4770TIP3    H114316   0.426   2.338   5.082 -0.4531  0.3616 -0.5462
 4770TIP3    H214317   0.508   2.462   5.114 -0.2988  0.1873 -0.2672
 4771TIP3   OH214318   6.251   0.784   1.768  0.4893 -0.0404  0.2006
 4771TIP3    H114319   6.282   0.864   1.725  1.9729 -1.7482 -2.1436
 4771TIP3    H214320   6.331   0.744   1.803 -0.1044 -0.9174  0.5691
 4772TIP3   OH214321   5.263   4.394   3.119  0.2176  0.0471 -0.4745
 4772TIP3    H114322   5.217   4.424   3.197  0.9100  0.7970 -0.3327
 4772TIP3    H214323   5.241   4.302   3.111  1.2320 -0.4096  1.4127
 4773TIP3   OH214324   4.716   3.147   1.098 -0.4722 -0.1535  0.2536
 4773TIP3    H114325   4.765   3.143   1.180 -0.7563 -0.0042  0.4305
 4773TIP3    H214326   4.703   3.241   1.083  0.7973 -0.0989 -0.6817
 4774TIP3   OH214327   5.477   1.217   4.757  0.4260  0.2275  0.0015
 4774TIP3    H114328   5.448   1.276   4.688  0.8117 -0.4822 -0.7878
 4774TIP3    H214329   5.572   1.219   4.753  0.4543  0.1924  0.5292
 4775TIP3   OH214330   5.433   3.332   1.199  0.8439 -0.2681  0.2845
 4775TIP3    H114331   5.487   3.404   1.167  1.6631 -0.2953  1.5553
 4775TIP3    H214332   5.343   3.363   1.189  1.2019  1.7345  2.5016
 4776TIP3   OH214333   2.133   2.875   5.055  0.6084  0.1967 -0.1609
 4776TIP3    H114334   2.186   2.857   4.977 -0.3343 -1.3712 -0.4976
 4776TIP3    H214335   2.066   2.937   5.025  0.8756  0.4065 -0.3270
 4777TIP3   OH214336   2.528   1.881   5.145  0.0955 -0.6305  0.0084
 4777TIP3    H114337   2.487   1.903   5.228  0.8375 -0.6563  0.3956
 4777TIP3    H214338   2.470   1.918   5.078  0.1329  0.4744  0.5736
 4778TIP3   OH214339   6.228   0.923   2.878 -0.4364 -0.3098 -0.2780
 4778TIP3    H114340   6.249   1.002   2.927 -0.9011 -0.4834  0.2188
 4778TIP3    H214341   6.232   0.853   2.944 -2.1841 -0.4000 -0.2016
 4779TIP3   OH214342   6.223   3.403   4.101  0.0777 -0.3387 -0.2200
 4779TIP3    H114343   6.312   3.372   4.121 -0.2144 -0.9429  0.1590
 4779TIP3    H214344   6.219   3.403   4.006  0.0845 -1.4862 -0.2366
 4780TIP3   OH214345   0.178   4.557   1.486  0.3899  0.0823  0.4861
 4780TIP3    H114346   0.092   4.559   1.526  0.9639 -0.6248  1.8345
 4780TIP3    H214347   0.223   4.634   1.521  0.4366  0.2405  0.0832
 4781TIP3   OH214348   1.719   5.809   0.787  0.6618  0.0080 -0.2471
 4781TIP3    H114349   1.706   5.767   0.702  0.8950  0.1701 -0.3630
 4781TIP3    H214350   1.808   5.843   0.784  0.6097  0.1688 -0.0048
 4782TIP3   OH214351   4.629   2.569   1.300 -0.1358  0.1782  0.0446
 4782TIP3    H114352   4.723   2.584   1.291 -0.5328  2.1498 -1.4445
 4782TIP3    H214353   4.622   2.501   1.367  2.4425 -1.9098 -1.6230
 4783TIP3   OH214354   3.818   1.702   3.560  0.0686  0.0403  0.1352
 4783TIP3    H114355   3.782   1.780   3.602  0.1202  1.3045 -2.0301
 4783TIP3    H214356   3.909   1.698   3.589 -0.2212  0.1390  1.0936
 4784TIP3   OH214357   0.178   1.053   4.587 -0.2849  0.4244  0.2947
 4784TIP3    H114358   0.092   1.011   4.599 -2.0078  3.7786  0.8459
 4784TIP3    H214359   0.240   0.993   4.629 -2.3791 -1.8808  0.3511
 4785TIP3   OH214360   0.346   5.506   3.971  0.1029  0.1969 -0.7955
 4785TIP3    H114361   0.260   5.468   3.990  0.6614 -1.4805 -1.4615
 4785TIP3    H214362   0.353   5.580   4.031 -1.6845  0.1940 -0.5288
 4786TIP3   OH214363   2.838   5.589   2.056  0.0643 -0.1875  0.2383
 4786TIP3    H114364   2.750   5.604   2.020 -0.0662 -0.3889  0.4737
 4786TIP3    H214365   2.847   5.655   2.125  0.9070  1.2258 -1.1710
 4787TIP3   OH214366   4.127   5.408   4.364  0.8122 -0.0331 -0.0863
 4787TIP3    H114367   4.092   5.363   4.441 -0.2385 -0.3041 -0.7067
 4787TIP3    H214368   4.053   5.414   4.304  1.6601  0.0093 -1.1559
 4788TIP3   OH214369   2.546   0.757   1.393  0.6519 -0.0415 -0.0579
 4788TIP3    H114370   2.630   0.783   1.357  0.0694 -0.1628 -1.5462
 4788TIP3    H214371   2.518   0.682   1.340 -1.9873  2.1203 -1.9874
 4789TIP3   OH214372   0.214   0.536   1.077  0.0994 -0.0523 -0.0062
 4789TIP3    H114373   0.251   0.617   1.043 -1.4046 -0.0764 -1.8859
 4789TIP3    H214374   0.244   0.469   1.016  0.2620 -0.6997  0.7735
 4790TIP3   OH214375   4.431   0.971   0.015  0.3682  0.2268 -0.5103
 4790TIP3    H114376   4.496   0.972  -0.054  0.2713  0.6482 -0.5970
 4790TIP3    H214377   4.448   1.051   0.066 -1.0171  1.1660 -1.4202
 4791TIP3   OH214378   2.386   3.154   4.469 -0.8778 -0.2583  0.4813
 4791TIP3    H114379   2.366   3.184   4.380  0.4150 -1.0992 -0.1248
 4791TIP3    H214380   2.434   3.227   4.508 -0.1914 -0.4325 -0.0186
 4792TIP3   OH214381   0.390   1.243   0.940  0.2981 -0.1005 -0.3384
 4792TIP3    H114382   0.347   1.158   0.936 -1.4035  0.6127  1.1377
 4792TIP3    H214383   0.479   1.227   0.912 -0.1524 -2.2413 -0.6883
 4793TIP3   OH214384   6.216   3.503   4.744  0.6029 -0.0521  0.1640
 4793TIP3    H114385   6.283   3.513   4.677  1.2734 -1.2057  0.6219
 4793TIP3    H214386   6.195   3.592   4.771  1.7646  0.3450 -0.1868
 4794TIP3   OH214387   0.861   3.397   0.414 -0.2497 -0.3831  0.7437
 4794TIP3    H114388   0.920   3.349   0.472  0.9174 -0.2309 -0.2828
 4794TIP3    H214389   0.881   3.489   0.429 -1.6636 -0.2167  1.8468
 4795TIP3   OH214390   3.665   0.241   1.421  0.2157 -0.2738  0.6148
 4795TIP3    H114391   3.623   0.318   1.383  0.1987  0.3876  1.9240
 4795TIP3    H214392   3.627   0.167   1.373  0.0026  0.4920 -0.4525
 4796TIP3   OH214393   1.733   4.860   1.307 -0.4731 -0.4639  0.2765
 4796TIP3    H114394   1.754   4.838   1.398 -0.7900 -0.1492  0.4277
 4796TIP3    H214395   1.750   4.954   1.301  1.0738 -0.7623 -0.4209
 4797TIP3   OH214396   4.337   4.621   0.279  0.4591 -0.4856  0.3933
 4797TIP3    H114397   4.274   4.662   0.220  0.4998 -1.4914 -0.3748
 4797TIP3    H214398   4.419   4.668   0.263  0.3698 -0.4763 -0.0441
 4798TIP3   OH214399   1.217   2.786   2.874 -0.1280  0.4440 -0.2369
 4798TIP3    H114400   1.273   2.725   2.826  0.6725 -0.9469  2.2373
 4798TIP3    H214401   1.128   2.764   2.848  0.1997 -1.2785 -0.0146
 4799TIP3   OH214402   3.022   0.182   4.159  0.1646 -0.1016  0.5638
 4799TIP3    H114403   2.978   0.199   4.243 -2.0215  1.3742 -0.7716
 4799TIP3    H214404   3.029   0.268   4.118  1.1203 -0.8099 -0.8137
 4800TIP3   OH214405   5.089   5.491   3.410  0.4627 -0.2949 -0.3953
 4800TIP3    H114406   5.094   5.396   3.411 -0.4003 -0.5230 -3.9519
 4800TIP3    H214407   5.169   5.520   3.454  0.5709 -2.5892  1.1036
 4801TIP3   OH214408   2.000   0.766   4.501 -0.3935  0.2146  0.5328
 4801TIP3    H114409   2.094   0.778   4.498 -0.1956 -1.3153  0.0634
 4801TIP3    H214410   1.977   0.732   4.414 -1.1042 -1.1354  1.2231
 4802TIP3   OH214411   4.361   3.473   0.647 -0.1425 -0.3695  0.1364
 4802TIP3    H114412   4.307   3.533   0.698  0.3106 -1.7969  2.4610
 4802TIP3    H214413   4.299   3.410   0.611 -0.2968 -0.5396  0.6859
 4803TIP3   OH214414   1.193   4.545   2.757 -0.5166 -0.2241 -0.1099
 4803TIP3    H114415   1.122   4.585   2.807 -1.0167 -1.6370  0.3767
 4803TIP3    H214416   1.263   4.610   2.757 -1.4835  0.8398  0.1655
 4804TIP3   OH214417   3.039   1.253   2.399 -0.1121  0.2467 -0.1649
 4804TIP3    H114418   3.042   1.158   2.411  0.7901  0.0600 -1.6609
 4804TIP3    H214419   3.081   1.288   2.477  0.1553 -0.6225  0.0967
 4805TIP3   OH214420   1.704   0.325   0.850  0.0335  0.2502  0.2619
 4805TIP3    H114421   1.622   0.368   0.828 -0.7875  0.2478  2.9830
 4805TIP3    H214422   1.771   0.393   0.840 -0.4498  0.6000 -0.7227
 4806TIP3   OH214423   4.368   4.354   3.603 -0.1341  0.0958  0.4413
 4806TIP3    H114424   4.423   4.358   3.524 -0.4077 -1.1716  0.1677
 4806TIP3    H214425   4.280   4.374   3.572 -0.0420  0.8920  0.6666
 4807TIP3   OH214426   3.784   2.278   1.815 -0.0919 -0.2299  0.3457
 4807TIP3    H114427   3.840   2.356   1.823  0.3590 -0.6299  1.1772
 4807TIP3    H214428   3.724   2.299   1.743  1.5930 -0.0752 -1.0737
 4808TIP3   OH214429   0.797   3.242   1.096  0.4398  0.2001 -0.0998
 4808TIP3    H114430   0.803   3.260   1.003 -0.8803 -1.2703 -0.5300
 4808TIP3    H214431   0.877   3.277   1.134  0.7527  1.2872 -1.6957
 4809TIP3   OH214432   4.980   3.694   4.972  0.1078 -0.2381  0.1267
 4809TIP3    H114433   5.002   3.689   5.065 -0.4107 -0.2174  0.2551
 4809TIP3    H214434   5.051   3.649   4.928 -0.3895 -1.5908  0.6448
 4810TIP3   OH214435   4.338   2.221   1.347 -0.4115 -0.2258  0.1619
 4810TIP3    H114436   4.263   2.204   1.404 -0.1639  1.8680  1.1824
 4810TIP3    H214437   4.301   2.261   1.269 -0.2841  2.4953  1.4100
 4811TIP3   OH214438   0.496   2.104   1.948  0.1330 -0.1295 -0.0256
 4811TIP3    H114439   0.485   2.142   2.035  1.4332 -2.4199  1.2144
 4811TIP3    H214440   0.590   2.109   1.930  0.3935 -2.7088  0.2418
 4812TIP3   OH214441   4.904   3.323   2.507  0.6948  0.5119 -0.5281
 4812TIP3    H114442   4.884   3.385   2.436 -0.5204  1.1397  0.3130
 4812TIP3    H214443   4.994   3.343   2.531  0.6056  1.3760 -0.8605
 4813TIP3   OH214444   3.403   3.131   0.097 -0.2069 -0.0533  0.2223
 4813TIP3    H114445   3.324   3.182   0.079 -0.1080 -0.0230 -0.1210
 4813TIP3    H214446   3.413   3.135   0.192 -0.9492 -0.5497  0.3249
 4814TIP3   OH214447   6.051   4.691   3.132  0.8462  0.2236 -0.6624
 4814TIP3    H114448   6.110   4.619   3.156 -1.0257 -1.7117 -1.4629
 4814TIP3    H214449   6.077   4.713   3.042  1.1016  0.2210 -0.5924
 4815TIP3   OH214450   0.733   2.699   1.103 -0.1328 -0.2325 -0.1367
 4815TIP3    H114451   0.640   2.709   1.084 -0.0011  0.2139 -0.5649
 4815TIP3    H214452   0.773   2.779   1.071  0.5797 -0.9457 -1.1070
 4816TIP3   OH214453   4.180   4.132   1.431 -0.1018 -0.1918 -0.3216
 4816TIP3    H114454   4.126   4.054   1.419  1.9458 -1.8700  0.7939
 4816TIP3    H214455   4.197   4.134   1.525  1.3332  0.5939 -0.5811
 4817TIP3   OH214456   0.848   1.569   3.808  0.0363  0.1635  0.4242
 4817TIP3    H114457   0.832   1.480   3.839  0.0265 -1.0271 -2.6454
 4817TIP3    H214458   0.914   1.559   3.739 -0.9906  2.2996 -0.9725
 4818TIP3   OH214459   4.364   3.377   1.520 -0.0213 -0.1798 -0.3863
 4818TIP3    H114460   4.372   3.370   1.615 -0.5976 -0.2501 -0.3391
 4818TIP3    H214461   4.285   3.328   1.499 -0.4929  0.7351 -0.7772
 4819TIP3   OH214462   4.964   1.620   0.873  0.4504  0.3653 -0.2811
 4819TIP3    H114463   5.000   1.532   0.864 -0.0992  0.1739 -0.6658
 4819TIP3    H214464   4.979   1.661   0.788  0.8697  0.7128 -0.0457
 4820TIP3   OH214465   0.119   1.611   2.850 -0.3623  0.2403  0.8063
 4820TIP3    H114466   0.181   1.682   2.832  0.1408 -0.3511  0.1441
 4820TIP3    H214467   0.174   1.533   2.858 -1.1471 -0.7043 -1.9928
 4821TIP3   OH214468   2.351   5.057   4.124  0.1917 -0.0848 -0.1368
 4821TIP3    H114469   2.425   5.044   4.064 -0.3981 -0.2159 -0.8564
 4821TIP3    H214470   2.352   4.981   4.182  1.1289  0.3398  0.4116
 4822TIP3   OH214471   1.265   4.375   4.462  0.0891 -0.0308 -0.0071
 4822TIP3    H114472   1.251   4.383   4.557 -0.5170  0.1224 -0.1033
 4822TIP3    H214473   1.207   4.304   4.436  0.0434  0.1184 -0.3095
 4823TIP3   OH214474   5.904   1.037   4.299 -0.3989 -0.8020  0.0277
 4823TIP3    H114475   5.817   1.000   4.283  0.2981 -2.2684 -0.5029
 4823TIP3    H214476   5.888   1.108   4.361 -1.8275 -1.8157  0.8851
 4824TIP3   OH214477   2.538   1.733   1.085 -0.2953 -0.0890  0.4897
 4824TIP3    H114478   2.524   1.643   1.057 -1.9890 -0.6154  2.7492
 4824TIP3    H214479   2.621   1.731   1.133 -0.3651 -0.4519  0.5933
 4825TIP3   OH214480   4.751   3.899   2.841 -0.2180 -0.4843 -0.3187
 4825TIP3    H114481   4.726   3.930   2.754  1.3320 -1.2782 -1.0954
 4825TIP3    H214482   4.828   3.844   2.825  0.9355  0.4310  1.6890
 4826TIP3   OH214483   1.580   0.591   5.033 -0.5939  0.2605  0.0348
 4826TIP3    H114484   1.501   0.537   5.042 -0.4237 -0.1831 -0.9483
 4826TIP3    H214485   1.624   0.585   5.117 -1.6541  0.5880  0.6308
 4827TIP3   OH214486  -0.007   0.520   4.179  0.2109  0.1260 -0.2331
 4827TIP3    H114487   0.079   0.556   4.157 -0.0557 -0.4088 -2.3467
 4827TIP3    H214488   0.010   0.460   4.252  1.5072  0.5449 -0.1708
 4828TIP3   OH214489   2.088   1.409   2.490 -0.5783 -0.4581  0.2780
 4828TIP3    H114490   2.026   1.380   2.423  0.0846  1.8918 -1.4925
 4828TIP3    H214491   2.049   1.487   2.528  1.8136  2.1207 -2.0810
 4829TIP3   OH214492   3.582   5.331   2.909 -0.0867  0.4465 -0.2294
 4829TIP3    H114493   3.558   5.249   2.952 -2.0351  0.2443 -1.5901
 4829TIP3    H214494   3.601   5.391   2.981  2.4911 -1.4190  0.7956
 4830TIP3   OH214495   6.127   1.993   2.971 -0.0016  0.6093 -0.2076
 4830TIP3    H114496   6.178   1.996   3.052 -0.7947 -0.3477  0.3462
 4830TIP3    H214497   6.039   2.022   2.996 -0.9184 -1.9706 -0.1508
 4831TIP3   OH214498   6.266   5.448   0.421  0.1016 -0.0547 -0.4232
 4831TIP3    H114499   6.182   5.483   0.451  0.0436  0.2196 -0.8992
 4831TIP3    H214500   6.244   5.388   0.350  0.2707 -0.3793 -0.2028
 4832TIP3   OH214501   2.227   2.561   0.456 -0.0424 -0.0243 -0.5858
 4832TIP3    H114502   2.200   2.581   0.546 -0.8877 -0.0820 -0.8153
 4832TIP3    H214503   2.322   2.572   0.456 -0.0840  0.3906  0.2103
 4833TIP3   OH214504   1.932   3.477   5.168  0.4727  0.2866 -0.1338
 4833TIP3    H114505   2.025   3.470   5.190  0.5227  0.4119 -0.3104
 4833TIP3    H214506   1.930   3.489   5.073  0.2089 -1.3252 -0.3643
 4834TIP3   OH214507   1.907   1.352   3.231 -0.1772  0.8563  0.3070
 4834TIP3    H114508   1.899   1.262   3.263 -2.7094  1.3827  1.4287
 4834TIP3    H214509   1.967   1.346   3.157  1.7829 -1.2969  1.9321
 4835TIP3   OH214510   3.754   4.000   1.473 -0.0006 -0.4850  0.0223
 4835TIP3    H114511   3.659   3.994   1.459  0.2690 -1.6189 -1.6300
 4835TIP3    H214512   3.790   3.932   1.416  1.6783 -1.7962  2.4884
 4836TIP3   OH214513   2.849   0.034   3.389  0.7458 -0.1632  0.3548
 4836TIP3    H114514   2.914   0.082   3.338  0.8531  1.2146  1.6831
 4836TIP3    H214515   2.899  -0.034   3.434  0.5719 -1.7137 -1.6517
 4837TIP3   OH214516   2.267   1.650   0.188  0.0482 -0.3752 -0.5068
 4837TIP3    H114517   2.327   1.721   0.166  1.5149 -1.0923  0.9839
 4837TIP3    H214518   2.266   1.595   0.109 -0.5821  0.9119 -1.4283
 4838TIP3   OH214519   0.081   1.017   1.688  0.0922  0.2180  0.5949
 4838TIP3    H114520   0.074   1.010   1.593  0.2809  1.0594  0.5134
 4838TIP3    H214521   0.134   1.095   1.703  3.2785 -1.8772  1.3173
 4839TIP3   OH214522   4.891   1.321   3.260 -0.2672  0.3096  0.1479
 4839TIP3    H114523   4.975   1.319   3.214 -0.6020  0.5863 -0.4946
 4839TIP3    H214524   4.895   1.248   3.321  0.2337 -0.0043 -0.2532
 4840TIP3   OH214525   3.712   4.399   3.431  0.3402 -0.2668  0.3912
 4840TIP3    H114526   3.710   4.392   3.335 -1.1323  0.6187  0.3348
 4840TIP3    H214527   3.669   4.320   3.462  0.9243 -0.6131  0.3485
 4841TIP3   OH214528   1.391   0.402   4.498  0.0292  0.1685  0.1699
 4841TIP3    H114529   1.453   0.330   4.509 -0.4788  0.1000  4.0238
 4841TIP3    H214530   1.306   0.365   4.522 -0.6067  1.5255  0.1132
 4842TIP3   OH214531   0.602   2.260   4.209 -0.1329 -0.4296 -0.1638
 4842TIP3    H114532   0.672   2.294   4.265 -0.1471 -2.5141  1.2326
 4842TIP3    H214533   0.538   2.223   4.270 -0.7041 -1.7790 -1.5211
 4843TIP3   OH214534   1.461   5.050   0.443  0.4512 -0.4816 -0.1428
 4843TIP3    H114535   1.449   5.052   0.538  3.5806  2.0425  0.3676
 4843TIP3    H214536   1.526   4.980   0.428 -0.6655 -1.4634 -0.6044
 4844TIP3   OH214537   1.837   3.511   0.950 -0.1956  0.0847 -0.1326
 4844TIP3    H114538   1.880   3.498   0.866 -1.0931 -0.8740 -0.4609
 4844TIP3    H214539   1.761   3.453   0.948  0.0491 -0.3632  1.5478
 4845TIP3   OH214540   6.069   2.061   4.834 -0.1936  0.1516  0.3710
 4845TIP3    H114541   6.048   2.086   4.924 -0.7060  0.4593  0.1717
 4845TIP3    H214542   6.083   1.966   4.838  3.8911  0.6133  1.5511
 4846TIP3   OH214543   3.342   4.089   3.872 -0.1183 -0.1723  0.3254
 4846TIP3    H114544   3.393   4.167   3.851 -0.6443  0.1843  0.3730
 4846TIP3    H214545   3.262   4.122   3.913 -1.4678 -0.5803 -1.8237
 4847TIP3   OH214546   4.996   1.364   0.757  0.5511  0.1079  0.1103
 4847TIP3    H114547   4.932   1.327   0.696  1.3053 -1.3309  0.1515
 4847TIP3    H214548   5.008   1.295   0.823  2.1404  0.3462  0.0954
 4848TIP3   OH214549   3.371   4.149   2.667  0.1677 -0.2279  0.3200
 4848TIP3    H114550   3.406   4.098   2.740  0.9537 -0.1238  0.0287
 4848TIP3    H214551   3.448   4.179   2.620 -0.2212  2.0328  1.0190
 4849TIP3   OH214552   5.099   0.328   2.357  0.5147  0.0816  0.3575
 4849TIP3    H114553   5.004   0.333   2.346  0.5768 -1.3560 -1.2959
 4849TIP3    H214554   5.132   0.406   2.312  0.1733 -0.1435 -0.2950
 4850TIP3   OH214555   1.099   1.941   0.094  0.2978 -0.0791 -0.2737
 4850TIP3    H114556   1.053   2.009   0.045  2.3644  2.0846  0.6221
 4850TIP3    H214557   1.048   1.930   0.174  0.4852  1.2197  0.0427
 4851TIP3   OH214558   4.396   0.559   2.575 -0.2258 -0.0876 -0.0497
 4851TIP3    H114559   4.426   0.607   2.653 -0.1773 -0.1934 -0.0025
 4851TIP3    H214560   4.476   0.545   2.524 -0.3848  0.7173 -0.5271
 4852TIP3   OH214561   4.550   2.736   2.813  0.3335 -0.0797  0.7156
 4852TIP3    H114562   4.468   2.746   2.862 -0.8489 -0.9288 -0.9482
 4852TIP3    H214563   4.541   2.797   2.740  0.1887 -1.6504 -0.6527
 4853TIP3   OH214564   3.663   5.784   1.682 -0.5495  0.1944  0.8229
 4853TIP3    H114565   3.682   5.748   1.768 -0.7340  0.1623  0.8504
 4853TIP3    H214566   3.581   5.742   1.656  0.6273 -1.5458 -0.3443
 4854TIP3   OH214567   3.861   0.590   0.117 -0.2997  0.7768 -0.3034
 4854TIP3    H114568   3.825   0.671   0.079 -0.3191  0.9265  0.0306
 4854TIP3    H214569   3.950   0.614   0.143  0.3886  0.1737 -1.9331
 4855TIP3   OH214570   4.511   2.506   4.943  0.4397  0.3164 -1.0126
 4855TIP3    H114571   4.595   2.468   4.968  0.1923  0.1659 -0.3957
 4855TIP3    H214572   4.490   2.567   5.013 -0.2340 -0.0625 -0.8727
 4856TIP3   OH214573   0.759   2.304   2.019 -0.0749 -0.6429 -0.1473
 4856TIP3    H114574   0.851   2.324   2.031  0.2323 -1.3711 -1.1773
 4856TIP3    H214575   0.740   2.237   2.085  0.5501 -1.6300 -0.9339
 4857TIP3   OH214576   4.687   0.123   2.073  0.1382  0.4580 -0.3594
 4857TIP3    H114577   4.757   0.149   2.014  0.7399  0.9737  0.5620
 4857TIP3    H214578   4.637   0.204   2.088  0.0061  0.3398 -0.1494
 4858TIP3   OH214579   2.325   3.880   1.531 -0.1790 -0.6915  0.1238
 4858TIP3    H114580   2.344   3.863   1.624  0.1925  1.2842  0.4616
 4858TIP3    H214581   2.292   3.969   1.530 -2.4559 -1.4768 -1.4038
 4859TIP3   OH214582   6.028   5.589   2.072 -0.1509  0.3024  0.0868
 4859TIP3    H114583   6.069   5.672   2.096 -1.1322  0.5843  0.8943
 4859TIP3    H214584   6.084   5.552   2.004  1.1983  0.8536  0.8678
 4860TIP3   OH214585   6.067   1.781   3.798 -0.1982 -0.0466 -0.3620
 4860TIP3    H114586   6.076   1.743   3.711  1.4528 -0.8293  0.0879
 4860TIP3    H214587   6.149   1.829   3.812 -0.8688  0.9142  0.3635
 4861TIP3   OH214588   3.009   3.666   0.821 -0.9570 -0.6936 -0.0696
 4861TIP3    H114589   2.946   3.705   0.881  0.1573  0.7970  0.2222
 4861TIP3    H214590   3.023   3.735   0.755 -1.8074 -2.1113 -1.8080
 4862TIP3   OH214591   1.597   2.145   0.344  0.0322  0.1574 -0.0577
 4862TIP3    H114592   1.508   2.114   0.326  0.6332 -0.8144 -1.5774
 4862TIP3    H214593   1.592   2.240   0.339 -0.9097  0.1043 -0.1612
 4863TIP3   OH214594   5.027   4.253   1.528 -0.7768  0.4979  0.2775
 4863TIP3    H114595   4.992   4.342   1.523 -0.8705  0.4134 -0.9542
 4863TIP3    H214596   5.088   4.248   1.454  0.0037 -0.1398  0.9431
 4864TIP3   OH214597   1.475   4.255   2.667  0.0934  0.3808 -0.4369
 4864TIP3    H114598   1.545   4.313   2.696  0.2135 -1.1015  2.7031
 4864TIP3    H214599   1.504   4.168   2.695 -0.6629 -1.0918 -3.7746
 4865TIP3   OH214600   1.310   1.536   4.009  0.2521 -0.3510  0.1918
 4865TIP3    H114601   1.390   1.589   4.005 -2.4117  4.1315 -1.0662
 4865TIP3    H214602   1.294   1.511   3.918 -0.8481  0.7647  0.0536
 4866TIP3   OH214603   2.214   4.282   3.666  0.4567 -0.5526  0.0027
 4866TIP3    H114604   2.190   4.268   3.575 -2.7477  0.3812  0.5727
 4866TIP3    H214605   2.134   4.312   3.708  2.2279  0.7960  2.7839
 4867TIP3   OH214606   5.998   1.999   3.493 -0.3558  0.2485  0.3548
 4867TIP3    H114607   6.072   2.038   3.539 -1.2696  1.6280  0.7154
 4867TIP3    H214608   6.033   1.919   3.455  1.7422  1.6362 -0.8234
 4868TIP3   OH214609   2.080   2.215   1.093  0.1893 -0.2320  0.4720
 4868TIP3    H114610   1.993   2.245   1.119  0.1712  1.6250 -1.4854
 4868TIP3    H214611   2.064   2.132   1.048 -0.8143  0.7807 -1.1320
 4869TIP3   OH214612   3.037   2.385   0.520  0.2679  0.5584  0.3650
 4869TIP3    H114613   2.963   2.358   0.464  1.0343  0.2135 -0.5010
 4869TIP3    H214614   3.095   2.310   0.521  0.4076  0.6686  1.4195
 4870TIP3   OH214615   1.377   2.438   3.177 -0.0763 -0.2137 -0.0069
 4870TIP3    H114616   1.336   2.414   3.260  0.1351  0.6246  0.3527
 4870TIP3    H214617   1.317   2.406   3.110 -0.3972 -0.6320  0.4722
 4871TIP3   OH214618   1.178   5.709   3.126  0.0505 -0.3620 -0.2993
 4871TIP3    H114619   1.159   5.776   3.061 -0.3248  0.1601  0.3319
 4871TIP3    H214620   1.252   5.659   3.089 -0.3788 -0.2999 -1.2622
 4872TIP3   OH214621   3.072   4.379   3.721 -0.7092  0.8096  0.8317
 4872TIP3    H114622   3.110   4.457   3.761 -1.0399  1.0608  0.6570
 4872TIP3    H214623   2.993   4.410   3.678 -1.6757  0.1388  2.0459
 4873TIP3   OH214624   6.046   2.141   1.971  0.0090 -0.2241 -0.5267
 4873TIP3    H114625   6.012   2.053   1.954 -2.7570  0.7557 -0.7008
 4873TIP3    H214626   6.012   2.164   2.058 -1.0073  1.3300 -1.2779
 4874TIP3   OH214627   2.313   3.710   4.822 -0.4464 -0.2177 -0.2498
 4874TIP3    H114628   2.352   3.797   4.834 -0.2378 -0.3429 -0.0177
 4874TIP3    H214629   2.310   3.673   4.910 -1.1902 -0.1693 -0.2461
 4875TIP3   OH214630   1.313   4.439   1.359  0.6579 -0.3778 -0.3919
 4875TIP3    H114631   1.282   4.407   1.443 -2.0635  1.2450 -0.6367
 4875TIP3    H214632   1.381   4.377   1.332  1.3078 -1.1884  2.7406
 4876TIP3   OH214633   2.860   1.939   0.875  0.2386 -0.0585  0.0483
 4876TIP3    H114634   2.845   1.981   0.959 -0.1339  0.4353 -0.2576
 4876TIP3    H214635   2.931   1.990   0.835 -0.5753  0.6525 -0.5532
 4877TIP3   OH214636   4.551   2.162   0.369  0.3901 -0.5813  0.1671
 4877TIP3    H114637   4.554   2.122   0.281  0.5381  1.1521 -0.6485
 4877TIP3    H214638   4.457   2.168   0.389  0.2589  0.6754 -0.6935
 4878TIP3   OH214639   0.059   5.214   0.924 -0.2069 -0.0048  0.1794
 4878TIP3    H114640   0.029   5.262   0.848  0.6533 -1.5867 -1.2379
 4878TIP3    H214641   0.077   5.281   0.990 -1.7300  1.3383 -0.7028
 4879TIP3   OH214642   0.256   5.559   3.424 -0.7160  0.0587 -0.0233
 4879TIP3    H114643   0.250   5.605   3.508 -0.7453  0.9643 -0.5034
 4879TIP3    H214644   0.312   5.484   3.441 -2.7746 -1.2419  1.4342
 4880TIP3   OH214645   6.238   0.843   4.838  0.1709 -0.9023  0.1278
 4880TIP3    H114646   6.221   0.855   4.745 -0.7909  0.8258  0.4729
 4880TIP3    H214647   6.152   0.854   4.880  0.7825 -0.3206  1.2999
 4881TIP3   OH214648   2.521   0.154   1.796 -0.2227 -0.9962 -0.3574
 4881TIP3    H114649   2.616   0.157   1.801 -0.1875 -1.4408 -0.7481
 4881TIP3    H214650   2.491   0.189   1.881  0.2531  1.1114 -0.9910
 4882TIP3   OH214651   2.453   3.990   2.037  0.0102 -0.0288 -0.0404
 4882TIP3    H114652   2.406   4.073   2.034 -1.5168 -0.8829 -1.4371
 4882TIP3    H214653   2.544   4.014   2.018 -0.7272  1.1430 -2.4549
 4883TIP3   OH214654   4.132   0.175   5.139 -0.0516 -0.3154 -0.4110
 4883TIP3    H114655   4.065   0.162   5.207 -2.6092 -0.5411 -2.7879
 4883TIP3    H214656   4.152   0.087   5.108  0.4444 -0.1477 -0.5797
 4884TIP3   OH214657   4.328   4.905   0.681 -0.1147 -0.4044  0.3558
 4884TIP3    H114658   4.311   4.822   0.725  1.7556 -1.2817 -0.4559
 4884TIP3    H214659   4.241   4.941   0.663 -1.0538 -2.8166 -0.4184
 4885TIP3   OH214660   2.524   5.350   3.581 -0.6350  0.1241 -0.4670
 4885TIP3    H114661   2.560   5.346   3.492  1.3429  0.4118  0.2704
 4885TIP3    H214662   2.508   5.444   3.596  0.5214  0.2667  0.0008
 4886TIP3   OH214663   5.410   3.378   1.519 -0.3895 -0.4102  0.0537
 4886TIP3    H114664   5.494   3.421   1.535 -0.4160 -0.4028  0.1748
 4886TIP3    H214665   5.368   3.431   1.451 -0.0093 -0.7964 -0.4923
 4887TIP3   OH214666   3.589   5.719   0.244 -0.4650  0.0653 -0.0335
 4887TIP3    H114667   3.621   5.648   0.188  1.0327  0.2386  0.5617
 4887TIP3    H214668   3.612   5.799   0.198 -0.7836  0.1827  0.0107
 4888TIP3   OH214669   0.936   3.628   2.550 -0.0844  0.6450 -0.1316
 4888TIP3    H114670   0.875   3.600   2.481  0.1117 -0.3547  0.0923
 4888TIP3    H214671   1.019   3.639   2.504  0.0660 -0.1011 -0.0508
 4889TIP3   OH214672   2.806   4.351   1.719  0.3149  0.2263  0.1339
 4889TIP3    H114673   2.808   4.338   1.624  1.5378  1.4835 -0.0438
 4889TIP3    H214674   2.847   4.437   1.732 -2.2827  1.3938  1.5764
 4890TIP3   OH214675   1.553   0.181   4.599  0.5953 -0.2154 -0.2179
 4890TIP3    H114676   1.624   0.161   4.538  0.8586  0.5058 -0.1649
 4890TIP3    H214677   1.504   0.099   4.607  0.6570 -0.3684 -1.2599
 4891TIP3   OH214678   2.449   3.195   3.531  0.0784  0.4782 -0.4501
 4891TIP3    H114679   2.507   3.266   3.504  2.5598 -1.6860 -1.1911
 4891TIP3    H214680   2.464   3.126   3.467 -2.5476 -0.6257 -0.0011
 4892TIP3   OH214681   2.001   5.067   4.254  0.2867  0.0230 -0.1084
 4892TIP3    H114682   1.940   5.063   4.328  0.4868  3.4244  0.3836
 4892TIP3    H214683   2.088   5.062   4.294  0.3864  1.1730 -0.1697
 4893TIP3   OH214684   4.877   5.040   2.053 -0.2470  0.4715  0.0562
 4893TIP3    H114685   4.957   5.028   2.104 -0.1662 -1.0330 -0.3664
 4893TIP3    H214686   4.810   4.990   2.100 -0.5394  0.3548 -0.4722
 4894TIP3   OH214687   4.133   5.042   4.895  0.0650 -0.0174  0.2368
 4894TIP3    H114688   4.132   5.137   4.909 -0.4099  0.2519 -1.3954
 4894TIP3    H214689   4.087   5.006   4.971 -0.3176  1.1075  0.5573
 4895TIP3   OH214690   2.368   2.311   3.970  0.0533  0.0149 -0.3340
 4895TIP3    H114691   2.390   2.278   3.883  0.8546 -0.7061  0.1232
 4895TIP3    H214692   2.298   2.375   3.955 -0.7336 -1.0466 -1.3696
 4896TIP3   OH214693   0.962   5.282   1.889  0.2910  0.2292 -0.0491
 4896TIP3    H114694   0.934   5.226   1.961  2.5865 -0.9301  0.0394
 4896TIP3    H214695   0.943   5.232   1.810  0.1399  0.3724 -0.1044
 4897TIP3   OH214696   1.724   2.030   5.113  0.5358  0.4055  0.2487
 4897TIP3    H114697   1.816   2.034   5.088  0.6346 -1.3916  0.1524
 4897TIP3    H214698   1.703   1.936   5.111 -1.4294  0.8144 -0.2170
 4898TIP3   OH214699   0.185   1.633   3.751 -0.2411  0.0054  0.5134
 4898TIP3    H114700   0.120   1.645   3.682  1.3695 -0.2993 -1.1218
 4898TIP3    H214701   0.200   1.721   3.785 -0.1950  0.3403 -0.3522
 4899TIP3   OH214702   0.656   5.486   0.941 -0.2751 -0.0306 -0.0975
 4899TIP3    H114703   0.661   5.415   1.004  2.1083  1.0563  1.0674
 4899TIP3    H214704   0.632   5.444   0.858 -1.0053 -1.8346  0.9800
 4900TIP3   OH214705   5.822   3.532   1.067 -0.5059 -0.2017  0.2019
 4900TIP3    H114706   5.876   3.461   1.102 -0.0954 -0.3095 -0.6092
 4900TIP3    H214707   5.798   3.502   0.979 -0.5673  0.5387 -0.0374
 4901TIP3   OH214708   1.355   0.506   4.807 -0.3610 -0.7113  0.1010
 4901TIP3    H114709   1.306   0.430   4.838 -0.1917 -1.2811 -0.9891
 4901TIP3    H214710   1.447   0.486   4.827 -0.2404 -1.1271 -0.8384
 4902TIP3   OH214711   5.152   2.537   1.376 -0.2861  0.8755  0.3906
 4902TIP3    H114712   5.087   2.604   1.397 -2.1582 -0.2328 -1.5790
 4902TIP3    H214713   5.212   2.580   1.315 -0.5927  1.1879  0.3074
 4903TIP3   OH214714   4.743   1.053   3.780  0.5808  0.0104  0.5044
 4903TIP3    H114715   4.665   1.036   3.728 -0.2626  1.4672  1.2538
 4903TIP3    H214716   4.792   0.970   3.777 -1.1449 -1.0524  0.3135
 4904TIP3   OH214717   0.979   5.652   4.514 -1.0597  0.4203  0.4387
 4904TIP3    H114718   0.974   5.560   4.489 -1.0516 -0.5583  3.5788
 4904TIP3    H214719   1.071   5.674   4.507 -0.1005 -1.4640  4.3147
 4905TIP3   OH214720   4.440   1.271   0.058  0.4500 -0.0482  0.0536
 4905TIP3    H114721   4.347   1.276   0.078  0.4820  0.3697  0.1017
 4905TIP3    H214722   4.483   1.275   0.144  0.5274  0.1519  0.0048
 4906TIP3   OH214723   2.198   5.702   3.316  0.0885 -0.0267 -0.2592
 4906TIP3    H114724   2.144   5.782   3.320 -0.8273 -0.6535  2.1350
 4906TIP3    H214725   2.262   5.714   3.386  0.5190 -0.9916 -0.4856
 4907TIP3   OH214726   5.162   2.939   3.264 -0.4545 -0.4454  0.3181
 4907TIP3    H114727   5.194   2.986   3.187 -0.4402 -0.5573  0.2557
 4907TIP3    H214728   5.233   2.880   3.288  0.6460  1.4343  2.0042
 4908TIP3   OH214729   2.888   1.519   4.266  0.0573  0.0805  0.0165
 4908TIP3    H114730   2.836   1.597   4.282  0.1034  0.4484 -1.5165
 4908TIP3    H214731   2.866   1.460   4.339 -1.9820  0.4890 -0.2310
 4909TIP3   OH214732   1.174   2.560   1.253 -0.3468  0.1656 -0.0115
 4909TIP3    H114733   1.259   2.584   1.217 -0.4072 -0.5747 -0.6714
 4909TIP3    H214734   1.111   2.586   1.186 -0.6160  0.4473  0.3498
 4910TIP3   OH214735   1.633   0.158   3.325  0.0662 -0.6777  0.1154
 4910TIP3    H114736   1.645   0.170   3.231 -0.8340  0.1725  0.0969
 4910TIP3    H214737   1.720   0.133   3.357  0.3397 -1.2102 -0.9627
 4911TIP3   OH214738   5.664   4.885   3.654 -0.0970  0.0359  0.0952
 4911TIP3    H114739   5.716   4.965   3.648 -2.2754  1.7340  1.8931
 4911TIP3    H214740   5.638   4.867   3.564  2.3839 -0.1051 -0.6573
 4912TIP3   OH214741   1.551   2.881   0.529  0.4342 -0.5285 -0.1849
 4912TIP3    H114742   1.565   2.822   0.455  1.1153 -0.7267  0.0942
 4912TIP3    H214743   1.497   2.831   0.590 -0.5546 -0.1858 -0.7536
 4913TIP3   OH214744   2.733   3.177   3.648  0.0325  0.7241 -0.3781
 4913TIP3    H114745   2.696   3.089   3.648  0.1409  0.6783 -0.2882
 4913TIP3    H214746   2.693   3.220   3.724  0.7691  0.4183  0.1850
 4914TIP3   OH214747   0.929   5.374   0.650  0.1506 -0.1517 -0.2584
 4914TIP3    H114748   0.858   5.436   0.632 -0.7325 -1.2846 -0.8257
 4914TIP3    H214749   1.007   5.429   0.660 -0.8644  1.1507  0.7745
 4915TIP3   OH214750   6.087   0.924   4.112 -0.1270 -0.6183 -0.3405
 4915TIP3    H114751   6.014   0.953   4.166  0.9605 -0.1970  0.9616
 4915TIP3    H214752   6.125   1.004   4.076  0.8142 -0.6494  0.5227
 4916TIP3   OH214753   2.373   0.848   1.151  0.2589 -0.6706  0.2673
 4916TIP3    H114754   2.305   0.890   1.097  1.8091  0.2842 -1.0573
 4916TIP3    H214755   2.354   0.877   1.240 -0.5136  0.3809 -0.2144
 4917TIP3   OH214756   2.664   3.034   0.962  0.0164 -0.1764 -0.1293
 4917TIP3    H114757   2.643   3.000   0.875  0.1290  0.3661 -0.3765
 4917TIP3    H214758   2.691   3.125   0.946 -0.5614  0.1241  0.5362
 4918TIP3   OH214759   3.903   3.111   1.429 -0.1348  0.6477  0.4641
 4918TIP3    H114760   3.808   3.115   1.437 -0.2836 -2.1415  1.1371
 4918TIP3    H214761   3.922   3.141   1.340 -1.7909  0.0317 -0.1280
 4919TIP3   OH214762   4.845   2.974   1.802  0.6028 -0.2219  0.7195
 4919TIP3    H114763   4.766   2.936   1.839 -0.6919  1.1613 -0.4890
 4919TIP3    H214764   4.857   3.057   1.848 -1.6718  2.0788 -2.3949
 4920TIP3   OH214765   0.041   1.131   0.556  0.0208 -0.1032  0.5158
 4920TIP3    H114766  -0.042   1.179   0.554 -0.1278 -0.3141  1.3991
 4920TIP3    H214767   0.098   1.179   0.495 -0.9530 -0.3579 -0.6416
 4921TIP3   OH214768   6.279   4.161   3.172  0.6571  0.0808 -0.2837
 4921TIP3    H114769   6.319   4.091   3.120  1.7314  0.4341  0.0557
 4921TIP3    H214770   6.188   4.165   3.141 -0.0040 -2.7200  0.9773
 4922TIP3   OH214771   3.712   1.170   2.187  0.2850  0.0190 -0.2024
 4922TIP3    H114772   3.793   1.211   2.218 -1.1336  1.4416  1.9463
 4922TIP3    H214773   3.716   1.080   2.219  1.1188  0.0149 -0.3148
 4923TIP3   OH214774   3.296   4.223   4.472 -0.1488 -0.1021 -0.5304
 4923TIP3    H114775   3.360   4.197   4.406  2.2720 -0.0972  1.6943
 4923TIP3    H214776   3.312   4.317   4.486  0.3609 -0.3946  1.0252
 4924TIP3   OH214777   6.195   4.748   0.438 -0.0983 -0.7077 -0.2471
 4924TIP3    H114778   6.173   4.836   0.468  0.7920 -0.5137 -0.1605
 4924TIP3    H214779   6.124   4.693   0.473 -0.4963 -0.0829 -0.0475
 4925TIP3   OH214780   2.843   0.490   4.829 -0.0371  0.0339 -0.2326
 4925TIP3    H114781   2.871   0.579   4.812 -0.4197  1.0513  3.5430
 4925TIP3    H214782   2.748   0.490   4.813 -0.5310  1.1681  2.2203
 4926TIP3   OH214783   3.494   2.560   3.073  0.4149  0.2522 -0.2925
 4926TIP3    H114784   3.423   2.499   3.092 -0.5703  1.6744  0.7920
 4926TIP3    H214785   3.526   2.587   3.160  2.2268 -0.2542 -0.7520
 4927TIP3   OH214786   3.453   4.696   0.801 -0.1215  0.1656 -0.1898
 4927TIP3    H114787   3.459   4.637   0.726  2.9568  0.1523 -0.0748
 4927TIP3    H214788   3.469   4.783   0.764 -2.3803  0.7027 -0.0300
 4928TIP3   OH214789   5.123   1.030   1.357 -0.1145 -1.0306 -0.4036
 4928TIP3    H114790   5.121   1.125   1.347  0.5131 -1.0564 -0.8536
 4928TIP3    H214791   5.040   1.000   1.320 -0.6346 -0.6061  0.4007
 4929TIP3   OH214792   1.566   1.270   1.293  0.2118  0.1709 -0.0253
 4929TIP3    H114793   1.506   1.265   1.219 -0.1918 -0.6022  0.3467
 4929TIP3    H214794   1.535   1.345   1.344  0.4127  0.6233 -0.5558
 4930TIP3   OH214795   1.964   4.840   1.529  0.1639  0.3435 -0.0291
 4930TIP3    H114796   1.984   4.748   1.511  0.7721  0.2336  1.1068
 4930TIP3    H214797   1.900   4.836   1.601  2.3268  0.7921  2.0564
 4931TIP3   OH214798   3.387   0.505   0.710  0.3064  0.1174 -0.7653
 4931TIP3    H114799   3.318   0.481   0.772  0.3251  0.3050 -0.6732
 4931TIP3    H214800   3.466   0.463   0.745  0.3950  0.5403 -0.4546
 4932TIP3   OH214801   2.055   5.354   0.866 -0.0145 -0.4245 -0.0361
 4932TIP3    H114802   1.969   5.316   0.849 -0.0880 -0.9408  1.3284
 4932TIP3    H214803   2.084   5.313   0.948  0.7761  1.0025  0.4494
 4933TIP3   OH214804   5.951   5.887   4.270  0.1697 -0.3113  0.0070
 4933TIP3    H114805   5.894   5.906   4.195  2.0641  1.9829 -0.9831
 4933TIP3    H214806   6.027   5.843   4.231  1.1512  0.8584  0.5681
 4934TIP3   OH214807   4.744   2.170   2.090 -0.1553  0.4559 -0.2267
 4934TIP3    H114808   4.795   2.129   2.020  0.7957 -3.1378  2.2746
 4934TIP3    H214809   4.653   2.156   2.065  0.0417  2.2615 -2.2401
 4935TIP3   OH214810   3.890   4.237   0.492 -0.3679  0.3175 -0.5925
 4935TIP3    H114811   3.922   4.208   0.407  0.0429 -3.2774  0.6027
 4935TIP3    H214812   3.967   4.232   0.549 -0.7215  2.3167  0.1299
 4936TIP3   OH214813   4.767   5.433   4.427 -0.1869  0.1339 -0.0637
 4936TIP3    H114814   4.733   5.356   4.382 -0.4387  1.3737 -2.1059
 4936TIP3    H214815   4.862   5.429   4.412 -0.1551  0.0332  0.1581
 4937TIP3   OH214816   0.199   3.511   2.235 -0.1450 -0.2938 -0.3014
 4937TIP3    H114817   0.152   3.436   2.198  0.2597 -1.0971  0.7352
 4937TIP3    H214818   0.161   3.587   2.192 -1.2787 -1.0303 -0.6560
 4938TIP3   OH214819   1.626   4.833   0.373 -0.1953  0.1171 -0.1749
 4938TIP3    H114820   1.670   4.867   0.295 -2.5465  0.9150 -1.2377
 4938TIP3    H214821   1.661   4.744   0.384  0.0101 -0.0971 -2.2759
 4939TIP3   OH214822   3.346   4.912   1.649 -0.8230  0.1578  0.7773
 4939TIP3    H114823   3.420   4.964   1.620  0.3523 -1.0427  1.4968
 4939TIP3    H214824   3.274   4.974   1.657 -0.2200  1.1421 -1.0814
 4940TIP3   OH214825   3.282   3.892   2.101  0.2656 -0.2369  0.6976
 4940TIP3    H114826   3.229   3.971   2.102  0.3629 -0.1661  0.4416
 4940TIP3    H214827   3.229   3.827   2.147  0.0996 -0.0768  0.7331
 4941TIP3   OH214828   1.932   2.989   1.831  0.2335  0.2228  0.3860
 4941TIP3    H114829   2.023   2.960   1.836  0.1524 -0.2325 -0.5323
 4941TIP3    H214830   1.883   2.926   1.884  0.2946 -0.2719 -0.1384
 4942TIP3   OH214831   2.057   0.806   0.819 -0.1345  0.4763  0.5659
 4942TIP3    H114832   2.067   0.864   0.744 -1.5163 -1.1584 -0.9703
 4942TIP3    H214833   1.972   0.764   0.806  0.2182 -0.9042  2.3057
 4943TIP3   OH214834   3.284   2.162   3.549 -0.5749  0.0608 -0.0342
 4943TIP3    H114835   3.347   2.156   3.621 -0.6226  0.0885  0.0100
 4943TIP3    H214836   3.316   2.101   3.483  0.6994  1.6240 -0.9378
 4944TIP3   OH214837   4.210   1.488   0.239 -0.1673 -0.1444 -0.2237
 4944TIP3    H114838   4.223   1.443   0.156  0.4756 -1.0400  0.3434
 4944TIP3    H214839   4.138   1.549   0.223 -1.6293 -1.9304 -0.8190
 4945TIP3   OH214840   5.475   0.567   0.686 -0.1928 -0.3049 -0.1420
 4945TIP3    H114841   5.422   0.523   0.619  0.9075 -0.0026 -1.2574
 4945TIP3    H214842   5.564   0.565   0.651  0.3624  0.1970  1.1605
 4946TIP3   OH214843   1.433   4.125   2.201 -0.4177 -0.2574  0.5984
 4946TIP3    H114844   1.447   4.218   2.219  1.1649 -0.2691 -0.3698
 4946TIP3    H214845   1.416   4.087   2.287  2.3400  0.4174  1.5606
 4947TIP3   OH214846   4.351   3.827   3.916 -0.1243 -0.0867 -0.5458
 4947TIP3    H114847   4.327   3.735   3.906  0.4505 -0.2279 -0.6816
 4947TIP3    H214848   4.446   3.828   3.906 -0.3078  0.8136 -2.7341
 4948TIP3   OH214849   1.997   2.561   3.931  0.1310  0.3535  0.3591
 4948TIP3    H114850   2.064   2.496   3.910 -0.2129 -0.0734  0.5514
 4948TIP3    H214851   2.010   2.631   3.867 -0.8940 -0.8999 -1.3097
 4949TIP3   OH214852   5.425   0.400   3.891  0.1233  0.3338  0.2542
 4949TIP3    H114853   5.499   0.343   3.911 -0.7108 -0.7340  0.3638
 4949TIP3    H214854   5.406   0.384   3.798 -0.4810 -0.0345  0.4294
 4950TIP3   OH214855   3.307   4.750   4.457  0.2517  0.2176  0.3093
 4950TIP3    H114856   3.318   4.759   4.551  2.1977 -0.9243  0.2538
 4950TIP3    H214857   3.332   4.835   4.421 -1.7354  1.0792  0.8450
 4951TIP3   OH214858   4.647   1.764   3.307 -0.4402  0.2618  0.3827
 4951TIP3    H114859   4.567   1.727   3.270  0.0445 -0.2014 -0.2264
 4951TIP3    H214860   4.715   1.701   3.283  0.4830  1.7079 -1.0176
 4952TIP3   OH214861   3.278   0.470   4.399  0.4246  0.2612  0.1347
 4952TIP3    H114862   3.243   0.519   4.474  0.4753  1.6849 -0.7258
 4952TIP3    H214863   3.372   0.484   4.403  0.5962 -0.9688  0.6768
 4953TIP3   OH214864   4.017   4.817   4.786  0.1753 -0.1692  0.0924
 4953TIP3    H114865   4.056   4.902   4.808 -0.5361  0.3155 -0.4722
 4953TIP3    H214866   4.091   4.756   4.786  0.6031  0.3097  1.1607
 4954TIP3   OH214867   2.538   1.085   2.948 -0.5222 -0.1724 -0.2434
 4954TIP3    H114868   2.481   1.010   2.963 -0.0320 -0.5646 -0.3131
 4954TIP3    H214869   2.512   1.119   2.863  0.0449 -0.9872 -0.7545
 4955TIP3   OH214870   3.139   1.619   2.448 -0.6420 -0.4697  0.2717
 4955TIP3    H114871   3.096   1.560   2.510 -1.8346  1.3300  1.2259
 4955TIP3    H214872   3.177   1.688   2.502  1.0764 -0.5203 -0.7964
 4956TIP3   OH214873   0.201   3.382   4.669  0.0928 -0.1047  0.0063
 4956TIP3    H114874   0.281   3.356   4.624  0.4739 -2.0707  1.6334
 4956TIP3    H214875   0.131   3.368   4.604  0.5930 -3.0439 -0.0315
 4957TIP3   OH214876   2.786   1.887   2.825 -0.0294 -0.0257 -0.1850
 4957TIP3    H114877   2.761   1.979   2.833  2.4991  0.7304 -0.2297
 4957TIP3    H214878   2.716   1.840   2.871 -0.6164  2.0237  1.1717
 4958TIP3   OH214879   5.637   2.947   2.654  0.6498 -0.5652  0.0364
 4958TIP3    H114880   5.725   2.958   2.690 -0.2773  1.7988  1.8374
 4958TIP3    H214881   5.644   2.976   2.563  1.3694  1.6081  0.7294
 4959TIP3   OH214882   5.278   5.277   1.067  0.4581  0.2685  0.2642
 4959TIP3    H114883   5.232   5.250   0.987  0.5821 -1.5809  0.7664
 4959TIP3    H214884   5.259   5.207   1.129  2.7727  0.1948  0.9507
 4960TIP3   OH214885   1.425   1.372   4.332 -0.1749  0.7326  0.0811
 4960TIP3    H114886   1.382   1.353   4.415  1.6211 -1.5801  0.5707
 4960TIP3    H214887   1.368   1.333   4.266 -0.2432  0.1606  0.4725
 4961TIP3   OH214888   0.507   5.532   0.339  0.3105  0.0942 -0.2122
 4961TIP3    H114889   0.531   5.597   0.406 -1.0047 -0.6288  1.0078
 4961TIP3    H214890   0.514   5.448   0.384 -0.4031 -0.4173 -1.0361
 4962TIP3   OH214891   0.442   3.931   1.406  0.0182 -0.0267  0.1275
 4962TIP3    H114892   0.353   3.896   1.400 -0.0520  0.2977 -0.8121
 4962TIP3    H214893   0.431   4.026   1.401  0.3770  0.0436  0.5982
 4963TIP3   OH214894   1.062   1.196   0.750 -0.4033  0.3709 -0.0821
 4963TIP3    H114895   1.054   1.180   0.656  0.3521 -0.6668  0.0128
 4963TIP3    H214896   1.032   1.286   0.762 -1.2517  0.2547 -1.2019
 4964TIP3   OH214897   5.894   5.774   1.714  0.0204 -0.2916 -0.2025
 4964TIP3    H114898   5.967   5.797   1.772 -0.2501  0.3159 -0.0956
 4964TIP3    H214899   5.856   5.696   1.753  0.1837 -0.2052  0.1338
 4965TIP3   OH214900   0.799   4.168   1.388 -0.7458  0.3641  0.0711
 4965TIP3    H114901   0.754   4.241   1.345 -0.1182  0.3341 -0.6606
 4965TIP3    H214902   0.864   4.139   1.324  0.5520  0.6144  1.2376
 4966TIP3   OH214903   3.716   1.181   4.737 -0.3127  0.3791 -0.2693
 4966TIP3    H114904   3.769   1.171   4.816  0.5755 -1.1716 -1.0085
 4966TIP3    H214905   3.634   1.136   4.757  0.7156 -1.9236 -0.8908
 4967TIP3   OH214906   4.495   5.787   2.948 -0.3432  0.2208  0.2440
 4967TIP3    H114907   4.558   5.803   2.878  1.2048 -1.2490  1.2374
 4967TIP3    H214908   4.520   5.846   3.018 -0.2700 -0.1205  0.5111
 4968TIP3   OH214909   5.277   3.937   4.157  0.1828  0.0097 -0.0060
 4968TIP3    H114910   5.213   3.966   4.092 -0.7342 -1.5463  0.1769
 4968TIP3    H214911   5.225   3.904   4.230  0.9767 -4.1254 -1.0483
 4969TIP3   OH214912   4.407   0.064   2.259 -0.3323  0.3013 -0.3092
 4969TIP3    H114913   4.320   0.023   2.260  0.1911 -0.9014  1.6516
 4969TIP3    H214914   4.468  -0.010   2.266  0.8003  1.2064 -0.3796
 4970TIP3   OH214915   5.413   2.803   4.365 -0.3072  0.4428 -0.0450
 4970TIP3    H114916   5.348   2.733   4.377 -0.1191  0.3737  0.6141
 4970TIP3    H214917   5.483   2.762   4.313  0.0674 -0.0379  0.8162
 4971TIP3   OH214918   2.126   3.042   2.443 -0.1980  0.3705  0.7777
 4971TIP3    H114919   2.111   2.997   2.526  0.1208 -2.0128 -0.3745
 4971TIP3    H214920   2.086   2.986   2.377  0.1652  1.8408 -0.7733
 4972TIP3   OH214921   6.321   3.554   4.507  0.1738 -0.4061 -0.0862
 4972TIP3    H114922   6.278   3.639   4.517 -2.1248 -1.3821 -0.9129
 4972TIP3    H214923   6.274   3.512   4.435  0.2698 -2.9170  1.1996
 4973TIP3   OH214924   3.313   5.728   3.984 -0.0447  0.3676 -0.3120
 4973TIP3    H114925   3.333   5.672   3.909 -0.1460  0.9303 -0.7590
 4973TIP3    H214926   3.219   5.740   3.982 -0.1795 -0.4264  0.4898
 4974TIP3   OH214927   3.565   5.619   4.775  0.1109  1.0620 -0.6843
 4974TIP3    H114928   3.654   5.583   4.772 -0.8517 -1.5388 -0.8306
 4974TIP3    H214929   3.575   5.711   4.750  2.8071  0.9963 -0.1331
 4975TIP3   OH214930   5.604   0.293   0.945 -0.9183  0.1185 -0.3371
 4975TIP3    H114931   5.623   0.237   1.020 -1.2675 -0.7197 -0.8586
 4975TIP3    H214932   5.595   0.381   0.982 -1.2246 -0.3055  0.6143
 4976TIP3   OH214933   6.014   3.130   4.107  0.1089  0.1506 -0.7223
 4976TIP3    H114934   5.932   3.083   4.093 -0.4304  0.4531  1.1041
 4976TIP3    H214935   6.027   3.127   4.202  0.8264  2.3774 -0.6941
 4977TIP3   OH214936   2.082   0.356   1.007 -0.1113 -0.2859  0.0158
 4977TIP3    H114937   2.142   0.402   1.065 -1.2492 -1.3898  2.2050
 4977TIP3    H214938   2.003   0.410   1.006 -0.3094 -0.5697 -0.0304
 4978TIP3   OH214939   4.745   4.502   3.858 -0.3299  0.0530 -0.3024
 4978TIP3    H114940   4.676   4.545   3.908  1.2801  3.3423 -0.6771
 4978TIP3    H214941   4.802   4.463   3.924 -0.6870  0.3524  0.1899
 4979TIP3   OH214942   6.261   5.402   2.590  0.1710  0.2236  0.4333
 4979TIP3    H114943   6.180   5.426   2.544 -1.0682  0.1065  2.4365
 4979TIP3    H214944   6.280   5.313   2.558  0.8165  1.0583 -1.7022
 4980TIP3   OH214945   2.367   0.425   2.266  0.1771 -0.6795  0.3657
 4980TIP3    H114946   2.425   0.500   2.281 -2.0560  1.0016  1.1762
 4980TIP3    H214947   2.291   0.443   2.321 -1.6235 -2.1685 -1.4985
 4981TIP3   OH214948   5.019   4.674   3.156  0.2141  0.5215 -0.1363
 4981TIP3    H114949   4.925   4.664   3.141 -0.1203  0.4324  1.8398
 4981TIP3    H214950   5.049   4.723   3.080 -0.9736 -1.4287 -2.0148
 4982TIP3   OH214951   0.235   3.816   1.156 -0.2331  0.4901 -0.3772
 4982TIP3    H114952   0.164   3.880   1.142 -2.1877 -0.6925  2.8681
 4982TIP3    H214953   0.219   3.783   1.245  3.4181 -1.1842 -0.1896
 4983TIP3   OH214954   0.263   2.372   0.718 -0.4405  0.2286  0.2287
 4983TIP3    H114955   0.285   2.385   0.810 -0.6111 -2.2968  0.6907
 4983TIP3    H214956   0.168   2.381   0.714 -0.5778 -0.9114  0.5761
 4984TIP3   OH214957   5.604   3.102   4.378  0.1946  0.6206  0.1886
 4984TIP3    H114958   5.613   3.101   4.473  2.1400  0.2695  0.0472
 4984TIP3    H214959   5.617   3.010   4.352 -0.5387  0.6767 -0.4033
 4985TIP3   OH214960   5.178   4.538   3.333 -0.2405  0.8631 -0.0917
 4985TIP3    H114961   5.116   4.552   3.404 -0.8205 -0.2450 -0.3681
 4985TIP3    H214962   5.148   4.596   3.263 -1.3176 -0.0735 -0.4291
 4986TIP3   OH214963   1.162   1.961   0.887  0.3157 -0.7184 -0.0534
 4986TIP3    H114964   1.166   1.942   0.793  1.4020 -2.5307  0.3007
 4986TIP3    H214965   1.247   1.933   0.921 -0.0987 -0.2027  1.4937
 4987TIP3   OH214966   1.627   4.629   4.905 -0.2337  0.0524  0.1835
 4987TIP3    H114967   1.605   4.559   4.843 -0.4978  0.1501  0.1646
 4987TIP3    H214968   1.615   4.590   4.991 -0.9071  0.2309  0.1761
 4988TIP3   OH214969   4.842   4.935   5.128 -0.1760 -0.1064 -0.5747
 4988TIP3    H114970   4.847   4.901   5.217 -1.9583  0.6842 -0.1273
 4988TIP3    H214971   4.749   4.948   5.112  0.1580  0.5980 -2.2473
 4989TIP3   OH214972   2.372   3.111   0.856 -0.0047 -0.2983 -0.2585
 4989TIP3    H114973   2.356   3.204   0.840  1.3290 -0.1018 -0.5498
 4989TIP3    H214974   2.389   3.074   0.770 -0.8684 -0.8979 -0.1862
 4990TIP3   OH214975   5.927   2.050   0.178  0.7116  0.1593 -0.1688
 4990TIP3    H114976   5.969   2.072   0.094 -0.2295  0.8797 -0.4705
 4990TIP3    H214977   5.948   1.958   0.191  0.7893  0.0008 -1.2604
 4991TIP3   OH214978   6.153   3.824   3.848  0.3212 -0.2056  0.2659
 4991TIP3    H114979   6.185   3.771   3.775  2.1520  2.2061 -0.8318
 4991TIP3    H214980   6.187   3.781   3.926 -0.0310 -1.7674 -0.4054
 4992TIP3   OH214981   4.509   0.936   2.861 -0.2215 -0.2837  0.1269
 4992TIP3    H114982   4.525   0.890   2.779  0.9929 -0.4197  0.4267
 4992TIP3    H214983   4.414   0.931   2.873 -0.3307 -0.9016 -0.8853
 4993TIP3   OH214984   2.802   4.339   1.411  0.1100 -0.7752 -0.4842
 4993TIP3    H114985   2.856   4.262   1.428  0.9284 -0.1500 -0.1609
 4993TIP3    H214986   2.863   4.413   1.419 -0.5550 -0.1278 -1.2501
 4994TIP3   OH214987   2.520   0.961   0.649 -0.8264  0.0244  0.3285
 4994TIP3    H114988   2.490   0.930   0.563  1.5165 -1.3569 -0.0801
 4994TIP3    H214989   2.587   0.898   0.675  1.6837  2.7787  1.1465
 4995TIP3   OH214990   1.946   2.332   3.355 -0.5615 -0.2339 -0.0752
 4995TIP3    H114991   1.958   2.241   3.383 -4.2185 -1.1618 -0.9762
 4995TIP3    H214992   1.924   2.379   3.435 -0.7729 -0.6210  0.0999
 4996TIP3   OH214993   3.752   3.077   4.190 -0.1646 -0.6754  0.5771
 4996TIP3    H114994   3.704   3.010   4.237  0.6938 -1.5675  0.2320
 4996TIP3    H214995   3.843   3.066   4.219  0.3722 -1.1908 -1.1555
 4997TIP3   OH214996   4.656   4.146   2.466 -0.5290  0.0115  0.0402
 4997TIP3    H114997   4.678   4.055   2.487 -1.9517 -0.3457  0.0878
 4997TIP3    H214998   4.714   4.168   2.393 -0.0465 -0.8866  0.1367
 4998TIP3   OH214999   2.577   3.554   5.077 -0.0617  0.6487 -0.1242
 4998TIP3    H115000   2.646   3.608   5.040  0.3123  1.0019  1.0692
 4998TIP3    H215001   2.497   3.603   5.061  0.1497  1.0217 -0.0357
 4999TIP3   OH215002   0.245   3.849   2.473 -0.6819  0.2651  0.4094
 4999TIP3    H115003   0.276   3.761   2.494  0.5839  0.2402 -1.3259
 4999TIP3    H215004   0.286   3.905   2.539  1.0173 -0.1002 -0.2918
 5000TIP3   OH215005   3.597   0.388   0.841 -0.4235 -0.0484  0.0568
 5000TIP3    H115006   3.640   0.360   0.922 -0.5073  1.3466  0.6150
 5000TIP3    H215007   3.601   0.311   0.784  0.4192 -0.7867  1.0619
 5001TIP3   OH215008   4.634   2.877   3.464 -0.0242 -0.2700 -0.2534
 5001TIP3    H115009   4.672   2.905   3.547  1.6842 -1.2606 -0.6557
 5001TIP3    H215010   4.694   2.910   3.397 -0.9946 -0.1020 -1.0813
 5002TIP3   OH215011   0.528   3.401   2.510 -0.2206 -0.0231  0.1020
 5002TIP3    H115012   0.537   3.316   2.468 -0.1497 -0.4224  0.9108
 5002TIP3    H215013   0.559   3.388   2.600 -0.3944  0.8024  0.2971
 5003TIP3   OH215014   3.464   1.979   5.128  0.5526  0.2991 -0.6915
 5003TIP3    H115015   3.455   1.885   5.110 -0.9510  0.2835  0.0401
 5003TIP3    H215016   3.426   2.021   5.051 -1.4089  0.2549  0.1903
 5004TIP3   OH215017   3.490   3.893   0.066 -0.1933 -0.8022  0.1581
 5004TIP3    H115018   3.399   3.873   0.043 -1.2052 -0.3835  3.3868
 5004TIP3    H215019   3.529   3.807   0.084 -0.3177 -0.8837  0.0464
 5005TIP3   OH215020   4.581   3.040   4.785  0.3494  0.4597 -0.1520
 5005TIP3    H115021   4.636   3.060   4.860  1.7675  0.5959 -1.1924
 5005TIP3    H215022   4.553   2.949   4.800  0.3415  0.5924  0.6897
 5006TIP3   OH215023   1.312   5.825   3.588 -0.1536  0.3745  0.1929
 5006TIP3    H115024   1.230   5.793   3.626 -0.1941 -0.5936 -0.6622
 5006TIP3    H215025   1.293   5.916   3.564 -0.3785  0.7470  1.7064
 5007TIP3   OH215026   2.476   1.801   3.606 -0.1756  0.1997  0.1239
 5007TIP3    H115027   2.495   1.795   3.700  2.3641 -0.7379 -0.3580
 5007TIP3    H215028   2.382   1.818   3.602 -0.0765  2.1154  2.8541
 5008TIP3   OH215029   5.439   3.802   2.615 -0.4838  0.2937  0.3880
 5008TIP3    H115030   5.399   3.805   2.527 -1.3890  0.2786  0.7883
 5008TIP3    H215031   5.533   3.802   2.598 -0.5886  2.3400 -0.5315
 5009TIP3   OH215032   4.581   2.479   4.225  0.2174 -0.3684 -0.2150
 5009TIP3    H115033   4.523   2.424   4.278  1.4226 -1.5003  0.0055
 5009TIP3    H215034   4.662   2.428   4.219  0.6359  0.4303 -1.8621
 5010TIP3   OH215035   2.985   4.120   1.208  0.2130  0.6370  0.3943
 5010TIP3    H115036   3.006   4.030   1.184  0.4762  0.2480  1.9791
 5010TIP3    H215037   2.906   4.141   1.158 -0.2941 -0.7374  0.5985
 5011TIP3   OH215038   1.814   0.302   2.286  0.0831 -0.4660 -0.3759
 5011TIP3    H115039   1.839   0.327   2.197 -1.6820 -0.0322 -0.8021
 5011TIP3    H215040   1.865   0.360   2.343  1.2686 -0.7898 -1.0950
 5012TIP3   OH215041   4.445   0.670   4.529  0.0248  0.1982  0.5738
 5012TIP3    H115042   4.390   0.678   4.451 -1.4677 -0.0418  1.5717
 5012TIP3    H215043   4.485   0.757   4.539 -0.1223  0.3614 -0.1801
 5013TIP3   OH215044   0.306   5.169   2.970  0.1081  0.3392  0.4416
 5013TIP3    H115045   0.241   5.121   2.919  1.0475 -0.2626 -0.2201
 5013TIP3    H215046   0.280   5.154   3.061  0.3404 -1.4358  0.2598
 5014TIP3   OH215047   1.147   4.894   0.318 -0.1784  0.3520 -0.7596
 5014TIP3    H115048   1.225   4.943   0.345 -0.7281 -0.2278  2.1813
 5014TIP3    H215049   1.173   4.802   0.325 -0.5952  0.1668 -1.5653
 5015TIP3   OH215050   0.405   1.651   1.868  0.3545 -0.3028  0.6466
 5015TIP3    H115051   0.435   1.622   1.781 -1.4282 -0.6994  0.1347
 5015TIP3    H215052   0.397   1.746   1.859 -1.0134 -0.4621 -0.0377
 5016TIP3   OH215053   0.688   2.917   3.359 -0.0199  0.0614  0.5004
 5016TIP3    H115054   0.782   2.904   3.372 -0.2334 -1.3718  0.8412
 5016TIP3    H215055   0.664   2.985   3.421  1.0990  1.8315 -0.8959
 5017TIP3   OH215056   5.332   1.267   1.881  0.1688 -0.0309  0.1333
 5017TIP3    H115057   5.415   1.281   1.928 -0.0718  1.1490  0.2501
 5017TIP3    H215058   5.276   1.338   1.911 -0.8308 -0.7134 -0.0928
 5018TIP3   OH215059   4.795   4.647   2.296 -0.1028  0.6636 -0.3989
 5018TIP3    H115060   4.831   4.592   2.366 -1.4367  0.2401 -0.0273
 5018TIP3    H215061   4.714   4.682   2.332 -0.1348  1.5157 -1.2643
 5019TIP3   OH215062   5.053   2.805   1.071  0.0504  0.0351 -0.2279
 5019TIP3    H115063   4.987   2.844   1.013 -1.0531 -0.6866  0.4842
 5019TIP3    H215064   5.122   2.870   1.076 -1.5088  1.7402  0.5451
 5020TIP3   OH215065   3.249   1.454   0.316  0.5078  0.2267  0.4404
 5020TIP3    H115066   3.177   1.397   0.288  0.8869 -0.8689  1.5885
 5020TIP3    H215067   3.210   1.542   0.319 -0.4127 -0.1436 -0.2325
 5021TIP3   OH215068   3.186   2.950   2.902 -0.2552 -0.4362  0.2621
 5021TIP3    H115069   3.270   2.932   2.944  0.0442  0.1559 -0.0637
 5021TIP3    H215070   3.161   3.037   2.934 -0.9733 -0.8047  0.7142
 5022TIP3   OH215071   0.718   4.962   3.281  0.2120 -0.0901  0.0007
 5022TIP3    H115072   0.806   4.982   3.313  0.2979 -1.0007  0.3657
 5022TIP3    H215073   0.692   5.041   3.233  0.2261  1.2145  1.9879
 5023TIP3   OH215074   0.805   0.962   2.439  0.7480 -0.1590  0.1951
 5023TIP3    H115075   0.813   0.952   2.344  3.9557 -0.2087  0.3693
 5023TIP3    H215076   0.814   1.056   2.455 -0.7731 -0.0240  0.4471
 5024TIP3   OH215077   3.549   5.153   2.660 -0.0887 -0.6543 -0.0067
 5024TIP3    H115078   3.509   5.206   2.730 -1.3323  0.7702 -1.7140
 5024TIP3    H215079   3.498   5.175   2.582  1.2255 -2.2484 -1.3690
 5025TIP3   OH215080   3.297   2.215   4.633  0.3357 -0.5508 -0.5209
 5025TIP3    H115081   3.377   2.266   4.646  0.7422 -0.9615 -1.3446
 5025TIP3    H215082   3.304   2.143   4.695  0.7141 -0.7031 -0.7361
 5026TIP3   OH215083   3.239   2.469   3.225  0.0841 -0.6747  0.0816
 5026TIP3    H115084   3.210   2.465   3.316 -1.5903  1.8013 -0.2329
 5026TIP3    H215085   3.248   2.563   3.207  2.0928 -1.1604 -1.8135
 5027TIP3   OH215086   3.788   4.599   0.725 -0.1076 -0.2507 -0.5365
 5027TIP3    H115087   3.869   4.610   0.676  0.7205  0.5169  0.9173
 5027TIP3    H215088   3.740   4.681   0.711  0.2705  0.0980  0.1429
 5028TIP3   OH215089   1.997   2.249   4.669  0.0840  0.1700 -0.1982
 5028TIP3    H115090   2.043   2.296   4.739  0.3489  0.9733 -0.8864
 5028TIP3    H215091   1.905   2.256   4.692  0.2834 -1.8869  1.4663
 5029TIP3   OH215092   0.866   3.170   2.054 -0.8590 -0.5755 -0.4097
 5029TIP3    H115093   0.831   3.190   1.967  0.6964 -0.9827 -1.1853
 5029TIP3    H215094   0.925   3.096   2.039  0.2705  0.0352  0.7988
 5030TIP3   OH215095   1.951   5.333   3.315 -0.1283  0.1167  0.5553
 5030TIP3    H115096   1.948   5.238   3.320 -0.9951  0.1913  2.0132
 5030TIP3    H215097   1.884   5.363   3.376 -2.9542  1.6421 -2.9481
 5031TIP3   OH215098   2.807   2.081   4.423  0.1635 -0.5269  0.5114
 5031TIP3    H115099   2.807   2.038   4.509 -1.1312  0.2348  0.9183
 5031TIP3    H215100   2.717   2.074   4.393  0.3689  0.1763 -0.3018
 5032TIP3   OH215101   4.762   3.150   3.289  0.1786  0.4373  0.0517
 5032TIP3    H115102   4.806   3.193   3.215 -0.0183  1.8520  0.7072
 5032TIP3    H215103   4.803   3.064   3.295 -1.2086 -0.5440 -2.9438
 5033TIP3   OH215104   0.899   3.678   0.043 -0.0994 -0.1041  0.0708
 5033TIP3    H115105   0.893   3.762   0.087 -1.2041 -0.1455  0.0279
 5033TIP3    H215106   0.928   3.699  -0.046 -2.0756  0.4515 -0.4975
 5034TIP3   OH215107   0.478   4.413   4.245 -0.1235  0.6087 -0.2645
 5034TIP3    H115108   0.558   4.368   4.218 -0.0971  1.5642 -1.9850
 5034TIP3    H215109   0.508   4.488   4.296  0.0576  0.6749 -0.4673
 5035TIP3   OH215110   3.907   0.856   4.641 -0.3659 -0.3718  1.3448
 5035TIP3    H115111   3.852   0.850   4.719 -2.5583 -1.3631 -0.2026
 5035TIP3    H215112   3.969   0.926   4.661 -1.2099 -0.2314  3.7492
 5036TIP3   OH215113   5.733   0.539   2.180 -0.1119  0.5638  0.1514
 5036TIP3    H115114   5.679   0.471   2.220 -0.2056  0.4354 -0.1881
 5036TIP3    H215115   5.735   0.516   2.087  3.9341 -1.9353  0.6072
 5037TIP3   OH215116   4.011   5.480   3.127  0.3514 -0.2933  0.0334
 5037TIP3    H115117   4.089   5.534   3.113  0.7442 -0.5485  1.1536
 5037TIP3    H215118   3.957   5.530   3.188  0.0645 -0.5446 -0.0084
 5038TIP3   OH215119   4.036   1.122   4.764  0.4761  0.0761  0.2543
 5038TIP3    H115120   4.120   1.167   4.749  0.2501  1.2169  2.1494
 5038TIP3    H215121   4.060   1.042   4.811  0.5434  0.2147  0.4581
 5039TIP3   OH215122   3.089   3.628   4.412 -0.3938  0.4161 -0.0947
 5039TIP3    H115123   3.180   3.644   4.437 -0.4324  0.9818 -0.3051
 5039TIP3    H215124   3.037   3.674   4.477 -0.5385 -0.0120  0.0987
 5040TIP3   OH215125   4.841   3.752   2.228  0.2696  0.3841  0.1065
 5040TIP3    H115126   4.857   3.815   2.158 -0.1016  1.7390  1.1910
 5040TIP3    H215127   4.870   3.668   2.193 -0.7976  0.8445 -2.0040
 5041TIP3   OH215128   3.666   2.953   5.065 -0.4084  0.3159 -0.0115
 5041TIP3    H115129   3.576   2.984   5.061 -0.2856  0.6659 -0.1100
 5041TIP3    H215130   3.719   3.031   5.052 -0.0873  0.1505  0.2694
 5042TIP3   OH215131   2.541   3.051   0.292  0.0469 -0.0297  0.2815
 5042TIP3    H115132   2.491   3.001   0.227 -1.1362  0.1543  1.0138
 5042TIP3    H215133   2.565   2.986   0.358  0.6098 -0.0777  0.0315
 5043TIP3   OH215134   0.659   5.851   1.033  0.5877 -0.3799 -0.0169
 5043TIP3    H115135   0.727   5.811   0.979 -1.5188 -0.6923 -2.6343
 5043TIP3    H215136   0.583   5.795   1.021 -0.4439  0.5091  2.0083
 5044TIP3   OH215137   4.259   3.777   4.990 -0.1907  0.1840 -0.0278
 5044TIP3    H115138   4.181   3.739   5.033 -0.2213 -0.4635 -0.6389
 5044TIP3    H215139   4.230   3.798   4.902  0.2620  0.1584 -0.1847
 5045TIP3   OH215140   5.775   2.274   1.386 -0.0684 -0.6800  0.0322
 5045TIP3    H115141   5.835   2.322   1.444 -1.1937  0.5235  0.2476
 5045TIP3    H215142   5.778   2.184   1.418  0.7502 -0.4117  0.7626
 5046TIP3   OH215143   0.084   2.422   5.185 -0.2861 -0.4004 -0.3687
 5046TIP3    H115144   0.006   2.424   5.130 -0.0848  0.6500 -0.6571
 5046TIP3    H215145   0.121   2.335   5.173 -1.3086 -0.8414 -0.3723
 5047TIP3   OH215146   5.759   3.544   0.787 -0.5237  0.4646 -0.2246
 5047TIP3    H115147   5.844   3.535   0.745  0.5339 -0.1969  1.8875
 5047TIP3    H215148   5.763   3.629   0.831 -0.1115 -0.3758  1.4787
 5048TIP3   OH215149   1.718   5.756   4.147  0.6218  0.2003  0.2467
 5048TIP3    H115150   1.658   5.824   4.118 -0.2876 -0.6603  0.0762
 5048TIP3    H215151   1.733   5.701   4.070  1.3948  0.2261  0.3645
 5049TIP3   OH215152   3.927   2.656   1.184 -0.4131 -0.0458  0.0752
 5049TIP3    H115153   3.997   2.687   1.241 -1.4978 -0.1749  1.5223
 5049TIP3    H215154   3.847   2.698   1.218 -1.1938 -0.6399 -0.9431
 5050TIP3   OH215155   1.315   3.551   3.947 -0.1625 -0.3680  0.3829
 5050TIP3    H115156   1.249   3.521   3.885 -1.7428 -0.6016  2.1250
 5050TIP3    H215157   1.355   3.471   3.981  0.1136 -0.2588  0.3251
 5051TIP3   OH215158   0.626   2.250   2.617 -0.1146 -0.4393  0.1104
 5051TIP3    H115159   0.687   2.194   2.664  0.3771 -2.0665 -2.2914
 5051TIP3    H215160   0.671   2.273   2.536 -1.7250  0.4297 -0.5981
 5052TIP3   OH215161   0.193   4.087   0.646  0.8511  0.2177  0.3950
 5052TIP3    H115162   0.146   4.024   0.699  2.1991 -0.7533  0.5003
 5052TIP3    H215163   0.253   4.130   0.707  2.1216 -0.6171 -0.1986
 5053TIP3   OH215164   5.793   4.258   1.810  0.4285  0.3217 -0.7292
 5053TIP3    H115165   5.867   4.198   1.824 -0.8949 -1.1068  0.4162
 5053TIP3    H215166   5.723   4.202   1.777 -1.3343  0.8839  1.7944
 5054TIP3   OH215167   5.403   0.787   1.702  0.8802  0.1679  0.1227
 5054TIP3    H115168   5.435   0.793   1.611  3.6194 -1.0533  0.8974
 5054TIP3    H215169   5.430   0.870   1.742  0.2745  0.4233  0.0112
 5055TIP3   OH215170   1.941   0.294   1.433  0.1886  0.2441  0.1804
 5055TIP3    H115171   1.971   0.372   1.385 -1.9410 -0.4084 -2.4450
 5055TIP3    H215172   1.846   0.292   1.419 -0.0652 -1.8414  1.7260
 5056TIP3   OH215173   0.324   3.392   4.232  0.1268  0.3844  0.6080
 5056TIP3    H115174   0.363   3.405   4.318  0.3722 -0.3723  0.6221
 5056TIP3    H215175   0.284   3.476   4.210  2.2873  1.4073  0.3167
 5057TIP3   OH215176   2.205   5.249   3.625 -0.4280  0.5430 -0.2388
 5057TIP3    H115177   2.207   5.282   3.535  0.5422  2.7983  0.5257
 5057TIP3    H215178   2.224   5.326   3.679 -1.8900 -0.5414  1.9741
 5058TIP3   OH215179   4.622   4.420   2.108 -0.4241  0.4202 -0.2251
 5058TIP3    H115180   4.678   4.496   2.090 -0.2162  0.4602  0.5316
 5058TIP3    H215181   4.579   4.441   2.191 -1.8944  0.5713 -0.9772
 5059TIP3   OH215182   5.307   2.347   4.208  0.0810 -0.3801  0.2248
 5059TIP3    H115183   5.249   2.376   4.138  0.6097 -1.0694 -0.5243
 5059TIP3    H215184   5.249   2.317   4.277 -0.4815 -1.8055 -0.8186
 5060TIP3   OH215185   5.773   4.397   0.196  0.5146  0.4213  0.3825
 5060TIP3    H115186   5.860   4.375   0.231  0.5488 -0.9225 -0.4695
 5060TIP3    H215187   5.790   4.421   0.105 -0.1010 -0.9365 -0.1173
 5061TIP3   OH215188   1.769   5.122   2.190 -0.3224 -0.2072  0.2772
 5061TIP3    H115189   1.780   5.181   2.116  0.0510 -0.1688  0.3619
 5061TIP3    H215190   1.682   5.082   2.177 -0.8678  0.8540  0.5851
 5062TIP3   OH215191   0.100   0.336   2.120  0.0989  0.3246  0.5272
 5062TIP3    H115192   0.121   0.357   2.210  0.3449 -0.2148  0.5985
 5062TIP3    H215193   0.125   0.244   2.110  0.6542  0.5543 -0.2662
 5063TIP3   OH215194   6.265   1.550   0.394  0.3708  0.7719 -0.0096
 5063TIP3    H115195   6.323   1.524   0.466  2.3556  0.2050 -1.7337
 5063TIP3    H215196   6.319   1.606   0.338 -1.1148  1.1857 -1.0958
 5064TIP3   OH215197   5.506   3.275   4.181 -0.2577  0.0969  0.2629
 5064TIP3    H115198   5.530   3.214   4.250  0.2331 -0.2458 -0.1988
 5064TIP3    H215199   5.427   3.319   4.213  1.3292  1.7594  2.1650
 5065TIP3   OH215200   3.457   5.700   4.237 -0.1440  0.2593  0.2743
 5065TIP3    H115201   3.485   5.773   4.292  0.3992 -0.6154  1.1711
 5065TIP3    H215202   3.452   5.738   4.149 -0.8762  1.6280  0.8679
 5066TIP3   OH215203   5.065   5.715   4.296  0.0987 -0.0793  0.7118
 5066TIP3    H115204   5.066   5.808   4.321  1.3124  0.2676 -0.5371
 5066TIP3    H215205   5.045   5.715   4.203  2.8595 -0.8572  0.0392
 5067TIP3   OH215206   4.246   3.266   3.661  0.1817 -0.3728  0.4977
 5067TIP3    H115207   4.330   3.309   3.677 -0.1916  0.5585  0.0658
 5067TIP3    H215208   4.235   3.206   3.735  1.1832 -0.4519  0.6013
 5068TIP3   OH215209   4.757   1.565   2.440 -0.0688 -0.2301 -0.1231
 5068TIP3    H115210   4.746   1.490   2.499  0.4842 -0.3254 -0.1366
 5068TIP3    H215211   4.754   1.641   2.498 -3.5101 -0.0128 -0.3849
 5069TIP3   OH215212   2.825   4.759   3.687 -0.0193  0.3028 -0.3059
 5069TIP3    H115213   2.891   4.825   3.705  0.9780 -1.1476  1.7311
 5069TIP3    H215214   2.742   4.807   3.693  0.7143  1.6199 -0.1901
 5070TIP3   OH215215   4.752   4.402   4.267 -0.0632  0.0090  0.5701
 5070TIP3    H115216   4.805   4.478   4.245 -0.9662  0.6848  0.6789
 5070TIP3    H215217   4.710   4.425   4.349  0.1383 -0.8696  0.9347
 5071TIP3   OH215218   4.544   3.619   4.135  0.1587 -0.1967 -0.1920
 5071TIP3    H115219   4.602   3.674   4.083 -1.8656  1.9868 -0.3093
 5071TIP3    H215220   4.491   3.680   4.185 -1.0897 -2.1256  0.9972
 5072TIP3   OH215221   0.960   0.934   4.729 -0.5070  0.5513 -0.4441
 5072TIP3    H115222   1.032   0.997   4.731  1.1352 -1.0927 -2.6603
 5072TIP3    H215223   0.977   0.877   4.804 -2.2905  2.8406  1.8902
 5073TIP3   OH215224   5.784   4.152   3.679 -0.2748 -0.0322  0.2570
 5073TIP3    H115225   5.692   4.166   3.702  0.1787  1.7931  1.0928
 5073TIP3    H215226   5.807   4.071   3.724 -1.6852 -0.9929 -0.6599
 5074TIP3   OH215227   5.976   1.538   3.654 -0.2621  0.9269  0.6186
 5074TIP3    H115228   5.936   1.531   3.567  1.2724  1.0253 -0.1176
 5074TIP3    H215229   6.013   1.452   3.671 -0.4604  0.9402  1.1299
 5075TIP3   OH215230   1.387   1.959   2.328 -0.4187  0.0971  0.4503
 5075TIP3    H115231   1.389   1.869   2.294  1.5373  0.4531 -0.5220
 5075TIP3    H215232   1.325   2.005   2.272  1.0421  0.1022 -1.2519
 5076TIP3   OH215233   3.312   1.399   3.699  0.0070 -0.2567  0.0229
 5076TIP3    H115234   3.332   1.354   3.617 -0.4384 -0.9685  0.2942
 5076TIP3    H215235   3.262   1.335   3.750  3.6703 -1.3924  2.5476
 5077TIP3   OH215236   5.962   1.081   1.170  0.2489  0.4924 -0.3602
 5077TIP3    H115237   5.887   1.121   1.126  0.3398  2.5107  1.1856
 5077TIP3    H215238   5.924   1.039   1.248  0.7332  2.3655  0.9685
 5078TIP3   OH215239   2.496   5.430   3.212  0.5586 -0.2759 -0.1127
 5078TIP3    H115240   2.522   5.507   3.262  0.4533  0.3697 -1.0152
 5078TIP3    H215241   2.551   5.434   3.133 -0.2680 -0.4786 -0.7052
 5079TIP3   OH215242   4.350   4.521   2.139  0.3021  0.7962 -0.1578
 5079TIP3    H115243   4.299   4.525   2.059 -0.1386  2.3722  0.1543
 5079TIP3    H215244   4.437   4.552   2.114  1.1575 -1.7855 -0.6667
 5080TIP3   OH215245   0.157   0.829   1.929 -0.5801 -0.4322 -0.3330
 5080TIP3    H115246   0.152   0.903   1.868 -0.3622  0.2913  0.5048
 5080TIP3    H215247   0.096   0.853   2.000  1.7259  0.4402  1.4951
 5081TIP3   OH215248   1.833   2.455   4.474 -0.4791  0.4370 -0.0156
 5081TIP3    H115249   1.876   2.378   4.436  1.6256  1.9608 -0.9424
 5081TIP3    H215250   1.886   2.477   4.550 -1.6039  0.4802  0.7839
 5082TIP3   OH215251   3.680   3.138   3.442 -0.1494 -0.3749 -0.1470
 5082TIP3    H115252   3.681   3.188   3.360  0.9241  0.6900  0.4760
 5082TIP3    H215253   3.761   3.087   3.440 -0.8273 -1.4790 -0.3846
 5083TIP3   OH215254   0.662   5.794   1.770 -0.6178 -0.3744 -0.9766
 5083TIP3    H115255   0.708   5.712   1.756  3.9805  2.1826 -2.9866
 5083TIP3    H215256   0.639   5.824   1.682 -3.0539  0.2233 -0.2324
 5084TIP3   OH215257   0.036   1.293   1.766  0.0545 -0.2984  0.2538
 5084TIP3    H115258   0.063   1.339   1.687 -1.6042  0.7317  0.2355
 5084TIP3    H215259  -0.060   1.298   1.765 -0.0434 -1.2858  1.7310
 5085TIP3   OH215260   5.491   0.018   2.598 -0.7117 -0.3729 -0.2920
 5085TIP3    H115261   5.549   0.082   2.557 -2.1278  1.1773  0.0225
 5085TIP3    H215262   5.405   0.059   2.596 -1.8363 -2.5695 -0.7095
 5086TIP3   OH215263   2.286   5.061   4.669  0.3658  0.3429  0.2163
 5086TIP3    H115264   2.316   4.977   4.705  0.0252 -0.7914 -1.9543
 5086TIP3    H215265   2.351   5.124   4.699  1.7877 -1.0617  0.2398
 5087TIP3   OH215266   6.171   4.677   0.061  0.3893 -0.6184 -0.0616
 5087TIP3    H115267   6.153   4.630   0.142 -2.2634  0.0012 -0.2034
 5087TIP3    H215268   6.150   4.615  -0.009  0.1172 -0.3174 -0.2519
 5088TIP3   OH215269   6.206   4.060   0.011 -0.0177  0.2033 -0.7744
 5088TIP3    H115270   6.140   3.992  -0.001  1.2184 -1.1359 -0.3276
 5088TIP3    H215271   6.274   4.018   0.064  1.5623  1.2878 -1.8674
 5089TIP3   OH215272   6.100   0.211   4.414 -0.2946  0.5158 -0.1734
 5089TIP3    H115273   6.157   0.215   4.337 -0.7047 -1.1681 -0.6142
 5089TIP3    H215274   6.126   0.286   4.468  1.8509  0.1832 -0.6799
 5090TIP3   OH215275   2.186   3.404   4.860 -0.3991  0.0537  0.2777
 5090TIP3    H115276   2.098   3.442   4.857 -0.0759  0.7459 -1.4862
 5090TIP3    H215277   2.206   3.383   4.769  1.2147 -0.2234  0.6704
 5091TIP3   OH215278   0.207   3.739   2.941 -0.3326 -0.2726 -0.3913
 5091TIP3    H115279   0.250   3.670   2.991  0.5159  0.0128 -0.7115
 5091TIP3    H215280   0.227   3.719   2.850 -3.7068 -2.0699 -0.9021
 5092TIP3   OH215281   5.372   3.784   2.340 -0.5777 -0.8076 -0.7518
 5092TIP3    H115282   5.375   3.772   2.245 -0.9208 -0.9911 -0.7427
 5092TIP3    H215283   5.343   3.698   2.374  1.6085 -1.4250 -0.3198
 5093TIP3   OH215284   3.604   4.621   4.579 -0.1820  0.2941  0.5234
 5093TIP3    H115285   3.573   4.712   4.583 -1.0233 -0.0088  1.5004
 5093TIP3    H215286   3.699   4.628   4.579 -0.2143  1.1462  2.2436
 5094TIP3   OH215287   1.615   1.115   0.528  0.3369  0.7137  0.4842
 5094TIP3    H115288   1.534   1.164   0.517  0.0027 -0.0001 -0.3147
 5094TIP3    H215289   1.678   1.160   0.473 -0.1954 -0.2293 -0.9587
 5095TIP3   OH215290   1.243   3.102   1.770  0.2813  0.3283 -0.4807
 5095TIP3    H115291   1.244   3.168   1.839  0.4770  0.5159 -0.6623
 5095TIP3    H215292   1.334   3.095   1.741  0.0664  0.9464 -1.3690
 5096TIP3   OH215293   4.864   4.621   0.481  0.0969  0.5026 -0.2184
 5096TIP3    H115294   4.936   4.558   0.478 -0.7511 -0.5043  0.1314
 5096TIP3    H215295   4.869   4.667   0.397  1.5505  0.9249  0.0809
 5097TIP3   OH215296   2.236   4.015   0.003 -0.4601  0.4521  0.2095
 5097TIP3    H115297   2.309   4.032   0.063 -1.0304 -1.5079  1.5435
 5097TIP3    H215298   2.269   3.948  -0.056 -0.9862 -0.0061  0.4360
 5098TIP3   OH215299   2.447   2.054   1.285 -0.2961 -0.2796  0.4520
 5098TIP3    H115300   2.368   2.094   1.322 -1.2629 -0.4426 -1.3478
 5098TIP3    H215301   2.469   2.109   1.210  0.0033 -1.4992 -0.3821
 5099TIP3   OH215302   1.807   3.519   2.752  0.0884 -0.0347  0.3597
 5099TIP3    H115303   1.891   3.500   2.794  0.8359 -0.5114 -1.2750
 5099TIP3    H215304   1.749   3.450   2.783  1.1672 -1.5851 -0.8714
 5100TIP3   OH215305   3.834   3.154   4.767  0.5273 -0.6686 -0.1478
 5100TIP3    H115306   3.893   3.150   4.691 -1.1499 -1.2089 -1.4811
 5100TIP3    H215307   3.861   3.080   4.822  1.4248 -0.5859 -0.4531
 5101TIP3   OH215308   0.719   2.261   4.869 -0.1872  0.6770  0.5597
 5101TIP3    H115309   0.792   2.322   4.855  0.5610 -0.6248 -1.7039
 5101TIP3    H215310   0.646   2.299   4.821 -0.4163  0.9433  1.1096
 5102TIP3   OH215311   3.516   5.727   3.115 -0.2433  0.1614 -0.2841
 5102TIP3    H115312   3.574   5.795   3.081  0.4836  0.9354  2.2678
 5102TIP3    H215313   3.488   5.678   3.037  4.3969 -0.7671 -1.6440
 5103TIP3   OH215314   1.908   2.657   2.422  0.2035 -0.3283  0.0379
 5103TIP3    H115315   1.901   2.715   2.498  0.3412 -0.4433  0.1396
 5103TIP3    H215316   1.824   2.666   2.377  0.5338  0.5728 -0.4045
 5104TIP3   OH215317   3.870   2.965   3.372  0.2131 -0.0171 -0.1797
 5104TIP3    H115318   3.792   2.927   3.332 -0.3346  1.0381 -0.1493
 5104TIP3    H215319   3.943   2.927   3.324 -0.2897 -1.3125  0.0368
 5105TIP3   OH215320   4.790   4.653   2.033  0.6850 -0.0034 -0.1051
 5105TIP3    H115321   4.815   4.644   2.125 -0.0566 -0.6871  0.0390
 5105TIP3    H215322   4.870   4.637   1.984  0.6278 -1.8450  0.3542
 5106TIP3   OH215323   1.263   4.817   1.477 -0.3476 -0.1280 -0.2714
 5106TIP3    H115324   1.203   4.783   1.411  1.0982 -1.8253 -0.7943
 5106TIP3    H215325   1.349   4.814   1.435  0.3636  0.5176  1.0701
 5107TIP3   OH215326   5.021   2.097   3.386 -0.0992 -0.1046 -0.4508
 5107TIP3    H115327   5.022   2.016   3.437  0.9343  1.1042  1.5460
 5107TIP3    H215328   4.953   2.150   3.426 -0.0422  0.4442 -1.0675
 5108TIP3   OH215329   0.583   3.325   5.019  0.1722  0.0152 -0.1073
 5108TIP3    H115330   0.630   3.349   5.099 -0.6195 -0.1626  0.4187
 5108TIP3    H215331   0.645   3.271   4.971  0.1988 -1.0014  1.0119
 5109TIP3   OH215332   1.076   4.141   1.837  0.3439  0.3731 -0.1071
 5109TIP3    H115333   1.035   4.209   1.784  0.7487 -0.0342 -0.9731
 5109TIP3    H215334   1.017   4.129   1.912 -0.8574  0.1650 -1.0473
 5110TIP3   OH215335   6.149   1.969   4.252 -0.1456 -0.0736  0.0786
 5110TIP3    H115336   6.120   2.056   4.280  0.9969 -0.0311  1.2072
 5110TIP3    H215337   6.169   1.923   4.334  0.4194 -0.9815 -0.5565
 5111TIP3   OH215338   0.850   3.428   1.878  0.6125 -0.2873 -0.0240
 5111TIP3    H115339   0.813   3.440   1.966  2.2606 -1.0967  0.8176
 5111TIP3    H215340   0.793   3.480   1.821 -0.4465  0.3240  1.5258
 5112TIP3   OH215341   0.928   0.138   0.303 -0.5476 -0.2400 -0.2571
 5112TIP3    H115342   1.016   0.135   0.342 -0.4468 -0.7519 -0.5240
 5112TIP3    H215343   0.937   0.201   0.232 -0.9319  1.3269  1.0114
 5113TIP3   OH215344   2.191   0.404   4.375  0.2280  0.2023  0.2858
 5113TIP3    H115345   2.132   0.468   4.336  1.1799  1.2851  0.5837
 5113TIP3    H215346   2.133   0.335   4.408 -0.9135  1.5115  1.0931
 5114TIP3   OH215347   5.020   4.052   2.196 -0.5246  0.6381 -0.3086
 5114TIP3    H115348   5.106   4.037   2.159  0.1890 -0.4580  1.6069
 5114TIP3    H215349   4.959   4.010   2.134  0.6939 -2.1342  0.2220
 5115TIP3   OH215350   4.967   4.971   3.683  0.5873  0.0173 -0.3740
 5115TIP3    H115351   4.942   5.042   3.624 -1.1529 -0.3558 -0.1426
 5115TIP3    H215352   4.899   4.905   3.671  0.7184 -0.4724  1.3677
 5116TIP3   OH215353   3.315   2.102   4.923  0.2163  0.0059  0.2195
 5116TIP3    H115354   3.262   2.170   4.964  0.8005  0.1808  0.7033
 5116TIP3    H215355   3.376   2.149   4.866  0.8076 -0.0781  0.7669
 5117TIP3   OH215356   4.304   3.556   4.299 -0.1200 -0.0849 -0.5081
 5117TIP3    H115357   4.288   3.645   4.267 -0.9065  0.3513  0.9638
 5117TIP3    H215358   4.369   3.520   4.239 -0.7587  1.0065 -1.9225
 5118TIP3   OH215359   0.672   3.476   4.796  0.0088 -0.5781 -0.2029
 5118TIP3    H115360   0.616   3.492   4.871 -0.2253  2.6758 -0.9328
 5118TIP3    H215361   0.613   3.480   4.720  0.6271 -1.1719 -0.7307
 5119TIP3   OH215362   4.915   4.916   2.344 -0.0854  0.1354 -0.2329
 5119TIP3    H115363   5.006   4.891   2.360 -0.3465 -0.9548 -0.3570
 5119TIP3    H215364   4.874   4.836   2.310 -1.0091  0.7052 -0.4931
 5120TIP3   OH215365   5.538   4.936   3.353 -0.5809  0.4912  0.3761
 5120TIP3    H115366   5.571   5.018   3.390 -2.0676  1.0615  0.4828
 5120TIP3    H215367   5.443   4.947   3.349 -0.6919 -0.6340 -1.0287
 5121TIP3   OH215368   1.171   2.313   1.317  0.5802  0.0188 -0.3633
 5121TIP3    H115369   1.196   2.258   1.243  2.0821 -0.0716  0.1891
 5121TIP3    H215370   1.177   2.403   1.283 -0.1328 -0.0687 -0.7451
 5122TIP3   OH215371   1.740   0.929   1.873 -0.0927  0.0422  1.2825
 5122TIP3    H115372   1.671   0.874   1.909 -4.1560  1.1696 -3.6460
 5122TIP3    H215373   1.694   0.998   1.825  4.4843  1.4501 -1.8000
 5123TIP3   OH215374   4.138   4.527   1.571 -0.5652  0.2223 -0.4299
 5123TIP3    H115375   4.125   4.471   1.494  0.5098  0.4681 -0.8095
 5123TIP3    H215376   4.068   4.591   1.567  1.2875  2.3041 -3.1047
 5124TIP3   OH215377   3.839   2.291   3.882 -0.2189  0.0257 -0.5658
 5124TIP3    H115378   3.885   2.212   3.910 -0.9991 -0.0307  0.6219
 5124TIP3    H215379   3.905   2.360   3.885  0.0815 -0.2813 -0.0713
 5125TIP3   OH215380   4.899   1.220   0.038  0.6188  0.3320  0.3727
 5125TIP3    H115381   4.844   1.147   0.010  0.9943  0.3185 -0.3354
 5125TIP3    H215382   4.961   1.233  -0.033 -1.0451  2.9994 -0.7711
 5126TIP3   OH215383   3.845   5.651   0.751 -0.2257 -0.4340 -0.2896
 5126TIP3    H115384   3.872   5.714   0.817 -0.5018  0.9749 -1.4748
 5126TIP3    H215385   3.790   5.588   0.799 -1.3819  1.2018  0.6307
 5127TIP3   OH215386   2.371   4.819   0.516  0.2143 -0.8719 -0.0694
 5127TIP3    H115387   2.438   4.886   0.499 -1.5956  0.9377 -0.3633
 5127TIP3    H215388   2.410   4.738   0.482  2.6965 -0.1315  0.7929
 5128TIP3   OH215389   3.008   3.026   0.811  0.2197 -0.3367  0.3022
 5128TIP3    H115390   3.022   2.962   0.881  0.0074  0.7865  1.4065
 5128TIP3    H215391   3.075   3.093   0.826  1.1529 -0.7879 -1.4932
 5129TIP3   OH215392   5.584   1.580   1.313  0.1718  0.2409 -0.0630
 5129TIP3    H115393   5.589   1.536   1.228 -0.7157  0.0085 -0.0039
 5129TIP3    H215394   5.504   1.546   1.353  0.8775 -0.0893  1.1124
 5130TIP3   OH215395   0.758   0.032   3.140 -0.4314 -0.0951 -0.0896
 5130TIP3    H115396   0.701   0.099   3.180 -0.4650 -0.6415  0.8125
 5130TIP3    H215397   0.732   0.030   3.048 -0.8552  0.6992 -0.0006
 5131TIP3   OH215398   2.950   5.223   2.954  0.3979 -0.2728  0.7202
 5131TIP3    H115399   2.947   5.318   2.942  0.9569 -0.1456  1.5460
 5131TIP3    H215400   2.938   5.187   2.866 -1.4077  0.5265  0.6013
 5132TIP3   OH215401   4.822   1.644   4.252 -0.0862  0.5901  0.6550
 5132TIP3    H115402   4.850   1.602   4.334  2.1624 -0.4015 -0.5207
 5132TIP3    H215403   4.807   1.736   4.276  1.6642  0.5783  2.0000
 5133TIP3   OH215404   0.474   1.268   5.058  0.0716  0.1631 -0.3687
 5133TIP3    H115405   0.533   1.318   5.000  0.8046 -0.1703  0.0802
 5133TIP3    H215406   0.458   1.327   5.131 -0.8313  0.5727 -0.8760
 5134TIP3   OH215407   0.401   2.805   0.226 -0.2121 -0.0150  0.0600
 5134TIP3    H115408   0.491   2.838   0.233 -0.3224  0.5773 -1.0239
 5134TIP3    H215409   0.411   2.717   0.189 -0.1046  0.5027 -1.2169
 5135TIP3   OH215410   1.577   5.303   0.375  0.2160 -0.0833  0.7101
 5135TIP3    H115411   1.496   5.353   0.381  0.4668  0.6317 -1.1516
 5135TIP3    H215412   1.552   5.213   0.395 -1.4548 -0.2109 -1.6950
 5136TIP3   OH215413   5.469   4.954   5.123  0.0618 -0.4078 -1.0266
 5136TIP3    H115414   5.555   4.992   5.108 -0.2335  0.2526 -1.1048
 5136TIP3    H215415   5.410   5.005   5.067 -0.0671 -2.3369 -2.7555
 5137TIP3   OH215416   3.543   4.090   0.804 -0.6109 -0.0723 -0.6581
 5137TIP3    H115417   3.504   4.005   0.825 -0.2577 -0.8069 -2.7437
 5137TIP3    H215418   3.469   4.151   0.804 -1.2714 -0.8419 -1.4485
 5138TIP3   OH215419   3.038   1.921   1.930 -0.3055 -0.7223  0.0309
 5138TIP3    H115420   3.125   1.908   1.892 -0.7708 -0.5765 -1.1305
 5138TIP3    H215421   3.010   1.833   1.955  0.3858 -0.7044  0.9152
 5139TIP3   OH215422   1.492   2.705   3.285 -0.1006 -0.0288 -0.0915
 5139TIP3    H115423   1.437   2.642   3.239  1.5925  0.0751 -2.4457
 5139TIP3    H215424   1.518   2.661   3.366  0.5215 -2.1097 -1.3632
 5140TIP3   OH215425   5.130   5.716   0.293  0.0289 -0.0832  0.5301
 5140TIP3    H115426   5.075   5.644   0.326 -1.6500  1.0091  0.2665
 5140TIP3    H215427   5.190   5.735   0.365 -1.4760  0.1658  1.7910
 5141TIP3   OH215428   0.274   3.279   3.784  0.9528  0.3335 -0.4213
 5141TIP3    H115429   0.251   3.270   3.877  1.1540 -0.5586 -0.4503
 5141TIP3    H215430   0.282   3.189   3.752 -0.1209  0.6181 -1.5671
 5142TIP3   OH215431   2.602   1.772   2.197 -0.0512  0.5951 -0.3342
 5142TIP3    H115432   2.513   1.785   2.164  0.1862  1.6704 -0.6066
 5142TIP3    H215433   2.628   1.686   2.164 -0.6112  0.7261 -1.1584
 5143TIP3   OH215434   6.222   4.075   2.598  0.3850 -0.2182 -0.8706
 5143TIP3    H115435   6.267   4.153   2.632 -0.6113 -0.1673  0.4017
 5143TIP3    H215436   6.138   4.109   2.567  0.8949 -0.4265 -2.5470
 5144TIP3   OH215437   0.163   2.656   1.683  0.2148 -0.0308 -0.4309
 5144TIP3    H115438   0.136   2.658   1.592  0.7612 -1.6077 -0.6454
 5144TIP3    H215439   0.232   2.722   1.689 -0.6750  0.9650 -0.8457
 5145TIP3   OH215440   3.187   1.630   4.129  0.5528 -0.8241  0.1065
 5145TIP3    H115441   3.094   1.620   4.112  0.4014 -1.8924  1.3982
 5145TIP3    H215442   3.192   1.693   4.201  0.9763  0.8435 -1.3087
 5146TIP3   OH215443   0.542   5.500   4.277 -0.1064 -0.6259  0.3680
 5146TIP3    H115444   0.451   5.479   4.298 -0.8249 -0.2741 -2.1378
 5146TIP3    H215445   0.593   5.447   4.338 -1.9626 -1.5002  1.2557
 5147TIP3   OH215446   2.298   1.924   2.417  0.0234  0.1241  0.1439
 5147TIP3    H115447   2.242   1.936   2.340 -0.4592  0.6647  0.5619
 5147TIP3    H215448   2.243   1.878   2.480  1.5044 -3.5105 -1.0136
 5148TIP3   OH215449   5.016   3.258   0.015  0.1868  0.1191 -0.9589
 5148TIP3    H115450   4.938   3.202   0.026  0.7785 -0.3709  1.3269
 5148TIP3    H215451   4.992   3.340   0.059  1.3969 -0.5344  1.0240
 5149TIP3   OH215452   3.083   5.369   3.175  0.9030 -0.1261 -0.2482
 5149TIP3    H115453   3.005   5.420   3.153  0.9113 -0.7349 -1.8540
 5149TIP3    H215454   3.050   5.281   3.194  1.0653 -0.0082  0.6162
 5150TIP3   OH215455   0.175   5.648   3.674 -0.2951 -0.2350 -0.5007
 5150TIP3    H115456   0.095   5.599   3.693 -0.5555  0.5476  0.4943
 5150TIP3    H215457   0.179   5.715   3.742  0.4325  0.6707 -1.3998
 5151TIP3   OH215458   5.297   4.344   3.760 -0.0178 -0.1991 -0.2786
 5151TIP3    H115459   5.227   4.324   3.698  0.5607 -2.2852 -0.3486
 5151TIP3    H215460   5.253   4.349   3.845 -0.2654 -1.7299 -0.2889
 5152TIP3   OH215461   5.908   2.547   2.647  0.0617  0.1605  0.5868
 5152TIP3    H115462   5.882   2.604   2.719 -0.6046  0.4504  0.1251
 5152TIP3    H215463   5.967   2.600   2.594 -0.7265  0.5065  0.0404
 5153TIP3   OH215464   0.001   1.996   2.329  0.3354  0.0044 -0.4595
 5153TIP3    H115465   0.089   2.027   2.353  0.3969 -0.9891  0.7274
 5153TIP3    H215466  -0.027   1.944   2.405 -1.3589  0.4435 -0.7429
 5154TIP3   OH215467   3.173   1.450   0.740  0.1705  0.1556  0.2860
 5154TIP3    H115468   3.258   1.415   0.767  0.0984 -0.3567 -0.1328
 5154TIP3    H215469   3.158   1.525   0.799  0.2966 -0.5535  1.2461
 5155TIP3   OH215470   0.417   5.614   0.778  0.2124 -0.2417  0.1022
 5155TIP3    H115471   0.326   5.611   0.750  0.0298 -0.4527  0.7055
 5155TIP3    H215472   0.413   5.642   0.870  0.8580  1.4587 -0.3474
 5156TIP3   OH215473   3.933   5.220   4.138 -0.5246  0.1883  0.0748
 5156TIP3    H115474   3.864   5.268   4.092 -0.0814  0.0183 -0.7725
 5156TIP3    H215475   3.961   5.153   4.076  1.4325  1.1752 -0.1590
 5157TIP3   OH215476   1.527   5.488   4.793 -0.7812 -0.0352 -0.1102
 5157TIP3    H115477   1.442   5.493   4.749 -0.7502 -0.7819 -0.2732
 5157TIP3    H215478   1.576   5.563   4.760 -1.5153  0.6447  0.2996
 5158TIP3   OH215479   4.865   5.945   1.768 -0.2325 -0.9527  0.9903
 5158TIP3    H115480   4.861   6.036   1.737  0.9526 -0.4341  2.2612
 5158TIP3    H215481   4.855   5.893   1.688 -0.3205  0.3001  0.1471
 5159TIP3   OH215482   4.633   2.287   3.674  0.0651 -0.0766  0.1163
 5159TIP3    H115483   4.589   2.342   3.739 -0.6559  1.1288 -1.3464
 5159TIP3    H215484   4.723   2.321   3.672 -0.3618  1.0734 -0.7463
 5160TIP3   OH215485   2.776   2.963   0.696  0.0755  0.0109 -0.3759
 5160TIP3    H115486   2.846   2.995   0.754  0.7581  0.7466 -1.5717
 5160TIP3    H215487   2.809   2.880   0.663 -0.2436 -0.3294  0.1447
 5161TIP3   OH215488   2.440   5.580   2.073 -0.7913 -0.1393 -1.3144
 5161TIP3    H115489   2.497   5.601   2.147 -2.9566 -1.0866  0.7346
 5161TIP3    H215490   2.456   5.651   2.011  1.1635  0.6637 -0.0135
 5162TIP3   OH215491   4.721   1.749   0.115  0.4851 -0.2312  0.3327
 5162TIP3    H115492   4.760   1.761   0.202 -1.3424  1.4803  0.9835
 5162TIP3    H215493   4.628   1.733   0.132  0.4072 -1.8892 -1.2619
 5163TIP3   OH215494   3.011   4.705   5.107 -0.3116  0.5930 -0.3236
 5163TIP3    H115495   2.959   4.723   5.185  0.6420  0.9886  0.2420
 5163TIP3    H215496   3.016   4.788   5.060 -1.6319  0.1556 -1.3039
 5164TIP3   OH215497   3.487   3.752   0.606 -0.3142  0.2285 -0.2832
 5164TIP3    H115498   3.425   3.683   0.585  0.2944 -0.1139 -1.0202
 5164TIP3    H215499   3.459   3.785   0.691 -0.5771 -0.9615  0.1064
 5165TIP3   OH215500   1.167   4.445   0.769 -0.0971 -0.4302 -0.1249
 5165TIP3    H115501   1.217   4.375   0.811 -0.6757 -0.1755  1.0115
 5165TIP3    H215502   1.080   4.409   0.755 -0.3473 -0.0084  0.3000
 5166TIP3   OH215503   2.752   1.365   0.200 -0.2823 -0.3362  0.1029
 5166TIP3    H115504   2.708   1.398   0.122 -0.4370  0.5249  0.5380
 5166TIP3    H215505   2.794   1.284   0.172  2.0191  1.3541 -1.6076
 5167TIP3   OH215506   0.913   0.578   3.715 -0.1169 -0.2407  0.3478
 5167TIP3    H115507   0.926   0.483   3.705  0.9698  0.0263 -1.0656
 5167TIP3    H215508   1.002   0.614   3.718 -0.4198  1.0035 -2.3414
 5168TIP3   OH215509   1.835   3.785   4.398 -0.4940  0.4474  0.5221
 5168TIP3    H115510   1.764   3.754   4.343 -0.0400  1.0489 -0.4248
 5168TIP3    H215511   1.909   3.727   4.378 -0.8775 -0.6593  2.0506
 5169TIP3   OH215512   4.347   0.170   4.809  0.3725  0.2446  0.2361
 5169TIP3    H115513   4.307   0.092   4.847  0.1242 -0.8703 -2.1746
 5169TIP3    H215514   4.287   0.241   4.833 -0.5072 -0.6281  0.7060
 5170TIP3   OH215515   0.430   2.429   3.803 -0.1960 -0.1472 -0.3400
 5170TIP3    H115516   0.494   2.435   3.874  0.2083  0.6136 -0.7496
 5170TIP3    H215517   0.483   2.411   3.725 -0.6551 -1.2054 -0.4285
 5171TIP3   OH215518   5.141   2.110   4.139 -0.0122  0.2653  0.2956
 5171TIP3    H115519   5.215   2.078   4.191 -0.2150  1.9329  1.7169
 5171TIP3    H215520   5.074   2.042   4.148  0.6984 -0.4233  0.5089
 5172TIP3   OH215521   3.765   1.976   1.777  0.1525 -0.4118  0.4682
 5172TIP3    H115522   3.850   2.000   1.740 -0.6199  1.1027 -0.4260
 5172TIP3    H215523   3.715   2.057   1.776 -1.4273 -1.3513  0.6554
 5173TIP3   OH215524   5.957   2.365   3.729  0.3943  0.1208  0.1655
 5173TIP3    H115525   5.954   2.309   3.807  0.1682 -1.6325 -1.0332
 5173TIP3    H215526   5.896   2.435   3.748  0.8555  0.1294  1.8327
 5174TIP3   OH215527   6.213   0.624   3.217 -0.1828  0.1401  0.3777
 5174TIP3    H115528   6.195   0.555   3.281  1.4966 -1.6365 -0.9250
 5174TIP3    H215529   6.285   0.589   3.165  0.1885  2.5849 -0.8809
 5175TIP3   OH215530   4.400   2.781   1.622  0.1307  0.4733 -0.2830
 5175TIP3    H115531   4.474   2.754   1.676  0.4602 -0.0520 -0.9709
 5175TIP3    H215532   4.440   2.802   1.537 -0.4407  0.7629 -0.4836
 5176TIP3   OH215533   5.372   0.354   2.457 -0.3452 -0.0854 -0.4909
 5176TIP3    H115534   5.288   0.311   2.442 -0.1602 -0.6664  0.0784
 5176TIP3    H215535   5.350   0.432   2.507 -0.4092 -1.1557  1.2574
 5177TIP3   OH215536   5.217   3.782   4.775  0.3977  0.1025  0.4959
 5177TIP3    H115537   5.252   3.867   4.748  0.2468  0.2385  0.7276
 5177TIP3    H215538   5.234   3.724   4.700 -1.6720  0.9112 -0.6792
 5178TIP3   OH215539   5.144   1.807   4.288 -0.2177 -0.0198  0.5087
 5178TIP3    H115540   5.118   1.714   4.289  0.7943 -0.3539 -0.9719
 5178TIP3    H215541   5.062   1.855   4.300 -0.7804 -1.0881  1.1327
 5179TIP3   OH215542  -0.007   2.917   1.522  0.9902  0.1513 -0.4357
 5179TIP3    H115543   0.051   2.897   1.449 -0.1715 -1.1306 -1.0387
 5179TIP3    H215544  -0.017   2.834   1.569  2.1066  1.0446  1.5155
 5180TIP3   OH215545   1.239   3.176   2.258 -0.0862  0.4051  0.4512
 5180TIP3    H115546   1.187   3.252   2.232 -1.4860 -0.0559  1.7329
 5180TIP3    H215547   1.268   3.137   2.176 -1.7595  0.7186 -0.3312
 5181TIP3   OH215548   0.712   0.235   0.954 -0.1231 -0.9373  0.2033
 5181TIP3    H115549   0.782   0.250   1.017 -0.0465  0.7798 -0.2118
 5181TIP3    H215550   0.632   0.237   1.005 -0.0189 -0.2266  0.3490
 5182TIP3   OH215551   3.568   3.315   4.022  0.3733 -0.2501 -0.0514
 5182TIP3    H115552   3.522   3.235   4.049  1.4756 -0.4161  1.4469
 5182TIP3    H215553   3.648   3.284   3.980 -0.3717  0.0612 -1.8160
 5183TIP3   OH215554   3.322   3.655   4.554  0.1177  0.0718 -0.1285
 5183TIP3    H115555   3.398   3.710   4.573  1.3181 -1.0852 -1.3187
 5183TIP3    H215556   3.350   3.567   4.579 -0.6597 -0.4319 -0.9976
 5184TIP3   OH215557   2.228   4.230   1.369  0.0006  0.1981  0.3088
 5184TIP3    H115558   2.316   4.219   1.404 -0.0293  1.2807  0.7466
 5184TIP3    H215559   2.172   4.181   1.430  0.2254 -0.0053  0.3543
 5185TIP3   OH215560   4.468   0.569   0.454  0.0468  0.4918 -0.2855
 5185TIP3    H115561   4.400   0.627   0.487 -0.4478  1.0972 -2.2753
 5185TIP3    H215562   4.422   0.491   0.424  0.2154  0.8725 -1.5752
 5186TIP3   OH215563   0.344   5.840   1.710 -0.3215  0.0363  0.3614
 5186TIP3    H115564   0.424   5.865   1.664 -0.2076  0.0502  0.5701
 5186TIP3    H215565   0.307   5.923   1.741 -0.9117  0.1327 -0.5463
 5187TIP3   OH215566   6.091   4.767   3.552  0.5684  0.0382 -0.3985
 5187TIP3    H115567   6.167   4.710   3.564  1.5440  1.2867 -0.4307
 5187TIP3    H215568   6.092   4.824   3.629 -0.8099 -0.4332 -0.0073
 5188TIP3   OH215569   4.277   5.421   3.927  0.3990  0.3707 -0.4481
 5188TIP3    H115570   4.334   5.487   3.967 -0.5497  0.7283  0.3707
 5188TIP3    H215571   4.191   5.436   3.968 -0.3884  0.1200 -1.9482
 5189TIP3   OH215572   1.876   1.182   4.560  0.3224 -0.4846 -0.2410
 5189TIP3    H115573   1.951   1.126   4.540  0.3993 -0.2790 -0.5338
 5189TIP3    H215574   1.907   1.240   4.629  0.5469 -0.1573 -0.6172
 5190TIP3   OH215575   1.782   3.255   1.814 -0.2157  0.0865 -0.1149
 5190TIP3    H115576   1.829   3.325   1.768 -1.0752  1.2022  0.6324
 5190TIP3    H215577   1.833   3.176   1.797  1.3391  1.0609 -0.1942
 5191TIP3   OH215578   4.019   2.849   4.047 -0.4452  0.1825  0.8390
 5191TIP3    H115579   4.089   2.820   3.989 -0.1378 -0.1096  1.3463
 5191TIP3    H215580   3.939   2.828   4.000 -0.2055  1.3943 -0.1771
 5192TIP3   OH215581   5.691   0.832   0.746 -0.1175  0.0864  0.4296
 5192TIP3    H115582   5.615   0.877   0.784 -0.9176 -1.2992  0.5187
 5192TIP3    H215583   5.705   0.756   0.803  0.4685 -0.4452 -0.3985
 5193TIP3   OH215584   4.587   0.808   3.124 -0.5628 -0.0128  0.0473
 5193TIP3    H115585   4.682   0.800   3.112 -0.4317  1.8366 -0.4558
 5193TIP3    H215586   4.558   0.859   3.049 -2.1537 -1.4835 -0.3863
 5194TIP3   OH215587   1.571   0.812   1.666 -0.0034  0.0358  0.0946
 5194TIP3    H115588   1.592   0.741   1.726  1.8630  1.3520  1.1105
 5194TIP3    H215589   1.477   0.805   1.653 -0.5572 -0.2568  3.3207
 5195TIP3   OH215590   0.186   5.147   1.981  0.1824  0.8091 -0.0161
 5195TIP3    H115591   0.247   5.191   2.041 -1.2868  2.2541  0.5002
 5195TIP3    H215592   0.165   5.065   2.025 -1.1496  1.9978  1.7101
 5196TIP3   OH215593   1.859   1.949   4.618  0.1290  0.1893  0.6327
 5196TIP3    H115594   1.809   1.901   4.552 -0.1430  1.6510 -0.2702
 5196TIP3    H215595   1.812   2.032   4.629  1.4966  0.9753  0.8804
 5197TIP3   OH215596   1.250   3.708   4.290 -0.0744  0.1746 -0.4431
 5197TIP3    H115597   1.306   3.631   4.292  0.2333  0.4127  0.6627
 5197TIP3    H215598   1.171   3.680   4.243 -0.0421 -0.8624  0.1111
 5198TIP3   OH215599   0.872   4.578   3.619 -0.1379 -0.4670 -0.1213
 5198TIP3    H115600   0.839   4.538   3.539  1.1270  0.2448 -1.0382
 5198TIP3    H215601   0.954   4.530   3.637  0.2531  0.2398  0.0028
 5199TIP3   OH215602   0.458   3.135   1.467  0.5195  0.5204 -0.2292
 5199TIP3    H115603   0.542   3.115   1.510 -0.7531 -1.8874  1.3508
 5199TIP3    H215604   0.472   3.108   1.376  1.5539  0.4514 -0.0690
 5200TIP3   OH215605   2.482   0.427   1.656 -0.0743  0.3317 -0.3801
 5200TIP3    H115606   2.487   0.400   1.564  0.3336  1.4715 -0.7033
 5200TIP3    H215607   2.488   0.345   1.705 -2.3596 -0.5284 -1.3820
 5201TIP3   OH215608   4.638   5.301   3.724  0.3310 -0.4710  0.4617
 5201TIP3    H115609   4.672   5.280   3.637  1.7909  0.0683  0.8771
 5201TIP3    H215610   4.693   5.252   3.785  0.6262  0.6994  1.1737
 5202TIP3   OH215611   5.830   4.407   2.886 -0.5069  0.2687  0.4536
 5202TIP3    H115612   5.809   4.431   2.976 -0.6876 -0.3297  0.5775
 5202TIP3    H215613   5.756   4.439   2.835  0.6337  2.6322  0.1849
 5203TIP3   OH215614   1.636   5.958   1.001 -0.6073 -0.0482 -0.2699
 5203TIP3    H115615   1.629   5.917   0.915 -0.1287  0.8942 -0.7856
 5203TIP3    H215616   1.703   5.908   1.046 -0.6490 -0.3728 -0.5643
 5204TIP3   OH215617   5.597   0.903   4.579  0.1670  0.1159 -0.6946
 5204TIP3    H115618   5.610   0.997   4.564  0.2236  0.1299 -0.5576
 5204TIP3    H215619   5.648   0.862   4.509  0.4180  0.1831 -0.5551
 5205TIP3   OH215620   1.369   5.770   1.022  0.1112 -0.3347  0.3126
 5205TIP3    H115621   1.341   5.796   1.110 -0.9225  0.2392 -0.1609
 5205TIP3    H215622   1.348   5.846   0.968  1.4349 -0.3914 -0.3138
 5206TIP3   OH215623   0.235   2.046   2.479 -0.0810  0.2776  0.5786
 5206TIP3    H115624   0.217   1.969   2.533  0.7760 -0.1814  0.2311
 5206TIP3    H215625   0.258   2.114   2.542  0.6327 -0.1741  0.8266
 5207TIP3   OH215626   1.784   2.794   1.945  0.1356  0.2227 -0.3073
 5207TIP3    H115627   1.830   2.738   1.883 -0.3120  0.0046 -0.4537
 5207TIP3    H215628   1.807   2.759   2.031 -0.8037 -0.7399 -0.4187
 5208TIP3   OH215629   0.815   0.881   3.491 -0.0534  0.7249  0.4754
 5208TIP3    H115630   0.863   0.964   3.486 -1.5986  1.5927 -2.4586
 5208TIP3    H215631   0.744   0.897   3.553 -0.5055  1.7372 -0.2708
 5209TIP3   OH215632   2.006   4.117   3.444 -0.1590  0.3030 -0.2995
 5209TIP3    H115633   1.998   4.028   3.411  1.8626  0.1858 -0.5618
 5209TIP3    H215634   2.093   4.146   3.417 -0.7484  2.3582 -0.1905
 5210TIP3   OH215635   3.088   2.073   2.490 -0.2329 -0.2699  0.5199
 5210TIP3    H115636   3.161   2.135   2.498 -0.9088  0.3744  2.3962
 5210TIP3    H215637   3.090   2.023   2.572  0.4487 -2.9937 -1.0403
 5211TIP3   OH215638   2.447   1.539   3.163 -0.0980  0.4598  0.0538
 5211TIP3    H115639   2.420   1.478   3.231  1.3707 -0.4512 -0.1286
 5211TIP3    H215640   2.487   1.612   3.210  2.5931 -0.9950  0.2258
 5212TIP3   OH215641   5.649   2.052   0.104  0.4701  0.4897 -0.0085
 5212TIP3    H115642   5.664   2.059   0.198 -0.5179  4.3500  0.0362
 5212TIP3    H215643   5.737   2.056   0.065  0.9160 -1.5547  0.6517
 5213TIP3   OH215644   5.997   5.480   1.441 -0.3024  0.2610  0.3320
 5213TIP3    H115645   5.931   5.435   1.494 -2.2368  1.5728 -0.8230
 5213TIP3    H215646   5.980   5.573   1.456 -0.4721  0.6683 -1.9903
 5214TIP3   OH215647   3.990   2.925   2.877  0.0475  0.0229  0.0971
 5214TIP3    H115648   4.048   2.972   2.817  1.2959 -1.8862 -0.3014
 5214TIP3    H215649   3.974   2.841   2.833 -0.2801 -0.8094  1.7402
 5215TIP3   OH215650   0.133   2.602   0.019  0.2616  0.3217 -0.3559
 5215TIP3    H115651   0.145   2.513   0.051 -0.2809  0.6198  0.7468
 5215TIP3    H215652   0.116   2.653   0.098 -0.1505  1.2776 -1.0447
 5216TIP3   OH215653   0.231   2.103   0.255 -1.0010  0.8462 -0.3463
 5216TIP3    H115654   0.302   2.052   0.216 -1.2513  0.5662 -0.4402
 5216TIP3    H215655   0.151   2.065   0.219 -1.2973 -0.0415  1.1589
 5217TIP3   OH215656   1.772   5.898   3.213  0.3461  0.0458 -0.5564
 5217TIP3    H115657   1.703   5.963   3.203 -1.0554 -1.1151  1.0763
 5217TIP3    H215658   1.848   5.948   3.243 -0.1666  1.1473 -1.0486
 5218TIP3   OH215659   5.565   1.690   4.182  0.6236 -0.1529  0.2779
 5218TIP3    H115660   5.514   1.649   4.112  0.0478 -0.7153  1.0071
 5218TIP3    H215661   5.511   1.680   4.260  2.0652 -1.2744  1.1978
 5219TIP3   OH215662   4.483   2.741   5.127 -0.2991  0.0335 -0.1027
 5219TIP3    H115663   4.556   2.803   5.130 -0.2701  0.0383 -0.6418
 5219TIP3    H215664   4.415   2.787   5.078 -1.5145  0.8676  2.2742
 5220TIP3   OH215665   5.920   0.609   2.641  0.3575  0.7299 -0.0905
 5220TIP3    H115666   5.841   0.652   2.608 -0.7936 -1.4078 -0.3513
 5220TIP3    H215667   5.894   0.575   2.727  0.5680 -0.9812 -0.6602
 5221TIP3   OH215668   3.857   4.046   2.691  0.1349  0.2876  0.2893
 5221TIP3    H115669   3.935   4.097   2.714 -0.8670  1.7888  0.4670
 5221TIP3    H215670   3.890   3.958   2.677  1.6664  0.5843  1.7095
 5222TIP3   OH215671   5.611   0.968   3.067  0.2196  0.2348  0.1394
 5222TIP3    H115672   5.582   1.003   2.983  0.2297  1.5965  0.6762
 5222TIP3    H215673   5.705   0.986   3.070  0.4289 -0.8145 -0.0264
 5223TIP3   OH215674   6.249   0.854   4.575 -0.8836  0.1566 -0.0914
 5223TIP3    H115675   6.188   0.870   4.503  1.3938 -1.7241 -2.6336
 5223TIP3    H215676   6.299   0.777   4.548  0.7036 -0.1229  3.1523
 5224TIP3   OH215677   6.242   2.055   2.612  0.0717 -0.0061 -0.0937
 5224TIP3    H115678   6.156   2.036   2.648  0.2432 -1.6797 -0.4508
 5224TIP3    H215679   6.230   2.133   2.559 -1.3153 -0.4401 -0.4538
 5225TIP3   OH215680   4.547   1.300   3.488  0.1367 -0.7294  0.2230
 5225TIP3    H115681   4.473   1.286   3.548 -0.6055 -1.0763 -0.7494
 5225TIP3    H215682   4.563   1.395   3.491 -1.3122 -0.4324 -0.6435
 5226TIP3   OH215683   5.966   3.369   3.958 -0.4819  0.4225 -0.1323
 5226TIP3    H115684   5.877   3.349   3.927 -1.3698  2.0150  1.2123
 5226TIP3    H215685   5.991   3.293   4.009 -0.4304 -0.7003 -1.7666
 5227TIP3   OH215686   6.067   4.238   4.570 -0.3828  0.5840 -0.0347
 5227TIP3    H115687   6.096   4.149   4.593 -2.9266 -0.5571 -0.8971
 5227TIP3    H215688   6.148   4.285   4.551  1.1394 -1.1504  1.6858
 5228TIP3   OH215689   3.254   4.305   0.228 -0.4786 -0.2543 -0.6402
 5228TIP3    H115690   3.296   4.265   0.152  0.4665 -0.2713 -0.1207
 5228TIP3    H215691   3.322   4.308   0.295 -1.5390 -1.0642  0.5213
 5229TIP3   OH215692   2.612   2.221   3.380 -0.3239 -0.1754  0.2691
 5229TIP3    H115693   2.588   2.166   3.454  1.0982  1.1836  1.8124
 5229TIP3    H215694   2.706   2.207   3.369 -0.3130  0.4552 -0.5765
 5230TIP3   OH215695   5.562   1.488   2.572  0.3584 -0.3087 -0.1266
 5230TIP3    H115696   5.531   1.400   2.551  0.3292 -0.3504  0.0923
 5230TIP3    H215697   5.497   1.546   2.534 -0.1688 -0.4020  0.6287
 5231TIP3   OH215698   1.087   2.068   5.032 -0.2765 -0.0675 -0.6263
 5231TIP3    H115699   1.019   2.072   5.100 -0.7654  1.7683 -1.1606
 5231TIP3    H215700   1.127   1.982   5.043 -0.7491 -0.0651  1.5873
 5232TIP3   OH215701   5.029   2.022   2.662  0.6207  0.2427 -0.1876
 5232TIP3    H115702   5.011   1.934   2.694  1.2873  1.0856  2.7372
 5232TIP3    H215703   5.110   2.013   2.612  0.5715 -0.8093 -0.1086
 5233TIP3   OH215704   1.423   4.099   3.424 -0.0175  0.0680 -0.3297
 5233TIP3    H115705   1.386   4.012   3.416  0.6571 -0.4933  2.0712
 5233TIP3    H215706   1.389   4.133   3.507 -0.1025  2.0141 -1.1040
 5234TIP3   OH215707   5.895   0.023   0.337 -0.4592  0.3032 -0.0259
 5234TIP3    H115708   5.909   0.037   0.243 -0.0311 -0.8014 -0.1464
 5234TIP3    H215709   5.801   0.030   0.349 -0.4109  1.7434 -0.3003
 5235TIP3   OH215710   1.774   3.697   3.272  0.0427  0.5220 -0.0286
 5235TIP3    H115711   1.733   3.651   3.345 -2.5202 -0.0893 -1.7100
 5235TIP3    H215712   1.738   3.786   3.277 -1.4259  0.0503 -1.3787
 5236TIP3   OH215713   2.656   1.422   1.973 -0.1518 -0.7698 -0.7211
 5236TIP3    H115714   2.624   1.467   2.051  0.5598  0.5449 -1.1544
 5236TIP3    H215715   2.682   1.335   2.004 -2.0166 -1.0986  0.0395
 5237TIP3   OH215716   5.829   1.292   3.862 -0.4274 -0.3645  0.1793
 5237TIP3    H115717   5.795   1.248   3.784  1.6813  0.6976 -1.4427
 5237TIP3    H215718   5.786   1.377   3.863  0.2013 -0.0252 -0.3952
 5238TIP3   OH215719   0.712   5.730   2.060  0.3636 -0.0928 -0.4219
 5238TIP3    H115720   0.806   5.735   2.078  0.7021 -2.1896 -1.3493
 5238TIP3    H215721   0.703   5.765   1.972  0.5258 -1.2398 -0.9151
 5239TIP3   OH215722   4.947   2.020   0.517 -0.6834  0.4845 -0.3549
 5239TIP3    H115723   4.903   2.099   0.486 -0.6578  1.2549  1.4678
 5239TIP3    H215724   5.031   2.050   0.550 -0.6485 -0.3147  0.3196
 5240TIP3   OH215725   6.054   3.690   4.558 -0.1313 -0.3591  0.1547
 5240TIP3    H115726   6.029   3.716   4.469 -0.4130  0.9335  0.5892
 5240TIP3    H215727   5.978   3.643   4.592  0.4647 -2.0529 -0.7186
 5241TIP3   OH215728   4.727   4.849   3.638  0.4634  0.5927  0.5175
 5241TIP3    H115729   4.638   4.843   3.602  0.8312  1.0900 -0.5074
 5241TIP3    H215730   4.781   4.802   3.574  0.9035  0.0024  1.3041
 5242TIP3   OH215731   1.334   2.139   4.185  0.2126 -0.0796 -0.2243
 5242TIP3    H115732   1.251   2.095   4.204 -0.5357  1.2540 -0.2878
 5242TIP3    H215733   1.308   2.227   4.157  1.7406  1.0769  1.7679
 5243TIP3   OH215734   0.864   1.648   3.420  0.3936  0.1789 -0.5523
 5243TIP3    H115735   0.915   1.585   3.471 -1.6880 -0.5154  0.7896
 5243TIP3    H215736   0.925   1.720   3.403  2.8695 -2.0774 -2.1227
 5244TIP3   OH215737   1.605   3.354   0.352  0.4045 -0.9674 -0.1968
 5244TIP3    H115738   1.589   3.334   0.444  0.3661  2.9003  0.8432
 5244TIP3    H215739   1.545   3.299   0.304 -2.0341 -0.7533  2.3582
 5245TIP3   OH215740   4.341   5.080   0.459  0.6076 -0.3065  0.2226
 5245TIP3    H115741   4.278   5.017   0.424  1.7486  0.0101 -2.7006
 5245TIP3    H215742   4.367   5.043   0.544 -0.3481 -2.6306 -0.4253
 5246TIP3   OH215743   1.355   3.287   3.495  0.8474  0.6873  0.0339
 5246TIP3    H115744   1.428   3.348   3.490  0.9092  0.6557  0.4749
 5246TIP3    H215745   1.396   3.201   3.507  0.7501  0.6287 -0.0578
 5247TIP3   OH215746   4.485   0.263   1.226  0.5853 -0.2415  0.2734
 5247TIP3    H115747   4.565   0.303   1.259 -0.2767  1.2504  0.6098
 5247TIP3    H215748   4.441   0.229   1.305  1.2268 -1.7901  0.0128
 5248TIP3   OH215749   2.256   3.677   3.715  0.2559 -0.6482 -0.3090
 5248TIP3    H115750   2.294   3.754   3.674 -1.4742  0.5974  0.2989
 5248TIP3    H215751   2.198   3.640   3.649  1.8459 -2.0889 -0.9651
 5249TIP3   OH215752   3.084   3.934   4.354  0.8453  0.3145  0.3314
 5249TIP3    H115753   3.018   3.915   4.420  1.2273 -1.8293  0.1606
 5249TIP3    H215754   3.061   4.021   4.322 -1.8521 -0.3077  0.3361
 5250TIP3   OH215755   5.899   0.507   4.674 -0.3500 -0.5365  0.3058
 5250TIP3    H115756   5.847   0.588   4.669  0.2145 -0.2246 -1.1291
 5250TIP3    H215757   5.852   0.445   4.618  0.0707 -0.6839  0.1090
 5251TIP3   OH215758   3.847   5.275   2.545 -0.0325  0.3986  0.1164
 5251TIP3    H115759   3.925   5.234   2.584 -0.2058 -0.1278 -0.0759
 5251TIP3    H215760   3.776   5.252   2.605 -0.4688 -1.2034 -0.9520
 5252TIP3   OH215761   4.069   2.407   1.217  0.0470  0.4059  0.4638
 5252TIP3    H115762   4.157   2.383   1.186  0.1112  0.0506  0.9066
 5252TIP3    H215763   4.045   2.482   1.163  0.9189  0.9564  0.8145
 5253TIP3   OH215764   0.906   3.430   3.996 -0.1585 -0.1773 -0.1843
 5253TIP3    H115765   0.964   3.365   3.957  0.0520 -0.5579  0.7459
 5253TIP3    H215766   0.849   3.380   4.054 -0.2838  0.4104  0.2094
 5254TIP3   OH215767   5.298   4.225   0.426 -0.5889  0.2210 -0.6860
 5254TIP3    H115768   5.291   4.155   0.361  1.0962 -1.7846  1.0948
 5254TIP3    H215769   5.280   4.181   0.509 -0.8354  2.2551  0.3907
 5255TIP3   OH215770   5.723   2.224   3.553 -0.9915  0.7568  0.0050
 5255TIP3    H115771   5.674   2.291   3.506  0.7125  0.2553 -2.6624
 5255TIP3    H215772   5.814   2.237   3.526 -0.0322 -0.2483  2.4188
 5256TIP3   OH215773   4.763   1.669   1.058 -0.3368 -0.0933  0.5132
 5256TIP3    H115774   4.825   1.654   0.986 -0.9416  0.5731 -0.1635
 5256TIP3    H215775   4.776   1.760   1.082 -2.4458  0.6917 -1.0322
 5257TIP3   OH215776   3.542   2.030   2.679  0.0219 -0.3693 -0.4003
 5257TIP3    H115777   3.564   1.939   2.696  0.0689 -0.0796  1.3222
 5257TIP3    H215778   3.599   2.056   2.606  0.4077 -1.5517 -0.5341
 5258TIP3   OH215779   2.142   5.237   0.397 -0.3268  0.7441  0.3033
 5258TIP3    H115780   2.175   5.150   0.377  0.6313  1.0960  0.3134
 5258TIP3    H215781   2.047   5.230   0.385 -0.0345  0.3935 -2.3574
 5259TIP3   OH215782   5.771   1.912   3.130 -0.0584  0.1076 -0.7607
 5259TIP3    H115783   5.818   1.835   3.099 -1.5477 -1.3086  0.3314
 5259TIP3    H215784   5.836   1.982   3.129  1.3346 -1.1535 -1.7783
 5260TIP3   OH215785   4.104   5.743   2.688 -0.1761 -0.6288  0.1045
 5260TIP3    H115786   4.142   5.665   2.648  0.9757  1.0835 -2.4065
 5260TIP3    H215787   4.025   5.760   2.637  0.4127  0.6515 -0.4357
 5261TIP3   OH215788   1.876   5.418   0.104 -0.6520 -0.6036 -0.6232
 5261TIP3    H115789   1.934   5.412   0.028 -0.3040 -0.9273 -0.3364
 5261TIP3    H215790   1.923   5.474   0.166 -0.3671 -1.3344 -0.1550
 5262TIP3   OH215791   5.942   5.837   3.876  0.3487  0.2095 -0.1242
 5262TIP3    H115792   5.985   5.782   3.810 -0.5252 -1.3031  0.5067
 5262TIP3    H215793   5.864   5.871   3.832 -1.4252 -2.5197  0.6093
 5263TIP3   OH215794   5.694   4.815   1.175  0.0604  0.1141  0.0238
 5263TIP3    H115795   5.644   4.793   1.253  0.3535  1.0699  0.4963
 5263TIP3    H215796   5.718   4.730   1.137  2.1249 -0.4600  2.3710
 5264TIP3   OH215797   1.586   1.316   0.130 -0.1189 -0.4648 -0.1295
 5264TIP3    H115798   1.521   1.339   0.197  1.0999  1.5917  0.4370
 5264TIP3    H215799   1.553   1.357   0.050 -0.1177 -0.4417 -0.1181
 5265TIP3   OH215800   4.181   1.819   4.818 -0.0337  0.1465 -0.2399
 5265TIP3    H115801   4.143   1.826   4.730  0.1621 -1.4079 -0.4801
 5265TIP3    H215802   4.194   1.725   4.831  1.3545  0.4626  0.8671
 5266TIP3   OH215803   1.976   1.948   3.720  0.0503 -0.1744 -0.0331
 5266TIP3    H115804   1.987   2.012   3.790  0.6362  0.4232 -0.6638
 5266TIP3    H215805   1.915   1.883   3.756 -0.1288  0.4481  0.8012
 5267TIP3   OH215806   1.808   0.662   2.738  0.5196  0.4198  0.2197
 5267TIP3    H115807   1.846   0.749   2.721  0.7322  0.0900 -1.0616
 5267TIP3    H215808   1.859   0.628   2.811  0.8642  1.1080  0.3110
 5268TIP3   OH215809   3.009   4.811   4.660  0.5332 -0.0466 -0.3113
 5268TIP3    H115810   2.937   4.748   4.664  2.3388 -2.2064 -0.1644
 5268TIP3    H215811   2.971   4.887   4.616 -2.8706  0.4085  2.8757
 5269TIP3   OH215812   0.349   4.583   4.027  0.4889 -0.1225 -0.1324
 5269TIP3    H115813   0.399   4.513   4.067  0.0807 -1.7636 -2.3221
 5269TIP3    H215814   0.292   4.539   3.963  0.3654  2.1894 -1.7547
 5270TIP3   OH215815   3.855   0.243   1.150  0.2825  0.3090 -0.2275
 5270TIP3    H115816   3.802   0.164   1.165 -0.1473  0.7430  0.6019
 5270TIP3    H215817   3.922   0.239   1.218  1.0717 -0.0177 -1.0122
 5271TIP3   OH215818   3.021   1.479   3.588  0.0137  0.2827  0.5958
 5271TIP3    H115819   3.092   1.434   3.633 -0.6213 -0.0752  1.2621
 5271TIP3    H215820   3.028   1.450   3.497  0.2889 -0.3064  0.7979
 5272TIP3   OH215821   5.209   1.871   2.239 -0.1336  0.6745  0.0549
 5272TIP3    H115822   5.158   1.873   2.320  1.5275  0.5664  1.1411
 5272TIP3    H215823   5.213   1.962   2.211 -3.8876  0.3963 -2.0762
 5273TIP3   OH215824   6.131   0.171   2.565  0.3147  0.2546 -0.8723
 5273TIP3    H115825   6.097   0.221   2.491 -0.4339 -0.0862 -0.7711
 5273TIP3    H215826   6.219   0.146   2.539 -0.2975 -0.7445 -2.0981
 5274TIP3   OH215827   0.151   5.938   1.960 -0.1540  0.2280 -0.1376
 5274TIP3    H115828   0.161   5.879   2.035 -0.3584  0.3187 -0.0377
 5274TIP3    H215829   0.084   6.001   1.987  0.5771  0.9483  0.0268
 5275TIP3   OH215830   5.007   4.669   0.215 -0.4459  0.2804  0.4753
 5275TIP3    H115831   5.022   4.732   0.144  0.2096  1.8076  1.8929
 5275TIP3    H215832   5.049   4.589   0.186 -0.7622  0.6607 -1.1370
 5276TIP3   OH215833   5.451   1.541   3.969 -0.5631 -0.4538  0.0998
 5276TIP3    H115834   5.501   1.548   3.888 -0.2112 -0.4290  0.3133
 5276TIP3    H215835   5.383   1.476   3.951  0.0417 -1.0872  0.0461
 5277TIP3   OH215836   3.759   2.083   2.981 -0.0398 -0.5407 -0.3639
 5277TIP3    H115837   3.670   2.115   2.997  0.4076 -0.0103  1.2216
 5277TIP3    H215838   3.772   2.013   3.044  0.4742 -1.0180 -0.9840
 5278TIP3   OH215839   5.971   3.316   2.165 -0.0517 -0.4577 -0.0001
 5278TIP3    H115840   5.916   3.240   2.145 -0.8565  0.0434  0.2345
 5278TIP3    H215841   5.978   3.316   2.261  1.1796 -1.0725 -0.0804
 5279TIP3   OH215842   0.899   3.005   4.756 -0.8789  0.1504  0.2177
 5279TIP3    H115843   0.807   2.997   4.781 -0.4946 -2.7018  1.0124
 5279TIP3    H215844   0.901   2.980   4.664 -0.8611  0.0124  0.2559
 5280TIP3   OH215845   2.798   1.597   3.326 -0.1146 -0.0664  0.0774
 5280TIP3    H115846   2.711   1.599   3.365 -0.1434 -0.0572  0.0140
 5280TIP3    H215847   2.837   1.681   3.348  1.0610 -1.2094  2.7466
 5281TIP3   OH215848   4.689   4.688   4.815  0.0385  0.2176 -0.0703
 5281TIP3    H115849   4.742   4.610   4.832 -1.8666 -0.7269  2.0750
 5281TIP3    H215850   4.639   4.701   4.896 -1.5555  2.1895 -1.2807
 5282TIP3   OH215851   4.953   1.266   3.724 -0.2843 -0.2696  0.9388
 5282TIP3    H115852   4.984   1.320   3.796 -0.0177  0.0490  0.5875
 5282TIP3    H215853   4.930   1.182   3.764 -2.8948  0.7970  1.9134
 5283TIP3   OH215854   0.366   0.667   3.777 -0.5884 -0.4853 -0.1435
 5283TIP3    H115855   0.364   0.603   3.706 -0.1256 -0.2267 -0.3891
 5283TIP3    H215856   0.429   0.631   3.840 -0.7356 -0.5369 -0.0222
 5284TIP3   OH215857   6.047   1.148   2.400  0.3159  0.1396  0.1845
 5284TIP3    H115858   6.138   1.154   2.373  0.1372 -0.3447 -0.5274
 5284TIP3    H215859   6.049   1.091   2.478  0.7854  1.3022  1.0564
 5285TIP3   OH215860   5.987   1.048   2.678  0.4672  0.5205 -0.0582
 5285TIP3    H115861   5.928   1.052   2.754 -1.1865  1.7750 -1.3428
 5285TIP3    H215862   6.074   1.040   2.717 -0.4059 -0.0735  1.9441
 5286TIP3   OH215863   1.394   3.658   3.115  0.1074  0.3312  0.0623
 5286TIP3    H115864   1.405   3.575   3.069  2.0933 -0.1847  1.3502
 5286TIP3    H215865   1.375   3.634   3.205 -2.2704  1.3286 -0.1076
 5287TIP3   OH215866   3.130   2.659   0.554 -0.5202 -0.0741 -0.1054
 5287TIP3    H115867   3.204   2.670   0.494 -0.6005 -1.0720 -0.4042
 5287TIP3    H215868   3.113   2.565   0.555 -1.9392  0.1543 -0.2208
 5288TIP3   OH215869   3.889   2.093   0.184 -0.2394 -0.3632 -0.0855
 5288TIP3    H115870   3.878   1.999   0.194 -0.6627 -0.1851  1.3976
 5288TIP3    H215871   3.910   2.125   0.272  1.6289  0.7294 -0.8684
 5289TIP3   OH215872   4.394   5.627   1.217  0.3827 -0.4126  0.1487
 5289TIP3    H115873   4.485   5.622   1.246  0.5945  0.0298 -0.4182
 5289TIP3    H215874   4.393   5.698   1.153 -1.1150  2.4142  3.0193
 5290TIP3   OH215875   5.765   3.943   1.771  0.3778  0.1662  0.3339
 5290TIP3    H115876   5.782   3.852   1.796 -0.7120 -0.2008 -0.1809
 5290TIP3    H215877   5.840   3.992   1.804 -0.2971 -0.4911  3.1045
 5291TIP3   OH215878   2.651   1.676   4.862  0.2131 -0.2308 -0.6923
 5291TIP3    H115879   2.669   1.591   4.822  2.6351  0.9185 -2.1996
 5291TIP3    H215880   2.720   1.687   4.928 -1.5263 -0.4251  1.2953
 5292TIP3   OH215881   4.072   1.188   1.957 -0.4207  0.4392  0.1052
 5292TIP3    H115882   4.017   1.247   2.008 -0.9601 -2.7282  3.6876
 5292TIP3    H215883   4.139   1.158   2.018  1.8153 -0.2472 -2.4689
 5293TIP3   OH215884   5.398   2.269   1.245 -0.4472  0.3332  0.2268
 5293TIP3    H115885   5.470   2.212   1.218 -0.8039 -0.5777  1.1743
 5293TIP3    H215886   5.426   2.306   1.328 -1.5111 -0.8909  1.1668
 5294TIP3   OH215887   3.072   0.992   1.747 -0.1950 -0.2050  0.3803
 5294TIP3    H115888   3.147   1.045   1.721 -0.5403  0.4053  0.6018
 5294TIP3    H215889   3.111   0.913   1.785  0.3133 -0.5624 -0.8556
 5295TIP3   OH215890   5.808   3.209   2.804  0.0893  0.3313 -0.0327
 5295TIP3    H115891   5.872   3.280   2.810  0.8891 -0.4118  0.4108
 5295TIP3    H215892   5.860   3.130   2.796 -0.7291 -0.4320  1.6159
 5296TIP3   OH215893   0.017   5.208   1.405  0.2801  0.2569  0.2682
 5296TIP3    H115894   0.111   5.203   1.388  0.1543  0.6190 -0.5958
 5296TIP3    H215895   0.006   5.286   1.459  0.5067  0.0334  0.6395
 5297TIP3   OH215896   5.389   1.771   0.723 -0.2396 -0.2018  0.2316
 5297TIP3    H115897   5.330   1.758   0.648 -2.0074 -1.3619  1.7324
 5297TIP3    H215898   5.468   1.809   0.685 -0.7183 -1.5483 -2.3629
 5298TIP3   OH215899   3.345   3.377   3.565 -0.0555  0.4382 -0.1187
 5298TIP3    H115900   3.387   3.295   3.541  1.2237  0.6554  1.2376
 5298TIP3    H215901   3.309   3.411   3.483  1.3738 -0.3505 -1.1125
 5299TIP3   OH215902   2.834   0.931   3.186  0.2174 -0.0187 -0.3711
 5299TIP3    H115903   2.765   0.995   3.200  0.7989  0.5056  0.2024
 5299TIP3    H215904   2.794   0.846   3.206 -0.4766  0.1951 -0.8513
 5300TIP3   OH215905   4.252   4.158   0.502 -0.1959  0.5231  0.0435
 5300TIP3    H115906   4.248   4.251   0.482 -0.2635  0.5276  0.0791
 5300TIP3    H215907   4.245   4.154   0.597  0.8612  0.5491  0.1356
 5301TIP3   OH215908   4.010   5.893   1.525 -0.4246 -0.2485 -0.0672
 5301TIP3    H115909   3.971   5.817   1.568 -1.3014 -0.0513 -0.4866
 5301TIP3    H215910   4.074   5.857   1.464 -1.4226 -0.7127 -0.8644
 5302TIP3   OH215911   1.238   5.191   5.107 -0.0746  0.3316 -0.2189
 5302TIP3    H115912   1.316   5.139   5.126 -0.2593  0.3071  0.4770
 5302TIP3    H215913   1.230   5.251   5.181 -1.0703 -0.0816  0.0180
 5303TIP3   OH215914   3.606   5.166   0.456 -0.3578 -0.3402  0.4465
 5303TIP3    H115915   3.696   5.194   0.438 -0.4133  0.7890  1.7411
 5303TIP3    H215916   3.573   5.231   0.518 -2.0132 -0.8480  0.1437
 5304TIP3   OH215917   1.672   0.373   1.290  0.2053 -0.3050  0.2279
 5304TIP3    H115918   1.681   0.466   1.268  1.9308 -0.6496 -0.7185
 5304TIP3    H215919   1.625   0.336   1.216 -0.9623 -0.1246  0.8535
 5305TIP3   OH215920   5.397   5.743   3.304  0.8891 -0.0411  0.2619
 5305TIP3    H115921   5.457   5.688   3.354  0.8709 -1.0560 -0.7820
 5305TIP3    H215922   5.340   5.783   3.370  0.0500 -2.2988  1.0314
 5306TIP3   OH215923   5.574   5.215   1.258 -0.0824  0.3064  0.0843
 5306TIP3    H115924   5.502   5.256   1.306  0.1280  0.0780  0.5890
 5306TIP3    H215925   5.582   5.269   1.179 -1.4012 -0.1808 -0.4245
 5307TIP3   OH215926   4.342   0.416   4.167  0.1416  0.1155  0.1999
 5307TIP3    H115927   4.395   0.404   4.088  0.3759  2.8102 -0.1335
 5307TIP3    H215928   4.270   0.473   4.140 -0.2590  0.3919  1.7230
 5308TIP3   OH215929   5.273   2.540   3.812  0.5692  0.0091  0.0506
 5308TIP3    H115930   5.353   2.544   3.864  0.7126  1.2529 -0.2193
 5308TIP3    H215931   5.217   2.609   3.849 -0.0407 -0.2836 -0.2994
 5309TIP3   OH215932   3.133   5.350  -0.011  0.2030  0.0924  0.1748
 5309TIP3    H115933   3.124   5.279   0.052  0.4387  1.2743  1.5892
 5309TIP3    H215934   3.190   5.414   0.032  0.4419  0.9105 -1.2729
 5310TIP3   OH215935   0.818   0.436   3.202 -0.2344 -0.2401  0.2637
 5310TIP3    H115936   0.786   0.526   3.192 -1.0619 -0.7513 -2.6321
 5310TIP3    H215937   0.741   0.387   3.232 -0.0339 -0.1684  0.9129
 5311TIP3   OH215938   5.190   0.077   3.160  0.3040 -0.2622 -0.3272
 5311TIP3    H115939   5.181   0.077   3.064 -1.1502 -2.0789 -0.2584
 5311TIP3    H215940   5.243  -0.001   3.178  0.4397 -0.0102  0.3615
 5312TIP3   OH215941   1.279   3.394   0.405  0.1989 -0.6245  0.1989
 5312TIP3    H115942   1.199   3.343   0.415 -0.1942  0.0710  0.6313
 5312TIP3    H215943   1.302   3.385   0.312  0.5149 -2.1322  0.3939
 5313TIP3   OH215944   3.818   4.546   2.262 -0.0159 -0.0862  0.1870
 5313TIP3    H115945   3.820   4.502   2.347 -0.7157 -0.5728 -0.0403
 5313TIP3    H215946   3.746   4.505   2.215 -0.2100  0.7929 -0.3169
 5314TIP3   OH215947   1.168   2.683   1.767  0.4653 -0.6153 -0.6606
 5314TIP3    H115948   1.105   2.745   1.730 -1.2683 -1.7404  0.2490
 5314TIP3    H215949   1.238   2.737   1.802  0.3876  0.6478 -2.3465
 5315TIP3   OH215950   5.344   4.431   2.293  0.4846 -0.0560 -0.0365
 5315TIP3    H115951   5.305   4.404   2.210 -0.4041 -0.4085  0.4876
 5315TIP3    H215952   5.307   4.371   2.357  1.3495  0.0627  0.5852
 5316TIP3   OH215953   2.827   4.886   2.425 -0.4628 -0.6276  0.5612
 5316TIP3    H115954   2.823   4.981   2.431 -0.0621 -0.5705  0.0062
 5316TIP3    H215955   2.892   4.860   2.490  0.3975 -0.4020 -0.1766
 5317TIP3   OH215956   5.859   1.429   2.586  0.0434 -0.5187 -0.2780
 5317TIP3    H115957   5.779   1.481   2.579  1.0414  0.9829 -0.9977
 5317TIP3    H215958   5.854   1.368   2.512 -0.3271 -0.2775 -0.4569
 5318TIP3   OH215959   2.667   2.303   1.804 -0.1918 -0.1463  0.1821
 5318TIP3    H115960   2.720   2.353   1.866  2.2811 -3.0099  0.6131
 5318TIP3    H215961   2.627   2.234   1.857 -1.3481 -0.2706 -0.8038
 5319TIP3   OH215962   3.798   3.495   3.946 -0.4426 -0.5400  0.0092
 5319TIP3    H115963   3.803   3.454   4.032  0.6301 -0.2111  0.1139
 5319TIP3    H215964   3.888   3.492   3.912 -0.4162  1.2346 -0.1954
 5320TIP3   OH215965   2.962   5.718   4.569 -0.1194  0.2179  0.5619
 5320TIP3    H115966   3.053   5.713   4.596 -0.1715 -1.5685  0.5518
 5320TIP3    H215967   2.932   5.803   4.599  1.8684  1.3418 -0.4794
 5321TIP3   OH215968   4.757   3.327   3.992 -0.5046  0.3271  0.5512
 5321TIP3    H115969   4.754   3.231   3.989 -1.3751  0.3720 -1.3809
 5321TIP3    H215970   4.833   3.350   3.939  0.8102  0.7013  2.5193
 5322TIP3   OH215971   0.480   3.463   2.159  0.0789  0.0388 -0.5934
 5322TIP3    H115972   0.510   3.374   2.176  0.3347  0.0942 -0.7583
 5322TIP3    H215973   0.388   3.463   2.186 -0.0639 -0.4122 -1.0830
 5323TIP3   OH215974   4.398   5.306   0.675  0.7766  0.1192  0.1200
 5323TIP3    H115975   4.376   5.383   0.622 -0.4162  0.2587  0.7860
 5323TIP3    H215976   4.492   5.294   0.661  1.4012  2.7865  1.3313
 5324TIP3   OH215977   0.749   1.393   1.425 -0.1235  0.2604  0.5275
 5324TIP3    H115978   0.798   1.317   1.454 -0.0380 -0.3390 -1.0833
 5324TIP3    H215979   0.802   1.430   1.354 -1.7361 -0.1733 -0.9831
 5325TIP3   OH215980   4.772   2.051   1.509 -0.1655  0.1749  0.8067
 5325TIP3    H115981   4.864   2.049   1.481 -0.5898  0.9230 -0.6953
 5325TIP3    H215982   4.752   1.960   1.531  0.1845 -0.5005 -1.4455
 5326TIP3   OH215983   2.798   4.425   2.689 -0.3490  0.4564 -0.1443
 5326TIP3    H115984   2.877   4.418   2.636  0.0957  1.4294  0.3542
 5326TIP3    H215985   2.752   4.501   2.652 -2.1533 -1.3402 -1.8057
 5327TIP3   OH215986   4.420   1.143   3.061 -0.0843  0.3663 -0.1827
 5327TIP3    H115987   4.497   1.199   3.062  0.1850  0.0028 -0.1635
 5327TIP3    H215988   4.422   1.101   2.975  0.6253 -0.8336  0.3830
 5328TIP3   OH215989   0.491   5.808   3.186 -0.3146 -0.4594 -0.1489
 5328TIP3    H115990   0.557   5.743   3.211  0.1245 -0.6514 -1.7205
 5328TIP3    H215991   0.443   5.825   3.267 -0.3781 -2.6802  0.3529
 5329TIP3   OH215992   3.560   0.016   1.849  0.3784  0.5420 -0.4341
 5329TIP3    H115993   3.642   0.055   1.818  0.4528  1.2054  0.5391
 5329TIP3    H215994   3.500   0.025   1.776  1.4593 -0.9458 -1.5729
 5330TIP3   OH215995   1.875   3.153   2.814 -0.6071 -0.1142  0.1606
 5330TIP3    H115996   1.835   3.083   2.762  1.6145 -0.2369 -1.4942
 5330TIP3    H215997   1.807   3.220   2.820 -1.6619 -1.0229 -1.0570
 5331TIP3   OH215998   0.564   1.952   3.597  0.2076 -0.1500 -0.4872
 5331TIP3    H115999   0.568   2.041   3.563 -0.8661  0.1194  0.0328
 5331TIP3    H216000   0.564   1.962   3.692 -1.9236 -0.5345 -0.3855
 5332TIP3   OH216001   2.767   4.532   3.832  0.5530 -0.1142  0.0236
 5332TIP3    H116002   2.814   4.549   3.751  0.4642 -1.2652 -0.2811
 5332TIP3    H216003   2.715   4.611   3.847  1.4062  0.5516 -0.4445
 5333TIP3   OH216004   5.969   4.117   2.438  0.3223  0.0854  0.1484
 5333TIP3    H116005   6.016   4.183   2.388  1.3593  0.0499  1.0364
 5333TIP3    H216006   5.943   4.162   2.519  3.2431 -1.1483  1.9330
 5334TIP3   OH216007   1.901   1.188   3.865 -0.3296 -0.2246 -0.0992
 5334TIP3    H116008   1.871   1.265   3.818 -1.8570 -1.1265 -0.6775
 5334TIP3    H216009   1.905   1.215   3.956 -0.2292  0.7010 -0.3676
 5335TIP3   OH216010   2.097   2.347   1.415 -0.0544  0.3283 -0.1038
 5335TIP3    H116011   2.064   2.411   1.351  1.9879  1.4505 -0.1372
 5335TIP3    H216012   2.065   2.379   1.499  1.0278  1.5386 -0.1070
 5336TIP3   OH216013   0.633   3.700   0.243 -0.1004 -0.6314 -0.3347
 5336TIP3    H116014   0.586   3.639   0.186 -0.0436  0.4170 -1.5440
 5336TIP3    H216015   0.609   3.787   0.211  0.9523 -0.0316  0.4251
 5337TIP3   OH216016   0.407   4.917   2.524 -0.2980  0.1852  0.1484
 5337TIP3    H116017   0.336   4.981   2.514 -0.0653  0.3449 -0.5077
 5337TIP3    H216018   0.463   4.954   2.592 -0.0060  0.8306 -0.4331
 5338TIP3   OH216019   1.311   3.042   4.334 -0.3457  0.7553  0.3733
 5338TIP3    H116020   1.356   2.960   4.354 -0.7570  0.6468  0.8761
 5338TIP3    H216021   1.254   3.057   4.410 -0.0295  1.6778  0.4432
 5339TIP3   OH216022   4.131   5.862   4.713  0.8281  0.1651  0.0067
 5339TIP3    H116023   4.145   5.776   4.673  0.7469 -0.3537  1.0729
 5339TIP3    H216024   4.046   5.891   4.680 -0.1381 -1.1171  1.2688
 5340TIP3   OH216025   2.871   4.803   4.076  0.1398 -0.1242  0.1924
 5340TIP3    H116026   2.908   4.715   4.066  0.3994  0.0631 -0.5272
 5340TIP3    H216027   2.803   4.808   4.009  0.2644  0.2995  0.0991
 5341TIP3   OH216028   5.980   4.288   0.929 -0.1522 -0.0174 -0.2875
 5341TIP3    H116029   5.999   4.380   0.913 -0.2822 -0.0186 -0.4427
 5341TIP3    H216030   6.006   4.274   1.020 -1.0378  0.4145  0.0460
 5342TIP3   OH216031   3.388   2.644   3.705  0.3733 -0.4936  0.0394
 5342TIP3    H116032   3.474   2.605   3.717  0.3964 -0.1388  1.1284
 5342TIP3    H216033   3.406   2.732   3.671  0.4067 -0.6642 -0.3898
 5343TIP3   OH216034   6.078   4.306   2.295  0.1157 -0.1206 -0.6355
 5343TIP3    H116035   6.147   4.372   2.289 -0.1229  0.0733 -1.4172
 5343TIP3    H216036   6.058   4.284   2.204 -2.5005  1.6053 -0.6065
 5344TIP3   OH216037   2.775   0.615   2.392 -0.2346 -0.1681 -0.3150
 5344TIP3    H116038   2.682   0.607   2.372 -0.4514  1.2911  0.0090
 5344TIP3    H216039   2.779   0.613   2.488 -0.2426  2.2749 -0.2103
 5345TIP3   OH216040   0.761   4.522   1.669 -0.1045 -0.1566  0.3905
 5345TIP3    H116041   0.679   4.484   1.637  0.0789 -0.6014  0.4404
 5345TIP3    H216042   0.767   4.607   1.624 -1.0977  0.3352  1.1570
 5346TIP3   OH216043   5.337   2.711   2.392  0.1653  0.0523  0.2652
 5346TIP3    H116044   5.294   2.711   2.477 -1.0233  0.2285 -0.3163
 5346TIP3    H216045   5.425   2.678   2.409  0.6126  1.8935  1.8787
 5347TIP3   OH216046   2.367   5.035   0.801 -0.1266  0.4672 -0.1454
 5347TIP3    H116047   2.297   4.977   0.770 -0.3472 -0.0697  1.2981
 5347TIP3    H216048   2.342   5.059   0.890  1.7455 -0.1021  0.5886
 5348TIP3   OH216049   6.114   5.543   0.671 -0.4114  0.0371  0.3478
 5348TIP3    H116050   6.104   5.616   0.732  0.9677 -1.7910  2.9900
 5348TIP3    H216051   6.207   5.520   0.676 -0.9664 -2.5235  0.4629
 5349TIP3   OH216052   3.542   0.387   1.223  0.0805  0.2648  0.1235
 5349TIP3    H116053   3.498   0.310   1.186  0.9123  1.0600 -2.7686
 5349TIP3    H216054   3.475   0.455   1.225  0.1442  0.3406 -0.3467
 5350TIP3   OH216055   2.777   0.749   1.207 -0.4803 -0.0192 -0.0827
 5350TIP3    H116056   2.787   0.715   1.118 -0.4827 -0.4780  0.0863
 5350TIP3    H216057   2.735   0.834   1.196  0.5349  0.4367 -0.5863
 5351TIP3   OH216058   0.698   2.316   0.154 -0.3691 -0.6040  1.0046
 5351TIP3    H116059   0.720   2.409   0.144  0.7958 -0.7220  2.2889
 5351TIP3    H216060   0.656   2.293   0.071  0.6820  0.6950  0.0640
 5352TIP3   OH216061   2.766   5.870   0.018 -0.3671 -0.3870 -0.3510
 5352TIP3    H116062   2.738   5.841   0.104  1.0360  0.7851  0.5539
 5352TIP3    H216063   2.695   5.926  -0.014 -0.5398 -0.1571  0.4250
 5353TIP3   OH216064   1.717   4.241   0.844  0.0694  0.1737  0.3872
 5353TIP3    H116065   1.803   4.246   0.885  1.4186 -0.8612 -2.0811
 5353TIP3    H216066   1.701   4.330   0.813 -0.2029  0.5785  1.6349
 5354TIP3   OH216067   2.422   3.377   2.632  0.2997 -0.3230  0.9499
 5354TIP3    H116068   2.496   3.426   2.595  0.8260 -2.0833 -0.4316
 5354TIP3    H216069   2.427   3.291   2.592 -2.4258 -0.5670  0.9450
 5355TIP3   OH216070   5.209   0.798   2.638 -0.0145 -0.4247  0.2993
 5355TIP3    H116071   5.113   0.806   2.637 -0.0410 -0.7629 -1.0945
 5355TIP3    H216072   5.241   0.888   2.629 -0.2041 -0.3759  0.1095
 5356TIP3   OH216073   1.916   5.569   1.279 -0.2662  0.2571  0.2100
 5356TIP3    H116074   1.985   5.535   1.336 -0.0713 -0.5586 -0.4884
 5356TIP3    H216075   1.877   5.491   1.239 -1.4867  0.7188  0.4664
 5357TIP3   OH216076   4.164   4.893   0.403  0.6085 -0.5417 -0.0403
 5357TIP3    H116077   4.169   4.810   0.354  3.4513 -0.3214 -0.3151
 5357TIP3    H216078   4.092   4.940   0.362 -0.2165 -2.3306 -0.7834
 5358TIP3   OH216079   3.848   2.610   0.404 -0.1130 -0.4441  0.0428
 5358TIP3    H116080   3.874   2.559   0.327 -1.1773 -2.0973  0.7174
 5358TIP3    H216081   3.837   2.699   0.371  1.7879 -0.6197 -1.1967
 5359TIP3   OH216082   3.917   0.123   0.331 -0.2503  0.6132 -0.3634
 5359TIP3    H116083   3.856   0.051   0.347  0.9249 -0.2114  0.5283
 5359TIP3    H216084   3.863   0.202   0.342 -0.7588 -0.0136  2.4777
 5360TIP3   OH216085   1.184   3.301   4.317 -0.1084 -0.1623 -0.4043
 5360TIP3    H116086   1.194   3.334   4.406  3.4551  2.6471 -1.5965
 5360TIP3    H216087   1.244   3.227   4.313 -1.2686 -1.1471 -0.1945
 5361TIP3   OH216088   0.961   5.347   0.381 -0.0908 -0.5295 -0.7463
 5361TIP3    H116089   0.939   5.361   0.473  0.7556  1.3804 -0.7774
 5361TIP3    H216090   0.918   5.264   0.358 -1.7152 -0.2091  0.8884
 5362TIP3   OH216091   5.002   5.112   0.268  0.2169  0.3185  0.0191
 5362TIP3    H116092   5.055   5.152   0.337 -0.2317 -0.4589  0.8352
 5362TIP3    H216093   5.066   5.082   0.203  0.6257  1.2573 -0.0309
 5363TIP3   OH216094   5.547   0.261   3.205 -0.1732 -0.1737  0.3045
 5363TIP3    H116095   5.506   0.275   3.119 -0.1833 -0.6245  0.2307
 5363TIP3    H216096   5.589   0.175   3.197 -0.6023 -0.4488  0.9165
 5364TIP3   OH216097   0.903   0.900   3.231 -0.0554  0.2502  0.8560
 5364TIP3    H116098   0.874   0.864   3.316 -0.5515  0.5680  0.8260
 5364TIP3    H216099   0.993   0.869   3.221 -0.6097 -1.3901  0.6241
 5365TIP3   OH216100   3.291   3.955   2.478 -0.6995 -0.0028  0.1874
 5365TIP3    H116101   3.357   3.899   2.437 -0.9651  1.4632 -2.4257
 5365TIP3    H216102   3.338   3.998   2.550 -0.0767 -2.2744  1.2604
 5366TIP3   OH216103   1.023   4.724   2.127  0.2395  0.0088 -0.2922
 5366TIP3    H116104   1.051   4.813   2.105  0.0507 -0.1810 -1.3229
 5366TIP3    H216105   1.030   4.675   2.046  1.7596 -1.3202  0.5756
 5367TIP3   OH216106   2.072   4.575   1.479  0.8522  0.3188  0.5019
 5367TIP3    H116107   2.057   4.508   1.412 -0.7736  0.0040  1.1453
 5367TIP3    H216108   2.132   4.533   1.541  0.7858 -0.1180  0.2780
 5368TIP3   OH216109   2.255   2.592   2.153 -0.3975  0.2654 -0.2365
 5368TIP3    H116110   2.250   2.550   2.240 -0.4489  0.4189 -0.1650
 5368TIP3    H216111   2.347   2.617   2.144 -0.0279 -1.2038 -0.9126
 5369TIP3   OH216112   4.095   0.006   4.501  0.2561  0.9025  0.1135
 5369TIP3    H116113   4.008   0.042   4.522  0.9098  2.1227  0.8624
 5369TIP3    H216114   4.123  -0.038   4.581  0.3523  0.5715 -0.1029
 5370TIP3   OH216115   5.329   0.511   2.914  0.0613  0.4947 -0.3178
 5370TIP3    H116116   5.288   0.561   2.985 -0.6562 -2.9280  1.8983
 5370TIP3    H216117   5.354   0.428   2.954  1.7236 -0.7823 -3.6139
 5371TIP3   OH216118   0.268   0.629   4.070 -0.4742  0.2291  0.0394
 5371TIP3    H116119   0.351   0.670   4.094  0.5030 -1.4451 -0.2853
 5371TIP3    H216120   0.254   0.654   3.979  0.0672 -0.0686 -0.1308
 5372TIP3   OH216121   1.622   4.508   0.690  0.7108  0.8695 -0.0026
 5372TIP3    H116122   1.581   4.451   0.625  1.5604  0.3508 -0.0985
 5372TIP3    H216123   1.583   4.594   0.675 -0.9642  0.2325  0.4706
 5373TIP3   OH216124   5.095   1.505   2.370  0.2617  0.1709  0.4060
 5373TIP3    H116125   5.064   1.519   2.281 -0.3738  0.5028  0.6753
 5373TIP3    H216126   5.039   1.436   2.405  0.8541 -0.3378  0.3837
 5374TIP3   OH216127   6.271   2.003   3.206  0.6347 -0.1255 -0.4903
 5374TIP3    H116128   6.302   2.078   3.256  1.2402 -0.8412  0.2300
 5374TIP3    H216129   6.341   1.938   3.214  0.2583 -0.6591 -1.3617
 5375TIP3   OH216130   3.851   0.065   2.649  0.2943 -0.0048  0.0052
 5375TIP3    H116131   3.884   0.070   2.738  0.9716 -0.8327 -0.1925
 5375TIP3    H216132   3.929   0.055   2.594 -0.0399  1.2973 -0.7687
 5376TIP3   OH216133   1.322   3.246   1.985 -0.0176 -0.6805 -0.7397
 5376TIP3    H116134   1.258   3.317   1.975 -0.6763 -1.2925 -0.9602
 5376TIP3    H216135   1.405   3.285   1.958  0.0490  0.6415  1.1525
 5377TIP3   OH216136   4.438   5.048   1.899 -0.4974  0.4777  0.2647
 5377TIP3    H116137   4.530   5.050   1.872 -0.3536 -1.0924  0.5289
 5377TIP3    H216138   4.435   5.106   1.975  0.7209 -0.8446  1.3997
 5378TIP3   OH216139   4.471   1.633   1.574  0.2050  0.1665  0.1947
 5378TIP3    H116140   4.396   1.672   1.619  0.7273  1.2516  0.1615
 5378TIP3    H216141   4.531   1.608   1.644 -0.9350 -2.4448  0.3535
 5379TIP3   OH216142  -0.016   3.283   4.903 -0.3402  0.9677  0.3092
 5379TIP3    H116143   0.079   3.268   4.909 -0.5159 -1.2942 -1.3523
 5379TIP3    H216144  -0.024   3.351   4.835  0.0995  1.5012  0.7840
 5380TIP3   OH216145   4.326   2.062   3.234 -0.4873 -0.1873 -0.0272
 5380TIP3    H116146   4.277   2.136   3.197 -1.2770 -0.5441  0.2809
 5380TIP3    H216147   4.361   2.095   3.317 -1.5587 -0.3977  0.5316
 5381TIP3   OH216148   5.170   1.107   0.623 -0.4046 -0.7244 -0.1280
 5381TIP3    H116149   5.240   1.095   0.559  2.4415 -2.6269  2.9940
 5381TIP3    H216150   5.100   1.049   0.593  0.6869 -1.3317 -1.6619
 5382TIP3   OH216151   1.419   1.645   4.416 -0.2986  0.0350  0.3584
 5382TIP3    H116152   1.410   1.716   4.352 -2.3964 -1.1474 -0.7689
 5382TIP3    H216153   1.443   1.569   4.363  0.8230 -0.3721  1.4008
 5383TIP3   OH216154   0.650   0.026   2.888 -0.2899 -1.0372 -0.1466
 5383TIP3    H116155   0.561   0.059   2.874 -0.0263  0.2025  0.8938
 5383TIP3    H216156   0.638  -0.065   2.913 -1.1746 -1.2472 -1.2736
 5384TIP3   OH216157   1.736   1.926   3.160 -0.2412  0.6066 -0.1393
 5384TIP3    H116158   1.707   2.015   3.178  0.6727  1.0501 -0.8293
 5384TIP3    H216159   1.827   1.923   3.190  0.6965  0.7997 -2.7762
 5385TIP3   OH216160   6.142   2.733   3.771 -0.2387  0.4779 -0.1256
 5385TIP3    H116161   6.113   2.793   3.840  0.4525 -0.0529  0.6362
 5385TIP3    H216162   6.227   2.767   3.744 -1.7016  2.3894 -2.7810
 5386TIP3   OH216163   6.243   5.966   3.866  0.4312  0.4636 -0.4957
 5386TIP3    H116164   6.203   5.913   3.798  1.4895  1.6346 -2.0928
 5386TIP3    H216165   6.334   5.935   3.871  0.3572  0.3540  0.4522
 5387TIP3   OH216166   3.115   4.701   3.169  0.1558 -0.5042 -0.4969
 5387TIP3    H116167   3.069   4.649   3.102  0.6968  0.7841 -1.9359
 5387TIP3    H216168   3.045   4.744   3.218 -0.2414 -0.6491 -0.9273
 5388TIP3   OH216169   6.149   1.777   2.763  0.1454 -0.0539 -0.0025
 5388TIP3    H116170   6.059   1.745   2.774  0.4111 -0.5265  0.9357
 5388TIP3    H216171   6.160   1.841   2.833  0.9234 -0.8909  0.6668
 5389TIP3   OH216172   0.752   0.075   0.500  0.0907  0.2200 -0.5068
 5389TIP3    H116173   0.790   0.136   0.564 -1.4296  0.3818  0.2739
 5389TIP3    H216174   0.801   0.092   0.419  0.8697  1.2411  0.1524
 5390TIP3   OH216175   1.469   3.335   1.416  0.3162  0.4268  0.3636
 5390TIP3    H116176   1.473   3.391   1.493  1.1833 -0.0426  0.6780
 5390TIP3    H216177   1.561   3.321   1.391  0.1474 -0.9940  0.4164
 5391TIP3   OH216178   6.054   4.562   5.165  0.8339 -0.2102 -0.0073
 5391TIP3    H116179   6.096   4.609   5.237  1.7822  0.4410 -0.9548
 5391TIP3    H216180   6.077   4.613   5.087  0.4966 -1.3347 -0.8585
 5392TIP3   OH216181   3.222   3.779   3.353  0.5196  0.5542 -0.2834
 5392TIP3    H116182   3.317   3.776   3.361  0.5427  2.8657  1.4651
 5392TIP3    H216183   3.190   3.768   3.442 -1.0023 -1.6006 -1.0031
 5393TIP3   OH216184   5.725   1.789   2.401  0.4980 -0.0575 -0.1368
 5393TIP3    H116185   5.688   1.873   2.373 -1.2879 -1.1383 -1.2418
 5393TIP3    H216186   5.814   1.789   2.366 -0.2658  0.4179 -2.2320
 5394TIP3   OH216187   5.264   1.895   3.022  0.0975 -0.5649  0.4902
 5394TIP3    H116188   5.236   1.826   2.962 -1.7156  0.6845 -0.1857
 5394TIP3    H216189   5.354   1.871   3.047  0.1073 -2.2511 -1.0095
 5395TIP3   OH216190   3.101   4.469   0.523 -0.2450  0.7887 -0.3588
 5395TIP3    H116191   3.165   4.525   0.480  1.6956  0.2777  1.6504
 5395TIP3    H216192   3.098   4.501   0.614  0.2543 -1.6679  0.6147
 5396TIP3   OH216193   5.683   1.930   3.956 -0.2117 -0.0076 -0.2221
 5396TIP3    H116194   5.651   1.986   3.886 -1.5319  0.4374  0.7054
 5396TIP3    H216195   5.705   1.848   3.912 -0.3313  0.4989 -1.2643
 5397TIP3   OH216196   0.489   1.655   2.965 -0.0143  0.3013 -0.6201
 5397TIP3    H116197   0.576   1.624   2.991 -0.5686 -0.1923  0.7048
 5397TIP3    H216198   0.505   1.701   2.882  1.6307  0.8779 -0.0469
 5398TIP3   OH216199   5.301   5.330   1.733  0.1947 -0.2231  0.5811
 5398TIP3    H116200   5.355   5.251   1.736 -0.5202 -0.7145  0.9401
 5398TIP3    H216201   5.304   5.364   1.822  0.8262  0.3970  0.3372
 5399TIP3   OH216202   4.486   4.720   4.565 -0.2921  0.5857  0.6506
 5399TIP3    H116203   4.536   4.789   4.608  1.4456  1.5570 -2.6259
 5399TIP3    H216204   4.421   4.766   4.512 -0.1058 -0.3729 -0.4331
 5400TIP3   OH216205   3.039   3.916   1.050 -0.0061  0.3424 -0.5605
 5400TIP3    H116206   3.065   3.964   0.971 -2.1893 -0.7407 -2.0394
 5400TIP3    H216207   3.114   3.860   1.070  0.9571  1.3410 -1.2761
 5401TIP3   OH216208   4.634   0.208   1.494  0.4026 -0.4734 -0.3478
 5401TIP3    H116209   4.560   0.158   1.461 -0.5564  1.0571 -0.6499
 5401TIP3    H216210   4.661   0.162   1.574 -0.6379 -1.2664 -0.4370
 5402TIP3   OH216211   1.645   1.914   2.622 -0.0405 -0.0409  0.0699
 5402TIP3    H116212   1.717   1.855   2.644  0.5257 -0.3945 -2.4739
 5402TIP3    H216213   1.567   1.861   2.632  0.1330 -0.0733  1.4462
 5403TIP3   OH216214   2.758   3.518   4.646 -0.2404  0.3358 -0.1142
 5403TIP3    H116215   2.853   3.525   4.645 -0.2686  0.7938  0.4052
 5403TIP3    H216216   2.727   3.608   4.657 -0.7291  0.1543  0.0101
 5404TIP3   OH216217   3.378   1.428   4.702  0.3887 -0.5316  0.1712
 5404TIP3    H116218   3.324   1.477   4.641  1.9065  1.1230  0.0628
 5404TIP3    H216219   3.346   1.338   4.696 -1.4467  0.1423 -0.8190
 5405TIP3   OH216220   0.829   2.225   4.381  0.4825 -0.2492  0.3216
 5405TIP3    H116221   0.916   2.241   4.417  1.1239 -1.7627 -0.4328
 5405TIP3    H216222   0.801   2.144   4.423 -0.2336 -0.1701 -0.0012
 5406TIP3   OH216223   3.763   3.368   2.404  0.3296 -0.6965 -0.4323
 5406TIP3    H116224   3.689   3.427   2.418 -0.3768 -2.2221  3.3591
 5406TIP3    H216225   3.724   3.287   2.372  0.8128 -0.5656 -1.4251
 5407TIP3   OH216226   5.104   3.961   0.863 -0.2642  0.4059  0.4046
 5407TIP3    H116227   5.116   3.916   0.947  1.1298 -3.3566 -1.5752
 5407TIP3    H216228   5.026   3.921   0.826 -0.0094  0.9421 -0.7329
 5408TIP3   OH216229   4.755   5.281   3.082 -0.5755  0.4288 -0.5724
 5408TIP3    H116230   4.713   5.367   3.079 -1.4626 -0.0192 -1.2550
 5408TIP3    H216231   4.849   5.300   3.086 -0.7431  1.4216 -1.2728
 5409TIP3   OH216232   1.412   5.050   0.724 -0.1305  0.1312  0.4162
 5409TIP3    H116233   1.332   5.025   0.771  0.4654  0.9904  1.9776
 5409TIP3    H216234   1.442   5.129   0.769  1.8239 -0.4042  0.1423
 5410TIP3   OH216235   2.945   0.750   3.483  0.1974  0.0205  0.4105
 5410TIP3    H116236   2.918   0.659   3.489 -1.1246  0.0344 -3.0987
 5410TIP3    H216237   2.867   0.800   3.508  0.3357  0.2037  0.4865
 5411TIP3   OH216238   4.262   3.959   2.093  0.0040 -0.2549  0.3218
 5411TIP3    H116239   4.313   3.901   2.151  0.8370  0.9210  0.7980
 5411TIP3    H216240   4.317   4.036   2.082 -0.4944 -0.1072 -1.4190
 5412TIP3   OH216241   5.047   1.880   4.554 -0.4746  0.1764 -0.0234
 5412TIP3    H116242   5.086   1.796   4.576  1.8158  0.5460 -2.1890
 5412TIP3    H216243   5.086   1.942   4.616  1.2756  0.2849 -1.1829
 5413TIP3   OH216244   3.852   4.605   1.932  0.5906 -0.8308  0.0960
 5413TIP3    H116245   3.859   4.599   2.027  1.0537 -2.2794  0.0021
 5413TIP3    H216246   3.863   4.515   1.902  3.3008 -0.0639 -1.5159
 5414TIP3   OH216247   0.469   5.299   0.486  0.5290  0.5001 -0.3125
 5414TIP3    H116248   0.374   5.308   0.473  0.7766  2.6821 -0.9008
 5414TIP3    H216249   0.503   5.282   0.398  0.8364  1.4528 -0.3874
 5415TIP3   OH216250   5.567   5.872   2.512  0.3429  0.0666 -0.8532
 5415TIP3    H116251   5.636   5.919   2.464  0.5224 -0.7228 -1.3891
 5415TIP3    H216252   5.537   5.806   2.450 -0.1915 -0.2515 -0.2511
 5416TIP3   OH216253   2.134   0.903   3.435  0.1326 -0.0881  0.2765
 5416TIP3    H116254   2.092   0.964   3.496 -1.4532  0.7720 -1.5611
 5416TIP3    H216255   2.063   0.846   3.406  1.4710 -2.5682  1.5236
 5417TIP3   OH216256   2.500   2.119   3.146  0.9053 -0.1491 -0.4841
 5417TIP3    H116257   2.413   2.121   3.185  1.0497  0.2134 -0.1663
 5417TIP3    H216258   2.559   2.145   3.217  1.3953 -1.4360 -0.4015
 5418TIP3   OH216259   0.043   0.815   3.355  0.0044 -0.0808  0.2276
 5418TIP3    H116260  -0.047   0.794   3.328 -0.3848 -0.3426  1.6042
 5418TIP3    H216261   0.078   0.732   3.387  0.3554  0.2448  0.6963
 5419TIP3   OH216262   1.256   4.307   0.303  0.5955  0.0511  0.0016
 5419TIP3    H116263   1.209   4.270   0.229 -0.4849  2.2569 -0.4955
 5419TIP3    H216264   1.277   4.232   0.359 -1.2182 -1.3036 -1.0522
 5420TIP3   OH216265   5.702   2.040   2.107 -0.9902  0.5268  0.2863
 5420TIP3    H116266   5.776   1.985   2.081  1.7169  4.0326 -0.1507
 5420TIP3    H216267   5.718   2.060   2.199 -0.2693  2.7505 -0.2642
 5421TIP3   OH216268   3.875   0.774   1.040 -0.4509 -0.2744  0.7828
 5421TIP3    H116269   3.909   0.839   0.979 -0.5770 -2.0773 -1.3402
 5421TIP3    H216270   3.841   0.826   1.113 -0.4495  2.0352 -0.7246
 5422TIP3   OH216271   0.035   4.308   3.644 -0.0807  0.3560  0.3784
 5422TIP3    H116272  -0.021   4.236   3.672 -0.9292  1.3167  1.1916
 5422TIP3    H216273   0.094   4.268   3.580 -0.7979 -0.9681  0.5078
 5423TIP3   OH216274   3.020   0.201   1.680 -0.5246 -0.4267 -0.0371
 5423TIP3    H116275   2.941   0.159   1.714  0.0269  0.4332  2.5794
 5423TIP3    H216276   3.011   0.293   1.705  0.7988 -0.1059 -0.6450
 5424TIP3   OH216277   4.389   3.577   0.255 -1.0726 -0.7556  0.2323
 5424TIP3    H116278   4.376   3.499   0.310 -0.8591 -1.1615 -0.2887
 5424TIP3    H216279   4.474   3.563   0.214 -1.3575 -0.5839 -0.4158
 5425TIP3   OH216280   3.319   2.027   4.079  0.1841  0.1902  0.1270
 5425TIP3    H116281   3.268   2.094   4.123  0.3996 -0.4386  1.3908
 5425TIP3    H216282   3.395   2.012   4.136  0.4343 -0.7153 -0.4049
 5426TIP3   OH216283   3.905   3.749   3.163 -0.3714 -0.0694 -0.3479
 5426TIP3    H116284   3.997   3.739   3.185 -0.9281 -2.2325  1.2811
 5426TIP3    H216285   3.871   3.811   3.227 -0.0879  0.7512 -0.9667
 5427TIP3   OH216286   0.156   2.126   0.806  0.0006  0.1838  0.3092
 5427TIP3    H116287   0.225   2.180   0.845 -0.5191  1.1745 -0.1138
 5427TIP3    H216288   0.142   2.164   0.719 -2.2743  1.1114  1.0229
 5428TIP3   OH216289   1.103   2.159   1.085 -0.2154 -0.2098 -0.3262
 5428TIP3    H116290   1.065   2.225   1.028 -0.0358  0.9504  0.8555
 5428TIP3    H216291   1.123   2.085   1.027 -2.6678 -0.2220 -1.2752
 5429TIP3   OH216292   3.594   4.522   2.018  0.0493  0.0328  0.3649
 5429TIP3    H116293   3.526   4.501   1.953  0.6649 -1.5217  0.1942
 5429TIP3    H216294   3.637   4.600   1.982 -1.1172  0.5773  0.0832
 5430TIP3   OH216295   4.667   0.297   4.530 -0.1807 -0.4660 -0.0894
 5430TIP3    H116296   4.597   0.231   4.531 -0.8642  0.2141 -1.2058
 5430TIP3    H216297   4.722   0.274   4.605 -0.5916 -2.0927 -0.2443
 5431TIP3   OH216298   1.198   4.002   3.083 -0.3446  0.1509 -0.4087
 5431TIP3    H116299   1.275   3.994   3.139 -0.0440  2.6262 -0.3681
 5431TIP3    H216300   1.233   4.002   2.994 -0.6447 -1.8309 -0.5718
 5432TIP3   OH216301   4.553   0.953   0.641  0.2196  0.0543  0.5330
 5432TIP3    H116302   4.634   0.953   0.590 -0.0034  1.9816  0.0967
 5432TIP3    H216303   4.570   1.015   0.712 -0.0776 -1.3111  1.8669
 5433TIP3   OH216304   2.589   5.061   3.953  0.3065 -0.4606  0.2235
 5433TIP3    H116305   2.613   5.151   3.974  0.3868 -0.8649  2.0050
 5433TIP3    H216306   2.549   5.066   3.866  0.2605  1.3006  0.3238
 5434TIP3   OH216307   3.284   2.277   1.118 -0.5678 -0.3899  0.4030
 5434TIP3    H116308   3.346   2.228   1.065 -1.2157 -0.7404 -0.0452
 5434TIP3    H216309   3.330   2.292   1.201  1.4423  2.3822 -1.0860
 5435TIP3   OH216310   4.785   3.327   2.769 -0.3463 -0.1992  0.3645
 5435TIP3    H116311   4.863   3.321   2.824 -0.1456 -1.1741 -0.0121
 5435TIP3    H216312   4.817   3.313   2.680 -0.7963  0.5049  0.0797
 5436TIP3   OH216313   2.360   4.486   2.517  0.0588  0.0546 -0.2683
 5436TIP3    H116314   2.339   4.475   2.424 -0.0308  0.6184 -0.3212
 5436TIP3    H216315   2.317   4.568   2.541 -2.7285 -1.6611  1.1211
 5437TIP3   OH216316   4.385   2.403   3.104 -0.7566  0.0966 -0.3334
 5437TIP3    H116317   4.301   2.362   3.120 -0.7816  0.5171  0.7185
 5437TIP3    H216318   4.381   2.486   3.153 -0.0557  0.5211 -0.9683
 5438TIP3   OH216319   1.219   1.953   1.947  0.4753 -0.2170 -0.6351
 5438TIP3    H116320   1.303   1.936   1.905  1.4692  1.8292  0.3709
 5438TIP3    H216321   1.162   1.982   1.876  1.5042  1.1338 -0.9563
 5439TIP3   OH216322   3.525   2.185   3.029  0.6062 -0.4216  0.6724
 5439TIP3    H116323   3.498   2.173   3.120  1.1709  1.2633  1.0946
 5439TIP3    H216324   3.443   2.194   2.981  0.1843 -3.4683  0.5837
 5440TIP3   OH216325   1.633   3.348   2.848  0.0030 -0.8176 -0.2943
 5440TIP3    H116326   1.555   3.347   2.903  1.0644 -2.9764  1.3188
 5440TIP3    H216327   1.600   3.338   2.759 -1.6450  0.4899  0.1257
 5441TIP3   OH216328   3.622   1.476   4.807  0.2680 -0.4247 -0.0092
 5441TIP3    H116329   3.539   1.436   4.777  0.6903 -1.7151  0.4699
 5441TIP3    H216330   3.682   1.402   4.817  1.5519  0.5074 -0.5176
 5442TIP3   OH216331   2.768   3.808   2.603 -0.6178  0.3948  0.7315
 5442TIP3    H116332   2.773   3.743   2.673 -0.4020 -1.8064 -1.2136
 5442TIP3    H216333   2.854   3.851   2.605 -0.3572 -0.1308  1.3506
 5443TIP3   OH216334   5.731   5.431   3.345 -0.3033 -0.1901  0.0083
 5443TIP3    H116335   5.765   5.520   3.351 -0.7630 -0.1034  1.6321
 5443TIP3    H216336   5.645   5.441   3.302 -1.1505  0.3943  1.7654
 5444TIP3   OH216337   4.582   1.826   1.273 -0.0101 -0.2078 -0.3026
 5444TIP3    H116338   4.642   1.896   1.250  0.3037  0.0045  1.0332
 5444TIP3    H216339   4.527   1.863   1.342 -0.2190 -1.0770  0.0190
 5445TIP3   OH216340   0.257   1.682   2.357  0.2013  0.1719  0.5155
 5445TIP3    H116341   0.294   1.676   2.269 -1.0145  0.0492 -0.0117
 5445TIP3    H216342   0.303   1.755   2.398  0.4625  0.5229 -0.3860
 5446TIP3   OH216343   3.256   1.227   1.749  0.5064  0.2290  0.0347
 5446TIP3    H116344   3.286   1.271   1.669 -2.1648  1.4479 -0.4274
 5446TIP3    H216345   3.256   1.296   1.815 -0.4874  0.0899  0.1920
 5447TIP3   OH216346   0.692   1.172   3.510 -0.6530 -0.2338  0.2861
 5447TIP3    H116347   0.784   1.184   3.532 -0.2887 -0.3799 -1.0647
 5447TIP3    H216348   0.663   1.100   3.566  0.2951 -0.7587  0.1260
 5448TIP3   OH216349   4.195   0.117   3.708 -0.0706 -0.5983 -0.1711
 5448TIP3    H116350   4.289   0.100   3.716  0.6017  2.5028 -0.5139
 5448TIP3    H216351   4.178   0.186   3.772 -1.4312  1.1120 -2.2830
 5449TIP3   OH216352   3.652   5.125   3.735  0.2053  0.6044 -0.4794
 5449TIP3    H116353   3.714   5.071   3.686 -0.3231  0.3909 -0.9376
 5449TIP3    H216354   3.571   5.073   3.735 -0.0192  0.9476 -0.0430
 5450TIP3   OH216355   4.416   0.878   2.188 -0.0829 -0.1102  0.0959
 5450TIP3    H116356   4.347   0.834   2.237 -0.5751  1.0318  0.4520
 5450TIP3    H216357   4.462   0.807   2.143 -0.9678 -0.9647  0.5030
 5451TIP3   OH216358   0.832   3.209   4.943  0.1602  0.1936 -0.4120
 5451TIP3    H116359   0.913   3.229   4.989  1.0231  0.2758 -1.9028
 5451TIP3    H216360   0.857   3.148   4.875 -1.0954 -0.0093 -0.7207
 5452TIP3   OH216361   3.874   3.237   1.186  0.0630 -0.6658 -0.4084
 5452TIP3    H116362   3.808   3.305   1.198  0.1891 -0.6886  0.4325
 5452TIP3    H216363   3.928   3.268   1.114  1.2232  1.0045  1.1006
 5453TIP3   OH216364   5.286   0.511   4.527  0.7616 -0.4871  0.0756
 5453TIP3    H116365   5.338   0.567   4.584  0.5295 -0.8605  0.6618
 5453TIP3    H216366   5.349   0.474   4.465  0.8631  0.7019 -0.5635
 5454TIP3   OH216367   6.001   3.301   4.757 -0.5133  0.3390  0.2224
 5454TIP3    H116368   6.073   3.364   4.756 -1.1358  1.1473  1.7276
 5454TIP3    H216369   5.950   3.322   4.679  0.6818 -0.0178 -0.6726
 5455TIP3   OH216370   3.025   3.376   4.296  0.2660 -0.2799 -0.1530
 5455TIP3    H116371   3.041   3.452   4.353 -0.5826 -0.0669 -0.1870
 5455TIP3    H216372   3.057   3.404   4.210 -2.2590  1.0385 -0.7867
 5456TIP3   OH216373   2.572   3.507   0.698 -0.1635  0.4899  0.5181
 5456TIP3    H116374   2.564   3.513   0.603  0.1103 -0.8021  0.4046
 5456TIP3    H216375   2.652   3.456   0.712 -0.0547  0.9016  1.4542
 5457TIP3   OH216376   5.252   1.613   4.987  0.4275 -0.6783  0.0414
 5457TIP3    H116377   5.235   1.702   5.016  1.6882 -0.5680  0.5304
 5457TIP3    H216378   5.216   1.557   5.056  0.7816 -0.4978  0.3768
 5458TIP3   OH216379   1.259   2.117   2.614 -0.1456 -0.0897 -0.1489
 5458TIP3    H116380   1.315   2.100   2.538 -0.6563  0.3294 -0.6211
 5458TIP3    H216381   1.190   2.050   2.608 -1.5981  1.4349 -1.4601
 5459TIP3   OH216382   0.347   5.943   1.307 -0.2167  0.2264  0.1897
 5459TIP3    H116383   0.433   5.964   1.269  0.1106  0.0178  0.7990
 5459TIP3    H216384   0.306   5.885   1.242  0.2066  0.1159  0.0109
 5460TIP3   OH216385   0.944   2.410   0.446  0.5778 -0.4822 -0.7085
 5460TIP3    H116386   0.873   2.364   0.491 -0.2948  0.3378 -1.2132
 5460TIP3    H216387   1.013   2.343   0.436 -0.1509 -1.3172 -0.2995
 5461TIP3   OH216388   2.760   2.843   2.336  0.2806 -0.3800  0.1996
 5461TIP3    H116389   2.773   2.759   2.379 -0.8557 -1.2769 -1.1503
 5461TIP3    H216390   2.706   2.824   2.259  1.7085  1.2491 -1.3039
 5462TIP3   OH216391   2.239   5.089   4.404 -0.3424 -0.0477 -0.8848
 5462TIP3    H116392   2.220   5.087   4.498 -0.3585 -0.5502 -0.8962
 5462TIP3    H216393   2.320   5.040   4.395 -0.8769 -0.8822 -1.2491
 5463TIP3   OH216394   3.690   4.739   3.161 -0.3889  0.2183 -0.0447
 5463TIP3    H116395   3.650   4.750   3.248  0.4428  0.6019  0.3014
 5463TIP3    H216396   3.782   4.720   3.180 -0.5632 -1.5720 -0.7990
 5464TIP3   OH216397   2.036   2.727   3.606 -0.3194 -0.0331  0.0309
 5464TIP3    H116398   2.025   2.803   3.549  0.0124 -0.7946 -1.0748
 5464TIP3    H216399   2.110   2.749   3.662 -1.5798  1.3376  1.2196
 5465TIP3   OH216400   5.769   0.610   1.177 -0.2493 -0.5394 -0.1193
 5465TIP3    H116401   5.711   0.686   1.180 -0.0756 -0.2853 -2.0084
 5465TIP3    H216402   5.795   0.596   1.268  0.1249  1.9787  0.2358
 5466TIP3   OH216403   2.604   3.682   4.016  0.3492 -0.2549 -0.4910
 5466TIP3    H116404   2.667   3.733   3.965 -2.2779  0.4596 -3.3069
 5466TIP3    H216405   2.560   3.627   3.952 -1.8729 -0.7488  1.3306
 5467TIP3   OH216406   2.007   1.492   4.406  0.7346  0.2183  0.1180
 5467TIP3    H116407   2.023   1.516   4.498  1.8001  0.1136 -0.0286
 5467TIP3    H216408   1.953   1.564   4.372 -0.6106 -0.2825  1.1045
 5468TIP3   OH216409   0.446   3.036   4.111 -0.5696 -0.3911  0.0176
 5468TIP3    H116410   0.374   3.071   4.058 -0.1720  1.3034  0.5555
 5468TIP3    H216411   0.524   3.050   4.057 -0.4701 -1.0146 -0.0067
 5469TIP3   OH216412   2.353   0.884   4.958 -0.5003 -0.0503  0.1736
 5469TIP3    H116413   2.276   0.828   4.951 -0.8050  0.3852 -0.0238
 5469TIP3    H216414   2.317   0.972   4.966 -0.0485  0.0174  1.6341
 5470TIP3   OH216415   3.001   5.222   1.743 -1.2435  0.6505  0.2500
 5470TIP3    H116416   2.983   5.183   1.829 -0.0625  0.9400  0.6543
 5470TIP3    H216417   3.004   5.316   1.760  0.8039  0.6283  0.2966
 5471TIP3   OH216418   4.974   4.067   4.843  0.4254  0.0974  0.6552
 5471TIP3    H116419   4.921   4.060   4.763  1.1184  3.9044 -0.3524
 5471TIP3    H216420   4.948   3.991   4.896 -0.6906 -2.1376 -2.7578
 5472TIP3   OH216421   1.468   0.768   4.873 -0.2233  0.1300  0.7184
 5472TIP3    H116422   1.531   0.735   4.936  0.4708 -0.1526 -0.1012
 5472TIP3    H216423   1.406   0.696   4.860 -1.7381  0.9760  2.7698
 5473TIP3   OH216424   1.803   3.442   2.257 -0.1741  0.2210 -0.2234
 5473TIP3    H116425   1.844   3.395   2.184  0.3593  1.5428 -0.8157
 5473TIP3    H216426   1.800   3.378   2.328  1.2763 -0.4714 -0.7351
 5474TIP3   OH216427   4.412   4.324   2.560 -0.5308 -0.1443  0.1732
 5474TIP3    H116428   4.388   4.349   2.650  1.5013 -0.2638  0.8068
 5474TIP3    H216429   4.481   4.258   2.572  1.1299  1.1988 -1.4387
 5475TIP3   OH216430   3.090   5.372   2.688  0.0081 -0.7590  0.1069
 5475TIP3    H116431   3.026   5.398   2.754 -0.4370 -0.2404 -0.5217
 5475TIP3    H216432   3.136   5.298   2.727 -1.1937 -1.3499  0.4440
 5476TIP3   OH216433   5.026   5.907   4.506  0.3650  1.0256  0.2932
 5476TIP3    H116434   4.944   5.932   4.549  1.1920  0.4662  2.3367
 5476TIP3    H216435   5.056   5.830   4.555  1.5123  0.4925 -1.1760
 5477TIP3   OH216436   5.045   4.495   4.678 -0.9795 -0.2201  0.3041
 5477TIP3    H116437   5.087   4.435   4.615  0.5480 -1.1109  2.0628
 5477TIP3    H216438   4.987   4.549   4.625 -0.1336 -1.2579 -1.7913
 5478TIP3   OH216439   0.936   3.871   3.979 -0.0337 -0.2569 -0.0537
 5478TIP3    H116440   0.849   3.833   3.971 -1.4608  2.4557  1.0652
 5478TIP3    H216441   0.951   3.879   4.073  0.8292  0.5485 -0.2368
 5479TIP3   OH216442   0.818   1.010   4.495  0.4101 -0.3493 -0.2769
 5479TIP3    H116443   0.871   0.992   4.573  0.4766  1.2033  0.0784
 5479TIP3    H216444   0.832   1.104   4.479 -0.9040 -0.2911 -1.1798
 5480TIP3   OH216445   3.277   4.801   4.729 -0.2998  0.3084 -0.0319
 5480TIP3    H116446   3.198   4.850   4.706  0.4379  2.4837  1.7149
 5480TIP3    H216447   3.248   4.738   4.795 -0.4728  1.7934  1.3709
 5481TIP3   OH216448   4.423   2.755   2.074 -0.2188  0.4574 -0.2767
 5481TIP3    H116449   4.388   2.741   2.162  1.2937  0.7743  0.3968
 5481TIP3    H216450   4.348   2.740   2.016 -1.2288  0.2043  1.0507
 5482TIP3   OH216451   1.465   3.664   0.208  0.0406 -0.1782  0.3108
 5482TIP3    H116452   1.420   3.579   0.209  0.0468 -0.2045  1.7659
 5482TIP3    H216453   1.551   3.645   0.247  0.9086  0.0980 -1.3611
 5483TIP3   OH216454   4.817   4.663   4.559 -0.3056  0.1393 -1.0267
 5483TIP3    H116455   4.767   4.696   4.633  0.0061 -0.9692 -0.3019
 5483TIP3    H216456   4.762   4.679   4.482  0.2439  3.2650 -0.8912
 5484TIP3   OH216457   3.394   2.910   1.865 -0.3745  0.1993 -0.1196
 5484TIP3    H116458   3.440   2.979   1.912  0.9137 -1.4166  1.1170
 5484TIP3    H216459   3.448   2.895   1.787  1.7474 -2.1455  1.6521
 5485TIP3   OH216460   2.509   3.392   4.557 -0.1038  0.4733 -0.1926
 5485TIP3    H116461   2.581   3.439   4.600  0.8906  0.2627 -1.5439
 5485TIP3    H216462   2.436   3.454   4.557 -0.1323  0.4875  1.7114
 5486TIP3   OH216463   5.883   0.113   4.264 -0.4016 -0.1910  0.2436
 5486TIP3    H116464   5.912   0.101   4.174  1.2641  1.8445  0.4274
 5486TIP3    H216465   5.960   0.149   4.309 -2.0530  1.7407  1.7303
 5487TIP3   OH216466   1.958   5.100   0.157  0.5659  0.1352 -0.2263
 5487TIP3    H116467   1.947   5.087   0.251 -1.6972 -2.4235 -0.7049
 5487TIP3    H216468   2.040   5.054   0.136 -0.3072 -1.7274  0.1875
 5488TIP3   OH216469   2.585   2.447   2.180  0.3489  0.4927  0.0567
 5488TIP3    H116470   2.542   2.370   2.145 -0.8024  0.5863  1.1964
 5488TIP3    H216471   2.609   2.423   2.269  0.7900  1.1470  0.1236
 5489TIP3   OH216472   0.036   5.666   1.741 -1.1792  0.6148 -0.1653
 5489TIP3    H116473  -0.015   5.697   1.667  0.7482  1.7794 -1.0972
 5489TIP3    H216474   0.075   5.746   1.779 -0.2473 -0.1764  0.6130
 5490TIP3   OH216475   2.048   3.003   3.895  0.1897  0.0539 -0.5353
 5490TIP3    H116476   2.112   2.934   3.876 -0.5212 -0.5635 -0.7579
 5490TIP3    H216477   2.019   2.984   3.984 -0.7332 -0.5388 -0.9524
 5491TIP3   OH216478   0.709   5.655   3.222 -0.5374  0.0990 -0.3775
 5491TIP3    H116479   0.796   5.693   3.231 -0.7910  0.6818 -0.3662
 5491TIP3    H216480   0.709   5.615   3.135 -0.3759  0.4087 -0.5186
 5492TIP3   OH216481   0.498   4.618   4.865 -0.3017  0.4481 -0.0158
 5492TIP3    H116482   0.457   4.700   4.893 -1.8250 -0.3313  0.1358
 5492TIP3    H216483   0.457   4.551   4.920  0.5950 -0.4762 -0.4476
 5493TIP3   OH216484   6.209   3.076   3.946 -0.0164 -0.1553 -0.3295
 5493TIP3    H116485   6.136   3.080   4.007  1.4647 -1.2142  1.6083
 5493TIP3    H216486   6.261   3.001   3.974  2.3251  1.0931 -1.0276
 5494TIP3   OH216487   1.179   1.790   5.035 -0.0495  0.2486 -0.5983
 5494TIP3    H116488   1.150   1.738   4.960  0.6229  0.0458 -0.7249
 5494TIP3    H216489   1.221   1.726   5.093 -1.4884  0.2050  0.4697
 5495TIP3   OH216490   1.968   5.968   1.833  0.0948  0.3616 -0.5283
 5495TIP3    H116491   1.889   5.935   1.791  0.5541 -0.4810 -0.7612
 5495TIP3    H216492   2.037   5.908   1.804  0.6854  0.6552  0.2341
 5496TIP3   OH216493   1.429   2.673   0.649 -0.1666  0.3778  0.3599
 5496TIP3    H116494   1.371   2.667   0.725  0.9661  0.6715  1.2834
 5496TIP3    H216495   1.447   2.582   0.625 -1.8057  0.2779 -0.5934
 5497TIP3   OH216496   4.610   5.158   3.263  0.3208  0.0088  0.0712
 5497TIP3    H116497   4.627   5.064   3.256  0.5525 -0.0238  0.9315
 5497TIP3    H216498   4.652   5.196   3.186  0.6211 -0.5400 -0.0403
 5498TIP3   OH216499   1.308   4.106   4.787 -0.0285  0.4553  0.1666
 5498TIP3    H116500   1.359   4.166   4.841 -0.3844 -0.5070  1.6279
 5498TIP3    H216501   1.364   4.028   4.779 -1.0072 -0.3862  1.3064
 5499TIP3   OH216502   2.578   3.423   3.448 -0.1077  0.3768  0.4293
 5499TIP3    H116503   2.602   3.472   3.369 -1.5644  2.1300  1.0113
 5499TIP3    H216504   2.619   3.471   3.520 -1.2607  0.5532  0.9862
 5500TIP3   OH216505   3.842   4.304   4.288 -0.2299 -0.8378  0.2055
 5500TIP3    H116506   3.851   4.295   4.383 -0.9196 -1.1996  0.2425
 5500TIP3    H216507   3.788   4.382   4.276  0.7571 -0.1503  0.0646
 5501TIP3   OH216508   1.078   2.072   1.748 -0.4164 -0.1382  0.1752
 5501TIP3    H116509   0.997   2.034   1.715  0.6092 -0.6939 -1.8432
 5501TIP3    H216510   1.116   2.118   1.673  0.9223  0.4819  1.1868
 5502TIP3   OH216511   2.325   1.225   1.124  0.0194 -0.0647 -0.0649
 5502TIP3    H116512   2.279   1.160   1.071  0.2967 -0.1325 -0.2264
 5502TIP3    H216513   2.317   1.194   1.214 -1.0018  0.3869  0.0093
 5503TIP3   OH216514   5.117   1.405   2.836 -0.1916 -0.1113 -0.7958
 5503TIP3    H116515   5.022   1.414   2.834 -0.1703  0.2301 -0.4954
 5503TIP3    H216516   5.136   1.369   2.923  0.0426  1.1679 -0.2777
 5504TIP3   OH216517   4.716   1.490   5.088 -0.0263 -0.1716  0.0524
 5504TIP3    H116518   4.633   1.462   5.126  0.8716  0.7611  2.9570
 5504TIP3    H216519   4.700   1.579   5.059 -0.7243 -0.8975 -1.9666
 5505TIP3   OH216520   4.296   1.383   1.760 -0.3866 -0.1176 -0.0881
 5505TIP3    H116521   4.229   1.451   1.761  0.5140  0.8035 -0.0047
 5505TIP3    H216522   4.324   1.375   1.851 -1.1569 -1.3131  0.0630
 5506TIP3   OH216523   3.030   4.889   2.195 -0.3465 -0.1167  0.0242
 5506TIP3    H116524   2.979   4.874   2.115 -0.1213  0.1939 -0.1818
 5506TIP3    H216525   2.972   4.937   2.253  0.2903  1.8626 -0.9042
 5507TIP3   OH216526   0.152   2.124   0.522 -0.2958  0.5622  0.3038
 5507TIP3    H116527   0.205   2.106   0.444 -0.6061  1.3142 -0.0900
 5507TIP3    H216528   0.077   2.066   0.514  0.3623 -0.3750  0.7689
 5508TIP3   OH216529   2.134   3.629   1.695  0.1249 -0.0970 -0.0385
 5508TIP3    H116530   2.205   3.568   1.677 -0.9581 -0.8784 -1.9380
 5508TIP3    H216531   2.103   3.656   1.609 -1.5303  0.6234  0.7395
 5509TIP3   OH216532   3.084   3.897   0.638  0.6071 -0.3276 -0.4598
 5509TIP3    H116533   3.096   3.950   0.717 -2.0328 -0.5124  0.1712
 5509TIP3    H216534   3.166   3.906   0.590  1.2140  2.1998  0.8843
 5510TIP3   OH216535   2.146   5.692   2.497 -0.1970 -0.0617  0.3557
 5510TIP3    H116536   2.236   5.716   2.520  0.1374  0.0489 -0.9673
 5510TIP3    H216537   2.112   5.648   2.575  0.9307  0.0805  0.9506
 5511TIP3   OH216538   1.531   0.913   0.801  0.4520 -0.0283 -0.2927
 5511TIP3    H116539   1.533   0.882   0.711  0.1779  0.3908 -0.4484
 5511TIP3    H216540   1.586   0.991   0.800  2.1314 -1.1573  0.3566
 5512TIP3   OH216541   1.151   2.766   4.352  0.0734  0.1774  0.4208
 5512TIP3    H116542   1.212   2.761   4.425  1.4321  1.3045 -0.5790
 5512TIP3    H216543   1.203   2.744   4.275 -1.2998 -0.8808 -0.2688
 5513TIP3   OH216544   4.258   5.469   3.632  0.1251 -0.2029 -0.3974
 5513TIP3    H116545   4.249   5.436   3.721 -3.2373 -1.4927 -1.0503
 5513TIP3    H216546   4.343   5.513   3.631  1.1502 -1.7724  2.8658
 5514TIP3   OH216547   3.379   3.386   4.608  0.3304 -0.2299 -0.4213
 5514TIP3    H116548   3.373   3.357   4.517  2.1008  1.8268 -1.2604
 5514TIP3    H216549   3.432   3.318   4.651  2.8244  0.6381 -1.9037
 5515TIP3   OH216550   3.666   0.332   2.399  0.0279 -0.5052  0.0892
 5515TIP3    H116551   3.636   0.241   2.408  1.4163 -0.9841  0.1414
 5515TIP3    H216552   3.750   0.334   2.446 -0.4100  1.0478  0.8777
 5516TIP3   OH216553   1.417   0.770   2.405 -0.4028  0.2811 -0.5475
 5516TIP3    H116554   1.512   0.762   2.397 -0.5010 -0.2266 -1.2660
 5516TIP3    H216555   1.384   0.680   2.397 -0.9778  0.5106 -0.8348
 5517TIP3   OH216556   2.119   1.627   0.673 -0.5260 -0.0147  0.3533
 5517TIP3    H116557   2.214   1.617   0.665 -0.4502 -1.2312  2.1623
 5517TIP3    H216558   2.083   1.543   0.642 -1.0990  0.7968 -1.2611
 5518TIP3   OH216559   1.523   0.624   4.576 -0.4028  0.1477  0.1017
 5518TIP3    H116560   1.536   0.617   4.670  0.6751  0.1931 -0.0306
 5518TIP3    H216561   1.478   0.543   4.551  1.1107 -0.8103  0.3642
 5519TIP3   OH216562   0.616   1.964   4.853 -0.0498 -0.2508 -0.4075
 5519TIP3    H116563   0.684   1.951   4.788 -0.3295  1.1030 -1.0084
 5519TIP3    H216564   0.641   2.045   4.899 -0.0405 -0.9875  0.9452
 5520TIP3   OH216565   4.262   4.900   4.480 -0.3856  0.0067  0.6271
 5520TIP3    H116566   4.197   4.929   4.417  0.9916  2.5795  0.2748
 5520TIP3    H216567   4.213   4.843   4.540 -1.7030 -2.7704 -2.7218
 5521TIP3   OH216568   6.040   5.473   3.396 -0.1043 -0.4968 -0.2444
 5521TIP3    H116569   6.023   5.413   3.469 -0.5846  0.2259  0.2538
 5521TIP3    H216570   6.135   5.471   3.385 -0.2001 -2.2857 -1.0641
 5522TIP3   OH216571   5.753   2.038   2.862  0.1417  0.2752 -0.0226
 5522TIP3    H116572   5.707   2.025   2.945 -1.3465  2.6901 -0.3641
 5522TIP3    H216573   5.763   1.951   2.826 -0.3433 -0.7224  2.0813
 5523TIP3   OH216574   1.726   5.401   4.459  0.1427 -0.0960  0.3934
 5523TIP3    H116575   1.804   5.429   4.506  1.9979 -0.3772 -2.2623
 5523TIP3    H216576   1.685   5.337   4.517  0.0967  2.2337  3.1816
 5524TIP3   OH216577   5.884   4.062   4.332  0.3238  0.2162 -0.1391
 5524TIP3    H116578   5.789   4.058   4.341  0.4576 -0.8625  1.1495
 5524TIP3    H216579   5.898   4.102   4.246 -1.2571  2.8655  0.6909
 5525TIP3   OH216580   3.082   0.509   0.303  0.2951 -0.1374 -0.2092
 5525TIP3    H116581   3.066   0.422   0.339  1.8436 -0.2207  0.3475
 5525TIP3    H216582   3.123   0.557   0.374 -1.2927  1.3501 -0.2287
 5526TIP3   OH216583   5.550   1.165   2.041 -0.3409  0.1394 -0.3855
 5526TIP3    H116584   5.552   1.239   2.101 -1.3364 -0.6281  0.6461
 5526TIP3    H216585   5.641   1.151   2.016 -0.1539  1.7804 -0.7343
 5527TIP3   OH216586   2.430   2.678   1.384 -0.5285 -0.3979  0.1546
 5527TIP3    H116587   2.355   2.736   1.370  1.0877  1.9886  0.7811
 5527TIP3    H216588   2.463   2.702   1.471  0.1869 -2.3626  0.4787
 5528TIP3   OH216589   5.532   5.312   1.975 -0.7116 -0.3383  0.0617
 5528TIP3    H116590   5.445   5.348   1.957 -0.7242  0.1358  0.9755
 5528TIP3    H216591   5.544   5.243   1.910 -0.6268  1.4151 -1.8923
 5529TIP3   OH216592   2.932   5.895   3.388 -0.3125 -0.1285  0.0646
 5529TIP3    H116593   2.880   5.963   3.346 -0.6136 -0.1129  0.4616
 5529TIP3    H216594   2.963   5.841   3.315 -0.7969 -0.0830 -0.1814
 5530TIP3   OH216595   3.130   5.237   3.841 -0.7508  0.2770  0.3673
 5530TIP3    H116596   3.105   5.318   3.886  1.0466  1.0569  0.0537
 5530TIP3    H216597   3.156   5.178   3.911 -0.7722  0.4400  0.5146
 5531TIP3   OH216598   5.313   1.432   0.450 -0.2051  0.0558  0.0604
 5531TIP3    H116599   5.380   1.499   0.437 -0.0549 -0.3766 -1.6176
 5531TIP3    H216600   5.285   1.409   0.362 -2.5566  0.1966  0.7090
 5532TIP3   OH216601   2.899   1.987   1.522 -0.3684  0.4319  0.3303
 5532TIP3    H116602   2.963   1.926   1.558 -0.1303  0.5372  0.0920
 5532TIP3    H216603   2.908   1.978   1.427 -0.3387  0.8275  0.2938
 5533TIP3   OH216604   3.994   3.411   0.981  0.2987 -0.3429  0.5118
 5533TIP3    H116605   4.041   3.332   0.953  0.7808  0.0619  0.1600
 5533TIP3    H216606   3.976   3.458   0.900 -0.9588 -0.6158  0.6143
 5534TIP3   OH216607   3.085   0.900   0.480 -0.0922  0.2822 -0.2848
 5534TIP3    H116608   3.110   0.922   0.390  0.6375 -0.1826 -0.2016
 5534TIP3    H216609   2.997   0.937   0.490  0.5187  1.9037 -0.6092
 5535TIP3   OH216610   3.911   4.210   1.561  0.2243 -0.3762  0.0767
 5535TIP3    H116611   3.850   4.189   1.491  0.4136 -0.3356 -0.1001
 5535TIP3    H216612   3.957   4.128   1.579 -0.5804 -0.6651  0.8996
 5536TIP3   OH216613   0.288   5.497   0.155  0.2407 -0.3506 -0.4640
 5536TIP3    H116614   0.362   5.522   0.210 -1.1347 -1.1018  1.8715
 5536TIP3    H216615   0.286   5.563   0.086  1.1592  1.5858  1.2449
 5537TIP3   OH216616   3.606   1.986   2.284  1.0177 -0.0255 -0.1534
 5537TIP3    H116617   3.640   2.059   2.231 -0.0778  2.0606  1.8481
 5537TIP3    H216618   3.678   1.964   2.343  0.7093  0.8134  0.5558
 5538TIP3   OH216619   1.727   5.639   3.877  0.7046  0.3547 -0.6566
 5538TIP3    H116620   1.730   5.735   3.878  1.3722  0.3376 -0.6417
 5538TIP3    H216621   1.812   5.613   3.841  0.8399 -0.2458  0.0642
 5539TIP3   OH216622   5.454   3.787   0.481  0.0048  0.3984 -0.1930
 5539TIP3    H116623   5.376   3.829   0.444  0.9511  1.5495 -0.9839
 5539TIP3    H216624   5.437   3.783   0.575 -0.5243  1.7306 -0.2027
 5540TIP3   OH216625   4.126   2.433   2.289 -0.7900  0.1139  1.1270
 5540TIP3    H116626   4.199   2.370   2.281 -0.0098  1.0444  0.7602
 5540TIP3    H216627   4.106   2.458   2.199 -2.7399 -1.4016  1.0702
 5541TIP3   OH216628   3.865   0.390   4.815  0.3549 -0.3550  0.4493
 5541TIP3    H116629   3.782   0.409   4.772 -0.1444 -1.1543  1.0247
 5541TIP3    H216630   3.922   0.463   4.792 -0.2091 -0.2685 -0.7317
 5542TIP3   OH216631   1.127   4.712   5.068  0.1078  0.0169 -0.4613
 5542TIP3    H116632   1.040   4.733   5.034 -0.3755 -2.6009 -1.0573
 5542TIP3    H216633   1.186   4.730   4.995 -0.2964 -0.7784 -0.9957
 5543TIP3   OH216634   4.347   3.919   1.762  0.2824  0.0413  0.1642
 5543TIP3    H116635   4.340   4.014   1.773  1.2659  0.2798 -1.0717
 5543TIP3    H216636   4.424   3.907   1.706 -0.2137 -1.4599 -0.2264
 5544TIP3   OH216637   1.635   5.777   0.066 -0.0938 -0.3085  0.2207
 5544TIP3    H116638   1.687   5.842   0.114 -0.4971 -0.3569  0.7418
 5544TIP3    H216639   1.567   5.752   0.129  0.8001 -2.1836  0.4916
 5545TIP3   OH216640   3.640   3.681   4.670 -0.2724  0.1932 -0.2737
 5545TIP3    H116641   3.624   3.605   4.614  0.8412 -0.2185 -0.0444
 5545TIP3    H216642   3.682   3.745   4.613  2.0419 -0.7002  0.3431
 5546TIP3   OH216643   0.212   0.549   5.120 -0.7099 -0.1188 -0.1948
 5546TIP3    H116644   0.248   0.506   5.043 -1.2891 -0.0790 -0.4963
 5546TIP3    H216645   0.118   0.558   5.101 -0.9301 -0.4498  0.6742
 5547TIP3   OH216646   1.558   3.858   3.586 -0.0978  0.2128 -0.1558
 5547TIP3    H116647   1.471   3.821   3.604 -0.2218  0.1031 -0.9584
 5547TIP3    H216648   1.572   3.843   3.492  0.7456  0.3281 -0.0544
 5548TIP3   OH216649   2.664   0.279   2.182  0.0110 -0.0984  0.7580
 5548TIP3    H116650   2.671   0.202   2.125  2.1223  0.6361 -0.0821
 5548TIP3    H216651   2.609   0.340   2.133  0.4679 -0.1073  0.2148
 5549TIP3   OH216652   2.629   4.917   1.720 -0.0256 -0.0937 -0.7979
 5549TIP3    H116653   2.680   4.956   1.649 -1.2439  3.3841 -0.0060
 5549TIP3    H216654   2.683   4.929   1.798 -0.5569  0.3843 -0.4904
 5550TIP3   OH216655   2.232   0.951   1.947  0.3128  0.3265  0.4940
 5550TIP3    H116656   2.156   0.932   1.893  0.8244  1.3879 -0.6523
 5550TIP3    H216657   2.270   1.030   1.908  0.6864  1.1644  2.4449
 5551TIP3   OH216658   0.723   0.213   4.756 -0.4221 -0.1960  0.2557
 5551TIP3    H116659   0.762   0.152   4.818 -1.6590  0.7265  2.0338
 5551TIP3    H216660   0.662   0.160   4.705  0.4394 -0.9253 -0.0446
 5552TIP3   OH216661   1.195   0.115   2.598  0.4897  0.0257  0.1748
 5552TIP3    H116662   1.213   0.054   2.669  0.8812 -0.6070 -0.4604
 5552TIP3    H216663   1.242   0.080   2.523  0.4544  0.9292 -0.2915
 5553TIP3   OH216664   5.630   3.131   0.663  0.7893 -0.4067  0.2202
 5553TIP3    H116665   5.679   3.204   0.626 -0.1911 -0.0000 -0.3107
 5553TIP3    H216666   5.570   3.171   0.726  0.9601 -0.8695  0.6908
 5554TIP3   OH216667   6.099   0.857   0.659  0.2701 -0.1495  0.0597
 5554TIP3    H116668   6.108   0.918   0.732 -0.2845  1.8621 -1.4777
 5554TIP3    H216669   6.137   0.775   0.692  2.6376  1.4388  1.6559
 5555TIP3   OH216670   3.434   2.724   2.222 -0.2899  0.4976 -0.1514
 5555TIP3    H116671   3.439   2.664   2.296  1.4447 -0.2150 -0.7918
 5555TIP3    H216672   3.383   2.677   2.156  0.3615  0.0467 -0.3438
 5556TIP3   OH216673   5.034   4.299   2.560 -0.5237  0.0895 -0.4072
 5556TIP3    H116674   5.088   4.277   2.485 -1.5485  1.1197 -1.5000
 5556TIP3    H216675   5.036   4.395   2.563  1.5768  0.0943  2.4818
 5557TIP3   OH216676   2.413   1.870   0.727  0.2678 -0.1143 -0.1950
 5557TIP3    H116677   2.346   1.902   0.667 -0.2619 -0.1116  0.3806
 5557TIP3    H216678   2.407   1.929   0.802  2.0779  0.9509 -0.8286
 5558TIP3   OH216679   2.642   5.815   3.527  0.5061  0.3311 -0.0466
 5558TIP3    H116680   2.645   5.858   3.442 -1.2799  0.9110  0.1462
 5558TIP3    H216681   2.648   5.887   3.590  0.7207  0.0026  0.3119
 5559TIP3   OH216682   2.401   1.997   4.914 -0.3068 -0.8144 -0.1699
 5559TIP3    H116683   2.328   1.941   4.942 -0.3307 -0.3055  0.8679
 5559TIP3    H216684   2.400   1.993   4.819 -2.2581 -0.1550 -0.2314
 5560TIP3   OH216685   3.237   3.759   1.458  0.5063  0.3809 -0.5272
 5560TIP3    H116686   3.161   3.753   1.399  0.2191  0.5262 -0.1758
 5560TIP3    H216687   3.280   3.674   1.450  0.7368  0.5697 -1.3033
 5561TIP3   OH216688   2.436   5.925   1.359 -0.2442 -0.1599  0.0272
 5561TIP3    H116689   2.482   5.954   1.280  0.6200 -0.4511  0.4082
 5561TIP3    H216690   2.378   5.856   1.328  0.4575 -0.6283 -0.2858
 5562TIP3   OH216691   3.942   0.442   0.815 -0.6547  0.1089 -0.0223
 5562TIP3    H116692   3.975   0.353   0.825 -2.8691 -0.9283 -1.2117
 5562TIP3    H216693   3.987   0.477   0.739 -0.7418 -0.5042 -0.3593
 5563TIP3   OH216694   4.438   1.541   4.181  0.0284  0.4203  0.3648
 5563TIP3    H116695   4.381   1.479   4.136 -2.2282  2.6550 -0.1178
 5563TIP3    H216696   4.513   1.552   4.121 -1.4087  0.9841 -1.4326
 5564TIP3   OH216697   2.900   5.826   4.986 -0.2067 -0.5297 -0.2695
 5564TIP3    H116698   2.834   5.758   5.001 -0.9782  0.2536  0.0110
 5564TIP3    H216699   2.896   5.880   5.065  0.2375 -0.0315 -0.5831
 5565TIP3   OH216700   0.371   5.211   1.018 -0.0272  0.2503 -0.5164
 5565TIP3    H116701   0.465   5.230   1.022  0.2654 -0.9557 -1.0765
 5565TIP3    H216702   0.329   5.297   1.018  1.0075  0.8051  0.8791
 5566TIP3   OH216703   4.331   0.688   0.807  0.3916  0.2656  0.2629
 5566TIP3    H116704   4.332   0.752   0.736 -0.4603 -0.6922 -0.6523
 5566TIP3    H216705   4.343   0.604   0.763 -1.7865 -0.5137  1.0446
 5567TIP3   OH216706   0.815   3.940   3.709 -0.1260  0.2646 -0.0883
 5567TIP3    H116707   0.895   3.920   3.758  0.5563  0.3822 -1.1163
 5567TIP3    H216708   0.823   3.887   3.629 -1.3854 -0.2075  0.0749
 5568TIP3   OH216709   5.861   5.198   4.240 -0.1173 -0.0933 -0.2334
 5568TIP3    H116710   5.788   5.184   4.301  0.1633  0.0785  0.1444
 5568TIP3    H216711   5.917   5.122   4.251  0.9321  0.8288  1.1491
 5569TIP3   OH216712   3.870   4.747   0.234 -0.0037  0.0503 -0.7495
 5569TIP3    H116713   3.892   4.686   0.304 -1.1433 -0.1072 -0.5137
 5569TIP3    H216714   3.906   4.708   0.155  0.7928 -0.0541 -0.3437
 5570TIP3   OH216715   0.367   5.719   4.736  0.4496  0.3163  0.4123
 5570TIP3    H116716   0.316   5.800   4.736 -1.0480 -0.5157 -2.0081
 5570TIP3    H216717   0.312   5.657   4.688  0.8987 -2.6214  3.3701
 5571TIP3   OH216718   0.922   3.992   3.160 -0.9040  0.1796 -0.0203
 5571TIP3    H116719   1.012   4.008   3.131 -1.0260 -0.1588 -0.5954
 5571TIP3    H216720   0.868   4.030   3.091 -1.1990 -0.5239 -0.1839
 5572TIP3   OH216721  -0.017   5.505   3.388 -0.0978  0.3067  0.2246
 5572TIP3    H116722  -0.028   5.588   3.343  2.6598 -0.5148 -2.3104
 5572TIP3    H216723   0.072   5.507   3.422 -0.0210 -1.5256  0.2686
 5573TIP3   OH216724   4.422   4.147   1.297  0.0981 -0.4860  0.3590
 5573TIP3    H116725   4.374   4.162   1.379  1.5325  0.4233  1.0607
 5573TIP3    H216726   4.494   4.210   1.299 -0.6106  0.5200 -2.2597
 5574TIP3   OH216727   6.029   5.763   3.369 -0.2594 -0.0581 -0.0063
 5574TIP3    H116728   6.023   5.673   3.337 -1.9849 -0.4047  1.2041
 5574TIP3    H216729   5.961   5.771   3.435  1.0360  1.6152  1.2475
 5575TIP3   OH216730   0.218   0.887   3.702 -0.5281  0.7192 -0.3562
 5575TIP3    H116731   0.268   0.939   3.765  0.6610  1.9744 -2.2408
 5575TIP3    H216732   0.267   0.805   3.694 -0.5536  0.6512  0.1407
 5576TIP3   OH216733   0.612   1.045   0.710  0.4130 -0.0176  0.4004
 5576TIP3    H116734   0.584   0.955   0.694  4.8532 -1.7757  1.0294
 5576TIP3    H216735   0.641   1.077   0.625 -1.6128  1.1064  0.0807
 5577TIP3   OH216736   5.498   4.381   4.607  0.0251 -0.1445  1.2545
 5577TIP3    H116737   5.456   4.429   4.536  2.2104  0.9516  0.5989
 5577TIP3    H216738   5.458   4.417   4.687  0.0293  1.1944  0.6930
 5578TIP3   OH216739   0.836   1.462   2.287 -0.1154 -0.2611 -0.1590
 5578TIP3    H116740   0.742   1.480   2.290  0.2085  1.7266 -0.5683
 5578TIP3    H216741   0.877   1.548   2.284  1.7777 -1.0624  0.9137
 5579TIP3   OH216742   4.509   3.797   2.953  0.4394  0.7106 -0.2269
 5579TIP3    H116743   4.589   3.834   2.917  0.2528  1.1041 -0.2423
 5579TIP3    H216744   4.488   3.725   2.894  0.7632  0.6278 -0.2420
 5580TIP3   OH216745   2.506   3.864   2.578  0.1017  0.4268  0.1475
 5580TIP3    H116746   2.483   3.784   2.533 -0.0316 -0.0365  1.0138
 5580TIP3    H216747   2.595   3.849   2.612 -0.5252 -0.0122  1.6993
 5581TIP3   OH216748   4.434   1.569   3.534  0.0633  0.3661  0.3721
 5581TIP3    H116749   4.441   1.590   3.627 -0.5497 -1.6001  0.9138
 5581TIP3    H216750   4.372   1.633   3.499 -0.4871  0.4989  1.5605
 5582TIP3   OH216751   4.640   0.403   3.455  0.0264 -0.0978 -0.9361
 5582TIP3    H116752   4.730   0.372   3.454  0.5744  1.4497 -1.5011
 5582TIP3    H216753   4.627   0.444   3.369 -0.6077  1.3293 -0.1896
 5583TIP3   OH216754   4.154   3.308   0.549 -0.3604 -0.5699  0.7026
 5583TIP3    H116755   4.126   3.217   0.553 -2.7288  0.1345  2.6038
 5583TIP3    H216756   4.078   3.356   0.516  1.3923  0.6187 -1.9831
 5584TIP3   OH216757   2.789   0.124   1.801  0.3313 -0.6734  0.1586
 5584TIP3    H116758   2.768   0.031   1.788  1.5251 -1.0047  0.4452
 5584TIP3    H216759   2.827   0.128   1.889 -0.6211  0.2597  0.5366
 5585TIP3   OH216760   1.502   3.736   4.469 -0.0907 -0.2279  0.1463
 5585TIP3    H116761   1.440   3.708   4.401  0.1446  0.2457 -0.2729
 5585TIP3    H216762   1.560   3.661   4.481 -1.1113 -0.8973  0.9804
 5586TIP3   OH216763   1.762   0.194   3.668 -0.2008 -0.3197 -0.5747
 5586TIP3    H116764   1.793   0.136   3.598 -2.8866 -1.9692 -0.5470
 5586TIP3    H216765   1.671   0.213   3.645 -0.1917  1.7752  0.8440
 5587TIP3   OH216766   4.615   1.010   2.303 -0.4345 -0.3434  0.2913
 5587TIP3    H116767   4.547   1.040   2.364 -1.0695 -1.5745  0.2097
 5587TIP3    H216768   4.568   0.960   2.236  0.4728 -0.6292 -0.1528
 5588TIP3   OH216769   2.157   4.716   4.357 -0.0964  0.0392 -0.2052
 5588TIP3    H116770   2.089   4.746   4.418 -0.0446  0.3233 -0.2874
 5588TIP3    H216771   2.111   4.660   4.295 -0.2797  0.3341 -0.3368
 5589TIP3   OH216772   4.200   2.177   3.599  0.2462  0.3536  0.2019
 5589TIP3    H116773   4.115   2.138   3.619 -0.2505  1.8484  1.2185
 5589TIP3    H216774   4.259   2.103   3.589 -0.9044 -0.6810  0.7998
 5590TIP3   OH216775   5.810   3.160   3.322 -0.5336 -0.2400 -0.0411
 5590TIP3    H116776   5.818   3.254   3.337  2.5155 -0.6487  1.6071
 5590TIP3    H216777   5.867   3.143   3.247 -0.3334 -0.8840  0.2511
 5591TIP3   OH216778   2.364   1.621   2.390 -0.5838  0.2655  0.0910
 5591TIP3    H116779   2.275   1.617   2.354  0.5463  0.7810 -3.0421
 5591TIP3    H216780   2.378   1.714   2.409 -0.4702  0.2976 -0.1432
 5592TIP3   OH216781   1.234   5.735   4.549  0.0628 -0.3826  0.4887
 5592TIP3    H116782   1.303   5.776   4.601  0.1649  0.6882 -0.4701
 5592TIP3    H216783   1.268   5.733   4.460 -0.2836 -1.8153  0.3610
 5593TIP3   OH216784   4.691   3.041   4.068  0.2140  0.1077  0.1642
 5593TIP3    H116785   4.650   2.955   4.059  1.1399 -0.2909 -0.3293
 5593TIP3    H216786   4.698   3.055   4.162 -1.4203  0.3696  0.2716
 5594TIP3   OH216787   1.839   2.971   0.242  0.7923 -0.3533  0.1799
 5594TIP3    H116788   1.889   3.049   0.219 -0.1428 -0.1113 -1.1383
 5594TIP3    H216789   1.769   2.968   0.177  0.1700 -1.6834  0.8880
 5595TIP3   OH216790   6.285   5.291   2.036 -0.2499  0.0981  0.9161
 5595TIP3    H116791   6.242   5.240   2.104  0.0642 -1.9504 -0.3087
 5595TIP3    H216792   6.368   5.245   2.021  0.1819  1.1489 -0.0691
 5596TIP3   OH216793   2.027   5.004   2.567 -0.7518 -0.1357  0.0579
 5596TIP3    H116794   1.987   5.069   2.510 -1.0500 -1.3837 -1.2004
 5596TIP3    H216795   1.971   4.927   2.560  1.1661 -1.5259 -0.8304
 5597TIP3   OH216796   0.129   3.046   2.411  0.3322  0.1812  0.2590
 5597TIP3    H116797   0.195   2.979   2.428  0.7817  0.7124  0.6362
 5597TIP3    H216798   0.145   3.074   2.321  0.1974 -0.1491  0.1289
 5598TIP3   OH216799   3.883   3.474   4.819  0.6266  0.1040 -0.5980
 5598TIP3    H116800   3.931   3.391   4.815  0.9544  0.2778 -0.3967
 5598TIP3    H216801   3.952   3.541   4.822  0.4037  0.3179  0.6516
 5599TIP3   OH216802   0.077   0.275   5.130  0.2115  0.4291 -0.1838
 5599TIP3    H116803   0.170   0.296   5.139 -0.2325  2.0901  0.8615
 5599TIP3    H216804   0.062   0.277   5.035  0.8732  1.9338 -0.2867
 5600TIP3   OH216805   2.061   5.598   4.334  0.2465 -0.3992  0.1082
 5600TIP3    H116806   2.156   5.603   4.337  0.3919 -0.7245 -1.9497
 5600TIP3    H216807   2.042   5.506   4.316 -0.5194 -0.5267  1.4952
 5601TIP3   OH216808   1.973   4.668   2.026  0.1126 -0.3091  0.3311
 5601TIP3    H116809   1.877   4.670   2.032  0.1414  1.6346  0.8710
 5601TIP3    H216810   2.002   4.656   2.116  0.4182 -2.0346  0.0436
 5602TIP3   OH216811   1.050   1.651   1.075  0.2011 -0.3361  0.1518
 5602TIP3    H116812   1.104   1.587   1.122  0.7662  0.4763  0.6338
 5602TIP3    H216813   1.111   1.692   1.013  0.1261  0.5558  0.6619
 5603TIP3   OH216814   1.586   5.332   3.552 -0.3090 -0.6360  0.3176
 5603TIP3    H116815   1.539   5.408   3.588  0.6164  0.4730 -0.6943
 5603TIP3    H216816   1.674   5.365   3.535 -0.6269 -1.0433 -2.7852
 5604TIP3   OH216817   5.581   3.013   4.650  0.2920 -0.3141  0.4714
 5604TIP3    H116818   5.560   3.070   4.724  0.5548 -0.3121  0.5462
 5604TIP3    H216819   5.675   2.996   4.659  0.2269 -0.7120  0.4189
 5605TIP3   OH216820   1.093   3.042   2.668 -0.1074  0.0211  0.1061
 5605TIP3    H116821   1.134   2.956   2.676  1.5048  0.7979  0.4738
 5605TIP3    H216822   1.054   3.058   2.754 -0.5274 -0.3902 -0.0040
 5606TIP3   OH216823   3.592   2.235   3.963  0.7513  0.4080 -0.2513
 5606TIP3    H116824   3.609   2.142   3.978 -0.0945  0.2311 -0.3367
 5606TIP3    H216825   3.677   2.272   3.940  1.1488 -0.2844  0.0770
 5607TIP3   OH216826   4.517   1.447   4.431 -0.3418 -0.0222 -0.2259
 5607TIP3    H116827   4.440   1.477   4.480  0.4956  1.4107  0.2828
 5607TIP3    H216828   4.504   1.479   4.342 -0.6852 -0.4425 -0.3285
 5608TIP3   OH216829   4.834   5.605   3.468 -0.6355 -0.3373 -0.5141
 5608TIP3    H116830   4.847   5.642   3.555 -0.1979  0.7144 -1.0104
 5608TIP3    H216831   4.922   5.580   3.440 -0.5306  0.9074 -1.3328
 5609TIP3   OH216832   6.002   3.790   2.166  0.2596 -0.3633 -0.7070
 5609TIP3    H116833   6.069   3.787   2.098 -0.3044 -1.9392 -1.2278
 5609TIP3    H216834   5.954   3.708   2.157 -2.4891  1.1715 -1.0811
 5610TIP3   OH216835   1.879   3.247   0.304 -0.1235  0.7325 -0.3006
 5610TIP3    H116836   1.794   3.275   0.338  0.1883  1.8444 -0.3996
 5610TIP3    H216837   1.940   3.262   0.377 -0.0690 -0.4390 -0.0930
 5611TIP3   OH216838   4.738   3.389   1.574  0.0970  0.1361 -0.4509
 5611TIP3    H116839   4.653   3.382   1.617 -0.4884  1.4131 -1.3428
 5611TIP3    H216840   4.793   3.435   1.638 -0.0451 -0.2110 -0.0802
 5612TIP3   OH216841   0.827   3.648   1.680  0.1643 -0.0228 -0.3165
 5612TIP3    H116842   0.888   3.716   1.709  1.1039 -0.5033 -1.1135
 5612TIP3    H216843   0.769   3.692   1.618  0.2264  0.2442 -0.1883
 5613TIP3   OH216844   6.018   0.815   5.018  0.5717 -0.8485  0.2518
 5613TIP3    H116845   6.075   0.862   5.079 -0.5976 -0.0253  0.7701
 5613TIP3    H216846   6.016   0.725   5.050  0.5563 -0.5863  1.0077
 5614TIP3   OH216847   3.548   1.618   1.040  0.2249 -0.0833  0.0639
 5614TIP3    H116848   3.510   1.706   1.040  2.3722  1.1184 -4.1834
 5614TIP3    H216849   3.621   1.623   1.102 -0.0255  0.9379  0.2990
 5615TIP3   OH216850   2.654   3.276   0.416  0.2469  0.4727  0.2355
 5615TIP3    H116851   2.619   3.198   0.374  0.8455 -0.5413  1.5409
 5615TIP3    H216852   2.694   3.326   0.345 -1.1261  0.1674 -0.7916
 5616TIP3   OH216853   2.724   0.606   2.684 -0.7544  0.0166 -0.0462
 5616TIP3    H116854   2.658   0.550   2.643 -1.4478  1.4024 -0.8993
 5616TIP3    H216855   2.682   0.637   2.764 -1.4087  1.3226 -0.8500
 5617TIP3   OH216856   0.737   2.839   2.669 -0.3976 -0.2720 -0.0497
 5617TIP3    H116857   0.672   2.897   2.631 -0.1645  0.7111  0.9947
 5617TIP3    H216858   0.702   2.817   2.756  0.3247 -0.2778  0.2527
 5618TIP3   OH216859   5.352   4.500   2.872 -0.2613 -0.1992 -0.8434
 5618TIP3    H116860   5.332   4.594   2.876  2.5171  0.5163 -1.4679
 5618TIP3    H216861   5.310   4.463   2.949  0.6329  2.0419  0.8466
 5619TIP3   OH216862   4.811   4.626   2.862 -0.2623 -0.1638 -1.2027
 5619TIP3    H116863   4.850   4.538   2.864 -0.3819 -0.2290 -1.6150
 5619TIP3    H216864   4.731   4.616   2.810 -0.9809 -0.0866 -0.1460
 5620TIP3   OH216865   2.185   3.373   3.608  0.1181 -0.3217 -0.6606
 5620TIP3    H116866   2.125   3.351   3.679 -0.5860  1.0487 -0.7859
 5620TIP3    H216867   2.263   3.322   3.626 -1.0166 -2.0442 -0.4015
 5621TIP3   OH216868   4.778   1.788   1.514  0.4265  0.2643  0.1693
 5621TIP3    H116869   4.692   1.758   1.485  0.1496  1.5598 -0.4082
 5621TIP3    H216870   4.840   1.728   1.473 -0.1127  0.3995 -0.8671
 5622TIP3   OH216871   1.291   0.541   3.494  0.2251 -0.3675 -0.2345
 5622TIP3    H116872   1.277   0.612   3.431  0.0472 -0.6894 -0.5590
 5622TIP3    H216873   1.356   0.576   3.555 -1.9294  1.2243  1.3503
 5623TIP3   OH216874   1.277   3.886   3.348 -0.0049  0.0754  0.1983
 5623TIP3    H116875   1.330   3.818   3.388  0.8946  0.3356 -0.5306
 5623TIP3    H216876   1.209   3.839   3.300  0.8653 -0.3266 -0.6552
 5624TIP3   OH216877   2.065   1.189   2.207 -0.1701 -0.5857  0.1042
 5624TIP3    H116878   2.013   1.267   2.224  2.4624  1.2884  0.1306
 5624TIP3    H216879   2.038   1.160   2.120  2.1870  3.4176 -2.2113
 5625TIP3   OH216880   5.431   5.643   2.421 -0.1372 -0.7362 -0.1626
 5625TIP3    H116881   5.386   5.602   2.495 -0.3205 -0.7441 -0.2752
 5625TIP3    H216882   5.361   5.658   2.357  0.0288 -0.7778 -0.3542
 5626TIP3   OH216883   1.984   0.952   1.263  0.0506  1.1801  0.2913
 5626TIP3    H116884   1.922   1.012   1.221 -0.6613  0.4605  0.3015
 5626TIP3    H216885   1.996   0.881   1.199 -3.6302 -1.7136  2.4099
 5627TIP3   OH216886   0.182   2.517   4.036 -0.5004 -1.1053 -0.0976
 5627TIP3    H116887   0.274   2.491   4.046 -0.5588 -1.2600  0.0463
 5627TIP3    H216888   0.186   2.611   4.019 -0.2854 -1.2185 -0.7004
 5628TIP3   OH216889   2.799   4.808   3.129  0.1774 -0.3281 -0.0536
 5628TIP3    H116890   2.727   4.845   3.078  0.0274 -1.9707 -1.1142
 5628TIP3    H216891   2.765   4.802   3.218  0.0662  1.6137  0.0565
 5629TIP3   OH216892   0.959   0.744   4.413  0.2880  0.1189 -0.7196
 5629TIP3    H116893   0.943   0.838   4.411  0.1211  0.1429  0.5243
 5629TIP3    H216894   1.035   0.734   4.470  0.9417 -0.4355 -1.6739
 5630TIP3   OH216895   2.812   0.234   3.049  0.1412 -0.3893  0.1545
 5630TIP3    H116896   2.859   0.272   3.123 -0.1907 -1.8076  1.1431
 5630TIP3    H216897   2.822   0.298   2.979  1.2038  0.6008  1.1577
 5631TIP3   OH216898   6.040   0.788   1.999 -0.2468  0.0777  0.0760
 5631TIP3    H116899   6.120   0.826   2.034  0.1642  0.2390 -1.0100
 5631TIP3    H216900   5.969   0.840   2.037  0.2763  1.5764 -0.9359
 5632TIP3   OH216901   5.525   1.591   0.076 -0.3208  0.0436  0.2099
 5632TIP3    H116902   5.582   1.667   0.075 -0.7879  0.4219  1.1811
 5632TIP3    H216903   5.448   1.618   0.026 -0.1941 -0.0383 -0.0334
 5633TIP3   OH216904   4.639   3.457   0.427 -0.0241 -0.0891 -0.3296
 5633TIP3    H116905   4.564   3.419   0.381  0.0304  0.8054 -1.1891
 5633TIP3    H216906   4.665   3.390   0.490 -1.0288 -0.7445 -0.5920
 5634TIP3   OH216907   6.140   0.008   3.223 -0.3885  0.6161 -0.1217
 5634TIP3    H116908   6.122   0.101   3.216 -1.9160  0.2496 -1.6820
 5634TIP3    H216909   6.083  -0.022   3.294  0.7319  0.9824  0.9648
 5635TIP3   OH216910   5.211   3.482   1.359 -0.1184  0.0101  0.3949
 5635TIP3    H116911   5.195   3.439   1.275  0.2443  1.1536 -0.2876
 5635TIP3    H216912   5.129   3.472   1.407 -0.6914  0.2377 -0.5128
 5636TIP3   OH216913   4.759   3.469   2.031 -0.3862  0.3693 -0.0003
 5636TIP3    H116914   4.700   3.529   2.076  0.9010  1.7079 -0.0098
 5636TIP3    H216915   4.818   3.527   1.981  1.5945 -0.8213  0.8340
 5637TIP3   OH216916   3.160   2.893   1.325  0.0132 -0.5827  0.0947
 5637TIP3    H116917   3.192   2.980   1.350 -0.0704 -0.0312 -1.5396
 5637TIP3    H216918   3.087   2.876   1.383 -1.0869  1.2481 -0.6685
 5638TIP3   OH216919   1.913   1.792   0.537  0.3780 -0.3940 -0.4466
 5638TIP3    H116920   1.974   1.820   0.469  0.8416  0.4043  0.2774
 5638TIP3    H216921   1.931   1.699   0.549  0.4227 -0.4953 -1.2742
 5639TIP3   OH216922   5.120   5.713   3.001  0.5930 -0.0636 -0.0192
 5639TIP3    H116923   5.145   5.780   2.937  1.6844 -0.2661  0.1653
 5639TIP3    H216924   5.186   5.721   3.071 -1.0087  0.6642  1.4758
 5640TIP3   OH216925   3.118   2.504   2.063 -0.7343  0.2913  0.4246
 5640TIP3    H116926   3.196   2.555   2.038  0.0800 -0.7865  0.7026
 5640TIP3    H216927   3.067   2.498   1.982 -0.7571  1.3803  0.3411
 5641TIP3   OH216928   5.228   5.232   3.208  0.7552 -0.7071 -0.4828
 5641TIP3    H116929   5.183   5.231   3.124  1.7839 -0.4680 -1.0546
 5641TIP3    H216930   5.319   5.255   3.186  1.3981 -2.1600  0.5054
 5642TIP3   OH216931   1.307   4.883   3.568 -0.2105 -0.2055  0.0878
 5642TIP3    H116932   1.383   4.834   3.535 -1.3126 -1.5150 -0.6426
 5642TIP3    H216933   1.310   4.869   3.663 -0.0217 -1.0119 -0.0218
 5643TIP3   OH216934   2.123   0.853   4.774 -0.6560  0.8874 -0.2695
 5643TIP3    H116935   2.065   0.796   4.724 -1.3916  1.2479  0.1552
 5643TIP3    H216936   2.194   0.875   4.714 -0.3800 -0.4235 -0.4576
 5644TIP3   OH216937   1.505   4.050   1.737  0.1546 -0.3487  0.1064
 5644TIP3    H116938   1.441   4.113   1.769 -0.0430  1.0542 -2.7351
 5644TIP3    H216939   1.545   4.014   1.816 -2.0577  0.8715  1.9022
 5645TIP3   OH216940   2.602   1.485   2.215  0.4233 -0.1056  0.3598
 5645TIP3    H116941   2.533   1.529   2.265  0.7104  1.0068 -0.1921
 5645TIP3    H216942   2.641   1.424   2.277 -0.6786 -0.3497  0.8462
 5646TIP3   OH216943   0.835   3.247   0.191 -0.0219 -0.4022 -0.2742
 5646TIP3    H116944   0.828   3.307   0.116 -0.8021  0.6894  0.6321
 5646TIP3    H216945   0.838   3.305   0.267 -0.9730 -1.5333  0.6527
 5647TIP3   OH216946   2.503   2.806   0.469  0.0984 -0.2210 -0.4910
 5647TIP3    H116947   2.473   2.752   0.542 -1.8504 -0.7095 -1.5677
 5647TIP3    H216948   2.526   2.742   0.401  1.0203  0.2468 -0.6302
 5648TIP3   OH216949   3.987   3.622   3.556 -0.2376 -0.0389 -0.6962
 5648TIP3    H116950   3.960   3.577   3.476  1.9356 -1.5710 -0.6545
 5648TIP3    H216951   3.992   3.714   3.532 -1.0900 -0.2804 -1.8729
 5649TIP3   OH216952   2.678   1.029   0.158  0.2064  0.1097 -0.6372
 5649TIP3    H116953   2.605   1.086   0.134 -0.0010  0.8068  1.4907
 5649TIP3    H216954   2.657   0.945   0.118 -0.0034  1.1853 -2.9745
 5650TIP3   OH216955   0.860   5.680   0.880  0.4412 -0.0629 -0.2901
 5650TIP3    H116956   0.839   5.675   0.787 -1.7371  1.1269  0.0705
 5650TIP3    H216957   0.809   5.610   0.920  1.6207 -0.7840  0.0087
 5651TIP3   OH216958   1.484   2.203   0.060 -0.4149 -0.4278 -0.8136
 5651TIP3    H116959   1.558   2.249   0.098 -0.2099 -0.5891 -1.0149
 5651TIP3    H216960   1.472   2.242  -0.027  1.1594 -2.2046 -1.9035
 5652TIP3   OH216961   4.621   4.952   2.132  1.1987 -0.1304 -0.1048
 5652TIP3    H116962   4.539   4.998   2.115  0.7887 -0.5689  0.6140
 5652TIP3    H216963   4.621   4.879   2.070  0.6584 -0.5882  0.4226
 5653TIP3   OH216964   3.194   0.263   2.290  0.1283  0.3632  0.1984
 5653TIP3    H116965   3.104   0.257   2.259  0.0820  1.6404  0.0020
 5653TIP3    H216966   3.187   0.261   2.385 -0.0807  0.1095  0.1767
 5654TIP3   OH216967   2.670   2.680   4.598 -0.4189 -0.5422 -0.2131
 5654TIP3    H116968   2.644   2.752   4.656 -0.6014  0.7440 -1.8222
 5654TIP3    H216969   2.612   2.689   4.522 -0.2392 -2.2265 -0.5795
 5655TIP3   OH216970   3.882   3.978   0.902  0.2051  0.0423 -0.4007
 5655TIP3    H116971   3.834   3.955   0.981 -0.9119 -0.7073 -1.2808
 5655TIP3    H216972   3.848   4.064   0.877 -0.4878 -0.3706 -0.8765
 5656TIP3   OH216973   4.879   0.288   2.624 -0.4646 -0.3321  0.3026
 5656TIP3    H116974   4.859   0.374   2.585  3.6223  0.7317  0.1344
 5656TIP3    H216975   4.940   0.308   2.696 -1.1660 -2.9806  1.7552
 5657TIP3   OH216976   1.746   2.212   4.875  0.3832  0.0626  0.4120
 5657TIP3    H116977   1.785   2.142   4.928  0.0263  0.0166  0.6121
 5657TIP3    H216978   1.789   2.292   4.906  1.7593 -0.1867 -0.7026
 5658TIP3   OH216979   5.288   5.446   2.881  0.6516 -0.5163  0.2055
 5658TIP3    H116980   5.317   5.530   2.916 -0.3009 -0.4392  0.8421
 5658TIP3    H216981   5.239   5.405   2.953 -1.4832 -0.2950 -1.0411
 5659TIP3   OH216982   5.172   2.600   5.060 -0.3001 -0.1903  0.3725
 5659TIP3    H116983   5.090   2.646   5.046 -1.2828 -1.6481  1.1034
 5659TIP3    H216984   5.200   2.626   5.148 -0.2000 -0.0219  0.2909
 5660TIP3   OH216985   4.086   1.488   0.528 -0.4582 -0.5679 -0.3530
 5660TIP3    H116986   4.130   1.572   0.544 -2.0987  0.5560 -1.4037
 5660TIP3    H216987   4.152   1.422   0.548  1.0465  0.9787  0.0327
 5661TIP3   OH216988   0.796   2.432   1.775 -0.0453 -0.0301 -0.2609
 5661TIP3    H116989   0.749   2.388   1.846  1.3094 -2.7127 -0.8812
 5661TIP3    H216990   0.727   2.463   1.716 -1.1198 -1.2865  0.2827
 5662TIP3   OH216991   2.756   3.668   2.947 -0.0609 -0.0412 -0.4047
 5662TIP3    H116992   2.768   3.757   2.981  0.4052 -0.5733  0.8925
 5662TIP3    H216993   2.666   3.666   2.916 -0.5548  0.4718  0.9169
 5663TIP3   OH216994   0.283   4.024   3.246  0.1591  0.3403  0.5607
 5663TIP3    H116995   0.295   3.930   3.237 -0.4473  0.3015  0.1147
 5663TIP3    H216996   0.353   4.052   3.305 -0.4485 -0.5851  1.7617
 5664TIP3   OH216997   5.248   4.290   5.099  0.4356 -0.2306 -0.6385
 5664TIP3    H116998   5.175   4.250   5.146  2.0789 -1.7969  0.7523
 5664TIP3    H216999   5.239   4.384   5.114  0.5517 -0.6253  2.4341
 5665TIP3   OH217000   1.910   4.441   4.896  0.2910 -0.5086 -0.2317
 5665TIP3    H117001   1.856   4.367   4.924 -2.0295  1.1276 -0.0780
 5665TIP3    H217002   1.934   4.485   4.978  0.4261 -0.2761 -0.3950
 5666TIP3   OH217003   3.555   0.045   1.244  0.2980  0.3038  0.0648
 5666TIP3    H117004   3.463   0.017   1.248  0.7263 -1.2720 -0.5158
 5666TIP3    H217005   3.579   0.035   1.152  0.2605  3.5499 -0.4176
 5667TIP3   OH217006   0.847   1.998   1.632 -0.2530 -0.3857  0.6348
 5667TIP3    H117007   0.817   2.086   1.612 -1.3222 -0.6457  1.0729
 5667TIP3    H217008   0.772   1.954   1.671  0.1873 -1.5701  0.2042
 5668TIP3   OH217009   3.989   5.853   2.308  0.0767  0.1467  0.0117
 5668TIP3    H117010   3.939   5.803   2.372  1.5277 -0.5118  0.6793
 5668TIP3    H217011   3.999   5.940   2.348  0.9215 -0.2437  0.6752
 5669TIP3   OH217012   0.426   0.973   2.792 -0.3370  1.0628 -0.2067
 5669TIP3    H117013   0.371   0.904   2.755  0.7975  0.3650 -0.6517
 5669TIP3    H217014   0.500   0.979   2.732 -0.3187  2.5417 -0.0636
 5670TIP3   OH217015   1.812   0.083   0.784 -0.2559 -0.2960  0.2118
 5670TIP3    H117016   1.756   0.157   0.809  1.1973  0.2965  1.9354
 5670TIP3    H217017   1.776   0.009   0.832 -0.7435 -0.3685 -0.2551
 5671TIP3   OH217018   5.688   2.732   4.134 -0.3384 -0.4126  0.1058
 5671TIP3    H117019   5.780   2.758   4.130 -0.7102  1.0737  0.6027
 5671TIP3    H217020   5.644   2.791   4.072 -1.1462 -0.1727  0.8834
 5672TIP3   OH217021   2.801   0.790   2.916 -0.3895  0.3153 -0.1407
 5672TIP3    H117022   2.847   0.728   2.973  0.1749  0.6229 -0.2585
 5672TIP3    H217023   2.770   0.858   2.975  0.3834  0.7464 -0.2236
 5673TIP3   OH217024   4.806   4.377   3.129  0.5530  0.1866 -0.1742
 5673TIP3    H117025   4.723   4.331   3.120 -0.1515  1.4381 -0.2566
 5673TIP3    H217026   4.806   4.408   3.219  0.1445  1.6326 -0.6529
 5674TIP3   OH217027   4.464   3.093   3.916  0.3340 -0.2576 -0.2041
 5674TIP3    H117028   4.543   3.098   3.970  0.3394 -0.8675 -0.1456
 5674TIP3    H217029   4.393   3.116   3.976  0.5644  1.5274 -0.5562
 5675TIP3   OH217030   0.747   3.899   4.493  0.2721 -0.2727 -0.2526
 5675TIP3    H117031   0.794   3.843   4.554 -0.6018 -1.4713 -0.6482
 5675TIP3    H217032   0.656   3.898   4.524  0.1265  0.4556 -0.6169
 5676TIP3   OH217033   0.288   0.358   1.784  0.2739 -0.0909 -0.0668
 5676TIP3    H117034   0.357   0.319   1.838  1.1995  0.7909 -0.5731
 5676TIP3    H217035   0.244   0.420   1.842  0.9591  0.5089 -0.1689
 5677TIP3   OH217036   5.272   3.084   4.753 -0.2701 -0.4108 -0.4743
 5677TIP3    H117037   5.249   3.123   4.669 -1.0290  0.5157  0.1556
 5677TIP3    H217038   5.364   3.109   4.766 -0.1722 -0.4876 -0.9752
 5678TIP3   OH217039   1.449   2.206   1.777 -0.2066 -0.5941 -0.6943
 5678TIP3    H117040   1.379   2.210   1.713  0.3051  0.9361 -1.2115
 5678TIP3    H217041   1.523   2.167   1.731  0.3645  1.0912 -1.3101
 5679TIP3   OH217042   3.399   2.531   4.294 -0.0440  0.9123 -0.2002
 5679TIP3    H117043   3.493   2.513   4.294 -0.1133  0.5430 -0.3296
 5679TIP3    H217044   3.378   2.550   4.386  0.4115  2.3950 -0.3731
 5680TIP3   OH217045   0.690   0.808   1.262 -0.1873 -0.5536  0.2142
 5680TIP3    H117046   0.636   0.778   1.188 -0.7031 -1.1503  0.8255
 5680TIP3    H217047   0.639   0.878   1.302 -1.5105 -2.4228  2.0023
 5681TIP3   OH217048   5.072   0.707   4.925  0.1586  0.4758 -0.6687
 5681TIP3    H117049   5.027   0.748   4.851 -0.4635  1.8911  0.4582
 5681TIP3    H217050   5.017   0.632   4.948  0.2066  0.1918 -1.4363
 5682TIP3   OH217051   4.439   1.313   3.988  0.0713 -0.5049 -0.0047
 5682TIP3    H117052   4.529   1.294   3.961 -0.3906 -1.5248 -0.9258
 5682TIP3    H217053   4.387   1.243   3.948 -1.1941  0.3370  0.1106
 5683TIP3   OH217054   0.331   1.183   0.362  0.2912 -0.6925  0.5190
 5683TIP3    H117055   0.381   1.222   0.291 -1.0009 -0.3079 -0.2177
 5683TIP3    H217056   0.329   1.090   0.342 -0.5154 -0.5200 -0.2601
 5684TIP3   OH217057   5.297   4.145   3.024 -0.3432 -0.2933 -0.0781
 5684TIP3    H117058   5.382   4.178   2.997 -1.3469  2.7925  0.1400
 5684TIP3    H217059   5.282   4.068   2.969  1.4929  0.5505 -1.8745
 5685TIP3   OH217060   1.942   2.656   5.056  0.3015 -0.0290 -0.7269
 5685TIP3    H117061   1.989   2.727   5.100 -0.0771  0.2928 -0.8305
 5685TIP3    H217062   1.904   2.698   4.978 -0.1271 -0.2855 -0.6589
 5686TIP3   OH217063   6.207   0.022   0.106  0.3102 -0.5011 -0.8742
 5686TIP3    H117064   6.158   0.096   0.142  2.1669  0.8182 -0.9193
 5686TIP3    H217065   6.142  -0.049   0.100 -0.9164  0.2893  1.6506
 5687TIP3   OH217066   4.294   1.993   2.727  0.1253 -0.0855 -0.1102
 5687TIP3    H117067   4.379   2.031   2.749 -0.3985  0.5325  0.9061
 5687TIP3    H217068   4.276   1.930   2.796 -1.1619  1.2817  0.8589
 5688TIP3   OH217069   2.125   3.709   0.538 -0.1113  0.1868 -0.1194
 5688TIP3    H117070   2.202   3.663   0.507 -0.3215  0.2065 -0.6887
 5688TIP3    H217071   2.114   3.680   0.629  1.5628  1.5020  0.5636
 5689TIP3   OH217072   4.936   0.593   2.472 -0.1022 -0.0332 -0.0438
 5689TIP3    H117073   4.850   0.598   2.430 -0.3183 -0.4413  0.3426
 5689TIP3    H217074   4.991   0.651   2.420 -0.5518  0.0464 -0.4402
 5690TIP3   OH217075   4.058   1.167   2.899  0.6980 -0.1777  0.5429
 5690TIP3    H117076   4.006   1.143   2.822  1.3194  0.2712 -0.0360
 5690TIP3    H217077   4.056   1.090   2.955 -0.6393 -0.1427  0.5595
 5691TIP3   OH217078   2.272   4.738   4.026  0.0278  0.0082  0.6553
 5691TIP3    H117079   2.308   4.721   3.939 -0.4044 -1.2827  0.7045
 5691TIP3    H217080   2.185   4.776   4.009 -0.3046 -0.7967  0.5035
 5692TIP3   OH217081   5.109   4.757   1.150  0.2869  0.0011  0.2125
 5692TIP3    H117082   5.183   4.800   1.105 -1.4002  1.0520 -1.7353
 5692TIP3    H217083   5.137   4.752   1.241  1.9372  2.3079 -0.0537
 5693TIP3   OH217084   1.268   5.823   2.756  0.1759  0.1182  0.4736
 5693TIP3    H117085   1.193   5.793   2.705  0.5555 -3.2262  1.6304
 5693TIP3    H217086   1.344   5.788   2.709  0.8718  1.4557  0.5724
 5694TIP3   OH217087   0.983   4.557   1.880  0.0696 -0.3512  0.5925
 5694TIP3    H117088   1.017   4.616   1.812 -0.6123 -1.3895 -0.7061
 5694TIP3    H217089   0.895   4.534   1.849  0.3031 -1.9862  1.0895
 5695TIP3   OH217090   4.553   1.201   4.549  0.0326  0.1535  0.4689
 5695TIP3    H117091   4.515   1.146   4.480 -3.5980  1.0701  1.5333
 5695TIP3    H217092   4.582   1.280   4.504  0.8925 -0.6437 -0.4219
 5696TIP3   OH217093   3.463   1.275   1.364  0.4534 -0.4264  0.1847
 5696TIP3    H117094   3.424   1.249   1.281  2.2917 -2.5981 -0.0756
 5696TIP3    H217095   3.554   1.295   1.343  0.8635 -0.6668  1.6259
 5697TIP3   OH217096   3.060   4.110   0.237 -0.2242  0.3020  0.0414
 5697TIP3    H117097   2.999   4.177   0.205  1.1398  0.7634 -1.7738
 5697TIP3    H217098   3.129   4.160   0.281 -0.2031 -0.0558  0.4125
 5698TIP3   OH217099   2.536   5.871   4.424 -0.2288  0.2162  0.4652
 5698TIP3    H117100   2.475   5.928   4.377 -0.9886  0.7151  2.0219
 5698TIP3    H217101   2.520   5.889   4.516 -1.0145 -3.0268  1.0750
 5699TIP3   OH217102   0.626   3.852   2.366  0.1963  0.4157 -0.3449
 5699TIP3    H117103   0.558   3.887   2.309 -0.3781  0.1353  0.1575
 5699TIP3    H217104   0.631   3.913   2.439 -0.0319  0.0415 -0.0159
 5700TIP3   OH217105   0.413   5.726   4.153  0.5251 -0.5912 -0.7141
 5700TIP3    H117106   0.368   5.758   4.231  0.9088  3.6361 -1.9835
 5700TIP3    H217107   0.475   5.660   4.186  0.3879  0.7190  2.5022
 5701TIP3   OH217108   5.012   5.429   4.306 -0.0915 -0.1829 -0.8049
 5701TIP3    H117109   5.063   5.508   4.288  0.5294 -0.7364 -1.5450
 5701TIP3    H217110   5.078   5.361   4.319 -0.3658  0.1314  4.0306
 5702TIP3   OH217111   0.647   0.906   4.788  0.8348 -0.6348  0.5797
 5702TIP3    H117112   0.654   0.918   4.883  0.8749  0.9379  0.4058
 5702TIP3    H217113   0.734   0.929   4.754  0.0985  1.4796 -0.0352
 5703TIP3   OH217114   1.278   3.241   2.572 -0.5354  0.2643  0.1289
 5703TIP3    H117115   1.215   3.303   2.535  0.2754  0.4462 -1.0105
 5703TIP3    H217116   1.230   3.158   2.579 -1.0632  0.5404 -0.1816
 5704TIP3   OH217117   3.303   2.239   2.870  0.0412 -0.3289  0.0388
 5704TIP3    H117118   3.256   2.314   2.834  0.5524  0.7626  1.5731
 5704TIP3    H217119   3.235   2.185   2.910 -0.2027 -0.1027 -0.0668
 5705TIP3   OH217120   3.113   4.355   0.931 -0.0004 -0.5535 -0.2188
 5705TIP3    H117121   3.163   4.339   1.011 -0.5375 -2.7434 -0.2472
 5705TIP3    H217122   3.032   4.397   0.960 -0.8394 -2.6459  0.6189
 5706TIP3   OH217123   2.287   1.009   3.824 -0.5658  0.2625  0.2194
 5706TIP3    H117124   2.367   1.040   3.866 -1.4412  0.8440  1.5337
 5706TIP3    H217125   2.220   1.013   3.893 -1.4832 -1.3168 -0.5156
 5707TIP3   OH217126   2.058   3.821   1.876 -0.0227  0.2507 -0.4400
 5707TIP3    H117127   2.101   3.776   1.804 -0.8487 -0.8266 -0.2831
 5707TIP3    H217128   1.970   3.841   1.844  0.7177  3.0572 -1.0117
 5708TIP3   OH217129   4.852   4.264   4.022 -0.4579  0.0738 -0.1767
 5708TIP3    H117130   4.801   4.229   4.095 -0.6673  0.5541 -0.0858
 5708TIP3    H217131   4.931   4.299   4.062  0.6512 -1.9556 -0.4750
 5709TIP3   OH217132   5.705   2.680   0.823  0.0469 -0.1598 -0.2573
 5709TIP3    H117133   5.762   2.753   0.846  1.4442 -1.2140 -0.2980
 5709TIP3    H217134   5.616   2.713   0.839  0.5857  1.8673 -1.1873
 5710TIP3   OH217135   1.141   5.546   0.664 -0.3708 -0.2528 -0.3371
 5710TIP3    H117136   1.131   5.590   0.579 -0.6522  1.4376  0.5191
 5710TIP3    H217137   1.129   5.616   0.728  0.8447 -1.2954  1.0948
 5711TIP3   OH217138   4.098   0.659   1.159 -0.0458  0.0398 -0.0980
 5711TIP3    H117139   4.034   0.695   1.097 -1.2486 -1.3950  0.2383
 5711TIP3    H217140   4.045   0.608   1.220  1.2841  0.1432  1.1794
 5712TIP3   OH217141   0.601   0.259   3.239 -0.1054  0.0934  0.0735
 5712TIP3    H117142   0.527   0.235   3.296 -0.1621  0.1282  0.0150
 5712TIP3    H217143   0.565   0.252   3.150 -0.0089  0.0118  0.0412
 5713TIP3   OH217144   3.345   5.033   4.431 -0.1381  0.0863 -0.1945
 5713TIP3    H117145   3.258   5.023   4.393  0.1182 -0.2453 -0.7204
 5713TIP3    H217146   3.331   5.080   4.513 -1.0449 -1.6800  0.7259
 5714TIP3   OH217147   2.121   0.165   3.164  0.7944  0.0034 -0.0607
 5714TIP3    H117148   2.190   0.099   3.158  0.1578 -0.9349  2.0188
 5714TIP3    H217149   2.039   0.115   3.163  0.0592  1.1100 -2.6079
 5715TIP3   OH217150   0.661   3.724   1.464 -0.3065  0.1294 -0.0628
 5715TIP3    H117151   0.723   3.756   1.398  0.5745 -0.0215  0.6673
 5715TIP3    H217152   0.578   3.767   1.442  0.2406  0.9329 -0.6140
 5716TIP3   OH217153   3.560   5.816   2.785  0.4003 -0.6179 -0.1054
 5716TIP3    H117154   3.512   5.892   2.750  0.1483 -0.0673  1.3499
 5716TIP3    H217155   3.652   5.835   2.766  0.1173 -2.6275 -4.7708
 5717TIP3   OH217156   3.715   2.729   2.211 -0.1741 -0.0872  0.4130
 5717TIP3    H117157   3.620   2.720   2.199  0.1868 -0.8189 -3.3599
 5717TIP3    H217158   3.742   2.647   2.252 -1.0478 -0.4959  0.2080
 5718TIP3   OH217159   5.765   2.647   4.382 -0.3735 -0.1136  0.4894
 5718TIP3    H117160   5.708   2.594   4.439 -1.2773 -0.0532 -0.3423
 5718TIP3    H217161   5.712   2.665   4.305  0.3740  0.9513  0.2059
 5719TIP3   OH217162   3.168   5.440   4.589 -0.0284 -0.2730 -0.2515
 5719TIP3    H117163   3.261   5.439   4.612 -0.3669  0.9984  1.3487
 5719TIP3    H217164   3.128   5.503   4.650 -2.1428 -1.6626 -0.0725
 5720TIP3   OH217165   0.818   4.012   5.060 -0.3963  0.5481 -0.0945
 5720TIP3    H117166   0.902   4.036   5.021  1.0291 -0.4080  2.2040
 5720TIP3    H217167   0.782   3.947   4.999  0.8741  0.4403 -0.7677
 5721TIP3   OH217168   1.092   5.494   0.198  0.1486 -0.1260 -0.7853
 5721TIP3    H117169   1.060   5.420   0.146  2.0511 -0.8542 -1.0334
 5721TIP3    H217170   1.068   5.471   0.288 -0.2962 -0.4803 -0.9875
 5722TIP3   OH217171   6.280   2.610   3.161 -0.1249  0.1720  0.0231
 5722TIP3    H117172   6.311   2.699   3.149  0.4797 -0.1194 -0.6215
 5722TIP3    H217173   6.352   2.555   3.131 -1.4838 -0.5300 -2.1659
 5723TIP3   OH217174   6.269   4.464   1.227 -0.1558 -0.1175  0.1392
 5723TIP3    H117175   6.267   4.558   1.246  1.4014  0.2106 -1.0810
 5723TIP3    H217176   6.326   4.456   1.150  0.7802 -2.1736  0.9540
 5724TIP3   OH217177   0.144   4.764   3.398  0.2480  0.2249  0.0268
 5724TIP3    H117178   0.194   4.757   3.317  0.2761  0.5167  0.0172
 5724TIP3    H217179   0.125   4.858   3.407  0.6595  0.2579  0.6029
 5725TIP3   OH217180   0.803   1.434   4.234  0.1995 -0.6118  0.0654
 5725TIP3    H117181   0.792   1.437   4.329  1.4412 -0.5837  0.2211
 5725TIP3    H217182   0.819   1.525   4.209 -0.1332 -0.6184 -0.1838
 5726TIP3   OH217183   2.230   1.049   1.311 -0.4371  0.3289  0.3450
 5726TIP3    H117184   2.233   1.038   1.406 -1.2495 -1.6638  0.1879
 5726TIP3    H217185   2.147   1.010   1.285 -0.2829  0.9552 -1.1757
 5727TIP3   OH217186   5.393   5.919   3.648 -0.3901 -0.1115 -0.1796
 5727TIP3    H117187   5.386   5.937   3.555  0.1721 -2.1739 -0.6617
 5727TIP3    H217188   5.405   6.005   3.688 -0.8328  0.8284 -1.9666
 5728TIP3   OH217189   5.569   3.553   4.789  0.6974 -0.1930 -0.2055
 5728TIP3    H117190   5.493   3.496   4.801  0.2692  0.2137 -0.8893
 5728TIP3    H217191   5.596   3.576   4.878  0.7192 -1.2484  0.0714
 5729TIP3   OH217192   2.888   2.911   4.473  0.1052  0.5398  0.6213
 5729TIP3    H117193   2.826   2.959   4.419  1.0095  2.4486  1.1928
 5729TIP3    H217194   2.855   2.920   4.562 -0.4788 -1.1749  0.6181
 5730TIP3   OH217195   1.155   3.672   2.948 -0.3041 -0.3433 -0.2460
 5730TIP3    H117196   1.231   3.696   3.002 -0.8348 -1.7457  1.2038
 5730TIP3    H217197   1.191   3.616   2.880 -0.2565 -3.2208  1.9606
 5731TIP3   OH217198   2.220   3.702   1.024 -0.9847 -0.1029  0.1852
 5731TIP3    H117199   2.310   3.726   1.045 -0.7438  0.0860 -1.0085
 5731TIP3    H217200   2.180   3.783   0.992 -1.4955 -0.2558  0.4224
 5732TIP3   OH217201   0.073   4.083   0.401  0.7579  0.2008  0.0366
 5732TIP3    H117202   0.117   4.107   0.483 -0.4334 -0.6175  0.9561
 5732TIP3    H217203  -0.014   4.122   0.408 -0.0215 -1.4261  0.0413
 5733TIP3   OH217204   1.734   4.928   2.626  0.1675  0.2586 -0.1489
 5733TIP3    H117205   1.727   4.937   2.721 -0.6857 -0.5182 -0.1260
 5733TIP3    H217206   1.724   4.835   2.609  1.0369  0.2870 -0.9601
 5734TIP3   OH217207   0.905   5.904   4.345  0.2911 -0.7677 -0.0778
 5734TIP3    H117208   0.940   5.923   4.432 -1.2555 -1.1180  0.6422
 5734TIP3    H217209   0.892   5.810   4.344 -0.0744 -0.7176 -0.5476
 5735TIP3   OH217210   4.893   1.818   0.309 -0.8454  0.2183 -0.3524
 5735TIP3    H117211   4.942   1.743   0.342 -0.0861  0.8473 -0.0309
 5735TIP3    H217212   4.913   1.889   0.370 -1.2443  0.7906 -0.8740
 5736TIP3   OH217213   2.392   5.508   4.026  0.9340 -0.4543  0.1740
 5736TIP3    H117214   2.423   5.585   4.073 -0.3670  0.1970  0.0108
 5736TIP3    H217215   2.340   5.460   4.090 -3.4560  1.9716 -1.1278
 5737TIP3   OH217216   2.353   4.988   1.755 -0.1978  0.0027 -0.0740
 5737TIP3    H117217   2.310   4.927   1.695 -0.8088  0.4560 -0.1030
 5737TIP3    H217218   2.446   4.977   1.738 -0.3795  0.5435 -1.5168
 5738TIP3   OH217219   2.693   4.629   2.566 -0.0529  0.0337  0.2160
 5738TIP3    H117220   2.610   4.662   2.601  0.2048  0.4534  0.4479
 5738TIP3    H217221   2.736   4.707   2.530  1.7570  0.5148  3.1327
 5739TIP3   OH217222   1.727   4.961   0.117 -0.5347 -0.2405 -0.6361
 5739TIP3    H117223   1.776   4.880   0.107  1.9620  1.1969 -1.0952
 5739TIP3    H217224   1.795   5.029   0.122 -2.5251  1.9732 -1.7492
 5740TIP3   OH217225   3.350   0.359   0.462 -0.3635  0.4130 -0.2995
 5740TIP3    H117226   3.375   0.389   0.549  0.5515  0.6763 -0.6437
 5740TIP3    H217227   3.254   0.364   0.462 -0.4995 -1.0765  1.2096
 5741TIP3   OH217228   1.978   3.763   4.834 -0.9617  0.8399 -0.3682
 5741TIP3    H117229   2.059   3.808   4.809 -0.7969  0.4945 -0.4719
 5741TIP3    H217230   1.957   3.799   4.920 -0.3577  0.5039 -0.0672
 5742TIP3   OH217231   1.158   1.402   2.613  0.3145  0.2198 -0.4334
 5742TIP3    H117232   1.138   1.420   2.521  1.7139 -0.8646 -0.9859
 5742TIP3    H217233   1.149   1.307   2.621 -0.3742  0.3562  0.7281
 5743TIP3   OH217234   3.918   3.954   5.175  0.7888  0.3492  0.8180
 5743TIP3    H117235   3.993   4.010   5.195  0.6723  0.3734  1.1849
 5743TIP3    H217236   3.862   4.009   5.118 -0.1348  1.2373  2.4993
 5744TIP3   OH217237   2.105   3.483   1.183  0.2935 -1.0494 -0.9994
 5744TIP3    H117238   2.111   3.577   1.163  0.6622 -1.4220 -2.8414
 5744TIP3    H217239   2.047   3.449   1.115  2.5930 -2.6337 -2.3215
 5745TIP3   OH217240   3.975   1.564   4.984  0.0669  0.3394  0.4895
 5745TIP3    H117241   3.929   1.480   4.984 -0.9666  0.8456  2.5480
 5745TIP3    H217242   4.061   1.543   4.948  0.1319 -1.7823  1.6907
 5746TIP3   OH217243   6.296   0.954   2.104 -0.3319  0.3295  0.2354
 5746TIP3    H117244   6.306   0.896   2.180 -0.5777 -0.3093 -0.2107
 5746TIP3    H217245   6.245   1.028   2.137  0.9753  0.8648  1.0979
 5747TIP3   OH217246   3.578   3.749   3.193  0.4495  0.4226 -0.4441
 5747TIP3    H117247   3.569   3.833   3.240  0.8890  0.3850 -0.2892
 5747TIP3    H217248   3.605   3.687   3.261  0.5108  0.2418 -0.6342
 5748TIP3   OH217249   3.142   5.674   0.427  0.0212  0.3687  0.1677
 5748TIP3    H117250   3.164   5.600   0.484 -0.8017  1.9358  2.6759
 5748TIP3    H217251   3.222   5.726   0.423 -0.5278  1.4556  1.9392
 5749TIP3   OH217252   3.542   5.455   4.003 -0.3676 -0.3943  0.0347
 5749TIP3    H117253   3.514   5.480   3.915 -0.9288 -1.8403 -0.2140
 5749TIP3    H217254   3.463   5.463   4.056  0.0127  0.6657  0.4778
 5750TIP3   OH217255   1.659   3.143   4.143 -0.4277  0.0139 -0.0680
 5750TIP3    H117256   1.607   3.063   4.140  0.4501 -0.5554 -0.5306
 5750TIP3    H217257   1.615   3.197   4.209 -1.6663 -0.3815 -0.5281
 5751TIP3   OH217258   5.956   4.431   1.646  0.3555  0.0639  0.1868
 5751TIP3    H117259   5.920   4.492   1.582 -0.9939 -1.9141 -1.0610
 5751TIP3    H217260   5.880   4.399   1.694  1.0252 -0.6601  0.7923
 5752TIP3   OH217261   0.018   2.597   4.463  0.0724  0.2401  0.3061
 5752TIP3    H117262   0.058   2.651   4.531  0.6470 -1.7208  1.6084
 5752TIP3    H217263   0.091   2.547   4.426 -0.8543 -2.3179  1.6957
 5753TIP3   OH217264   0.110   0.617   2.555  0.7848 -0.4307  0.4902
 5753TIP3    H117265   0.047   0.544   2.558  0.2400 -0.0838 -1.2784
 5753TIP3    H217266   0.061   0.692   2.589  0.8240 -0.5516  0.8127
 5754TIP3   OH217267   1.611   2.595   0.954 -0.0879  0.0328 -0.4999
 5754TIP3    H117268   1.627   2.660   0.886 -0.1464  1.5450  0.8605
 5754TIP3    H217269   1.699   2.566   0.980  0.0858  1.3395  0.4795
 5755TIP3   OH217270   5.802   5.118   3.641 -0.3659  0.6102  0.1681
 5755TIP3    H117271   5.802   5.133   3.736  0.9350  0.3806  0.2266
 5755TIP3    H217272   5.821   5.204   3.604 -2.6885  1.1211 -0.0215
 5756TIP3   OH217273   0.175   5.475   2.210 -0.3266  0.2272 -0.0560
 5756TIP3    H117274   0.254   5.453   2.161  0.7535 -1.5279  2.2957
 5756TIP3    H217275   0.132   5.390   2.225 -2.0545  1.0242 -0.2496
 5757TIP3   OH217276   2.749   3.671   4.366  0.0532 -0.4139 -0.6883
 5757TIP3    H117277   2.802   3.697   4.441  0.5485 -1.4752 -0.6560
 5757TIP3    H217278   2.664   3.713   4.382 -0.1473 -1.3323  0.9571
 5758TIP3   OH217279   0.240   0.959   3.452  1.1717 -0.2718  0.4425
 5758TIP3    H117280   0.174   0.914   3.401  1.4432 -2.5632  1.9582
 5758TIP3    H217281   0.222   0.933   3.543  2.4774  1.2660  1.1983
 5759TIP3   OH217282   5.532   0.423   1.438  0.3668 -0.2204 -0.2971
 5759TIP3    H117283   5.626   0.426   1.418  0.7900  0.4694  1.5959
 5759TIP3    H217284   5.528   0.393   1.529 -1.3629 -1.9626 -0.8666
 5760TIP3   OH217285   3.242   0.916   3.100  0.8674  0.3781  0.2046
 5760TIP3    H117286   3.196   0.995   3.071  0.0631 -0.2485 -0.2506
 5760TIP3    H217287   3.185   0.879   3.168  0.5765 -0.5310 -0.5228
 5761TIP3   OH217288   4.390   2.851   3.765  0.2222  0.1400  0.8054
 5761TIP3    H117289   4.430   2.933   3.793  0.2034  0.2923  0.3919
 5761TIP3    H217290   4.382   2.800   3.845  1.5448 -0.0239  0.8674
 5762TIP3   OH217291   4.346   1.334   2.292 -0.3683  0.0228  0.3064
 5762TIP3    H117292   4.339   1.331   2.196 -1.3879 -1.0004  0.3904
 5762TIP3    H217293   4.262   1.370   2.321 -0.6311 -0.9940  0.8616
 5763TIP3   OH217294   4.902   4.317   1.937 -0.3169  0.0478 -0.3138
 5763TIP3    H117295   4.815   4.284   1.960  0.5641 -3.0812 -0.9021
 5763TIP3    H217296   4.897   4.336   1.843  0.0323 -2.0397 -0.8229
 5764TIP3   OH217297   0.766   0.556   2.006  0.0280  0.7027 -0.1153
 5764TIP3    H117298   0.844   0.596   1.969  0.6179 -0.1175  0.1993
 5764TIP3    H217299   0.698   0.569   1.940  0.0628  2.5714  0.1528
 5765TIP3   OH217300   3.832   4.642   3.481 -0.4198  0.0984 -0.0133
 5765TIP3    H117301   3.807   4.551   3.466  0.7133 -0.9826  3.6181
 5765TIP3    H217302   3.782   4.669   3.558  1.4450  1.4759  0.8183
 5766TIP3   OH217303   2.525   0.240   3.087 -0.2859 -0.3637 -0.8548
 5766TIP3    H117304   2.620   0.225   3.084 -0.1907 -0.1985  0.8157
 5766TIP3    H217305   2.487   0.152   3.084 -0.2958 -0.4239 -4.8962
 5767TIP3   OH217306   3.990   5.451   2.329 -0.2749  0.3359  0.2620
 5767TIP3    H117307   3.938   5.393   2.384  0.0999 -0.9363 -0.6645
 5767TIP3    H217308   4.019   5.395   2.256  1.2342  1.3460  0.0392
 5768TIP3   OH217309   0.983   1.614   1.528 -0.3176 -0.0357 -0.1248
 5768TIP3    H117310   0.989   1.521   1.549  1.4152  0.3045  1.1169
 5768TIP3    H217311   1.040   1.657   1.592 -1.1444  1.8971 -0.6139
 5769TIP3   OH217312   5.807   1.088   3.384 -0.2435 -0.1096 -0.1898
 5769TIP3    H117313   5.826   0.998   3.356 -0.8817 -1.2475  2.6500
 5769TIP3    H217314   5.893   1.128   3.395  0.1485 -1.0964  0.5314
 5770TIP3   OH217315   0.435   3.373   2.893  0.3940 -0.7079 -0.0165
 5770TIP3    H117316   0.426   3.341   2.803  0.3339 -1.6585  0.3178
 5770TIP3    H217317   0.529   3.370   2.910  0.5413  0.6882 -0.4661
 5771TIP3   OH217318   4.656   5.356   0.598 -0.0769  0.8155 -0.2180
 5771TIP3    H117319   4.709   5.430   0.626  1.1075 -0.3450  0.7502
 5771TIP3    H217320   4.716   5.282   0.598 -1.7127 -0.6080  1.1378
 5772TIP3   OH217321   0.680   0.493   1.472  0.2354 -0.0396 -0.3731
 5772TIP3    H117322   0.682   0.482   1.377  0.3121 -3.3528 -0.1033
 5772TIP3    H217323   0.587   0.497   1.495  0.1990 -0.0545 -0.5214
 5773TIP3   OH217324   1.532   5.942   4.055  0.5123 -0.8512  0.1811
 5773TIP3    H117325   1.449   5.925   4.099  0.3683  1.6271  1.0310
 5773TIP3    H217326   1.508   5.993   3.977  1.0450 -2.4785 -1.0895
 5774TIP3   OH217327   4.992   5.027   3.182  0.3806 -0.1673 -0.2581
 5774TIP3    H117328   5.016   5.090   3.113 -0.6268  1.3625  0.7198
 5774TIP3    H217329   4.933   4.965   3.138  1.1249 -0.2547 -1.1697
 5775TIP3   OH217330   2.903   4.302   3.279 -0.0192  0.0299  0.4165
 5775TIP3    H117331   2.991   4.304   3.242 -0.3842  0.1710 -0.4535
 5775TIP3    H217332   2.873   4.212   3.265  0.4794 -0.4049  1.9254
 5776TIP3   OH217333   0.893   1.337   3.085  0.6035  0.6427 -0.2122
 5776TIP3    H117334   0.927   1.349   3.174 -0.8874  2.2180  0.2121
 5776TIP3    H217335   0.801   1.314   3.097  0.2654  1.3016 -1.3333
 5777TIP3   OH217336   0.611   2.386   0.384 -0.3173  0.2199  0.0137
 5777TIP3    H117337   0.647   2.331   0.454 -1.5181 -0.4621  0.1259
 5777TIP3    H217338   0.668   2.370   0.309  0.2419 -0.0088  0.4792
 5778TIP3   OH217339   6.025   5.477   2.521 -0.4718  0.2743 -0.3734
 5778TIP3    H117340   5.985   5.450   2.438 -2.8449 -2.5809  1.4509
 5778TIP3    H217341   5.989   5.564   2.537 -1.9691 -0.1412 -1.2254
 5779TIP3   OH217342   5.262   3.648   4.533 -0.5987 -0.7095 -0.1615
 5779TIP3    H117343   5.202   3.646   4.458 -0.7703  1.6262 -0.1309
 5779TIP3    H217344   5.331   3.709   4.507  0.2654 -1.1885  0.9273
 5780TIP3   OH217345   0.482   0.273   4.569 -0.1520  0.1481  0.9192
 5780TIP3    H117346   0.485   0.359   4.609  0.5754  0.5075  0.1368
 5780TIP3    H217347   0.573   0.255   4.544  0.0398 -1.6023  2.5970
 5781TIP3   OH217348   2.313   3.003   4.779 -0.8079  0.1651  0.4132
 5781TIP3    H117349   2.387   3.062   4.764 -1.1824  0.1271 -1.8479
 5781TIP3    H217350   2.256   3.051   4.838 -0.0765  1.1644  0.3348
 5782TIP3   OH217351   3.352   5.267   3.349 -0.2012  0.4684  0.1299
 5782TIP3    H117352   3.269   5.223   3.332 -0.3863  0.9358 -0.2018
 5782TIP3    H217353   3.338   5.311   3.433  0.3157 -0.8808  0.9571
 5783TIP3   OH217354   1.437   5.876   0.501  0.3218  0.0872  0.1167
 5783TIP3    H117355   1.360   5.845   0.550  0.7336 -1.4325 -0.1392
 5783TIP3    H217356   1.442   5.969   0.521 -0.9782  0.0016  0.9778
 5784TIP3   OH217357   0.385   1.012   3.873  0.6847 -0.1265  0.2128
 5784TIP3    H117358   0.384   0.982   3.964 -1.3856 -2.5453 -0.4747
 5784TIP3    H217359   0.317   1.080   3.870 -0.5726 -1.3414  0.1673
 5785TIP3   OH217360   3.810   4.279   0.874 -0.0154  0.3484  0.5334
 5785TIP3    H117361   3.832   4.358   0.923 -0.6142  1.2793 -0.6454
 5785TIP3    H217362   3.714   4.282   0.866 -0.1835 -1.1629  1.5338
 5786TIP3   OH217363   4.681   4.589   0.045  0.1395  0.2825 -0.2061
 5786TIP3    H117364   4.617   4.660   0.040  0.8676  0.9021 -0.8745
 5786TIP3    H217365   4.762   4.626   0.011  0.6890 -0.6975 -0.0187
 5787TIP3   OH217366   4.185   5.434   1.026 -0.1269  0.3976 -0.2410
 5787TIP3    H117367   4.195   5.525   0.999  1.3393 -0.3954 -2.5905
 5787TIP3    H217368   4.274   5.401   1.037 -0.5282 -1.3321 -1.6202
 5788TIP3   OH217369   0.626   1.593   3.320 -0.3713 -0.2764 -0.6537
 5788TIP3    H117370   0.713   1.628   3.342 -0.3054 -0.8185 -0.0097
 5788TIP3    H217371   0.577   1.600   3.402 -0.6991 -0.6619 -0.8170
 5789TIP3   OH217372   5.018   3.529   3.300 -0.4048  0.6866 -0.1051
 5789TIP3    H117373   5.109   3.555   3.291 -0.2344 -0.0640 -0.6181
 5789TIP3    H217374   4.987   3.577   3.377  1.0656 -0.7699  1.4904
 5790TIP3   OH217375   0.255   1.852   2.897  0.3694  0.1295 -0.5872
 5790TIP3    H117376   0.208   1.931   2.922 -1.2701 -0.3928 -1.8075
 5790TIP3    H217377   0.298   1.823   2.977 -2.1850  0.1493  0.8939
 5791TIP3   OH217378   6.144   1.434   4.335  0.4263  0.0234 -0.1405
 5791TIP3    H117379   6.204   1.489   4.285  0.6838 -0.3936 -0.2977
 5791TIP3    H217380   6.058   1.455   4.301  0.6951 -1.1653 -1.6824
 5792TIP3   OH217381   1.033   3.042   2.346  0.6784 -0.1206  0.1964
 5792TIP3    H117382   1.115   3.088   2.327  0.0817  1.2038  0.6710
 5792TIP3    H217383   1.019   3.055   2.440 -1.1075  1.5543 -0.2139
 5793TIP3   OH217384   5.286   4.490   0.979  0.1770 -0.1141 -0.0834
 5793TIP3    H117385   5.225   4.553   1.016  0.7596  1.3515 -1.5104
 5793TIP3    H217386   5.233   4.437   0.920  0.4327  2.0759 -2.4262
 5794TIP3   OH217387   5.074   4.447   0.518 -0.2071 -0.3803 -0.0510
 5794TIP3    H117388   5.148   4.485   0.565  1.1397 -1.7426 -0.9841
 5794TIP3    H217389   5.109   4.368   0.477 -0.5397  1.7522 -5.2072
 5795TIP3   OH217390   5.192   2.577   2.183  0.0562 -0.6044 -0.2233
 5795TIP3    H117391   5.237   2.581   2.268 -3.2238  0.6944  1.6596
 5795TIP3    H217392   5.146   2.493   2.185  0.1525 -0.6718 -0.8467
 5796TIP3   OH217393   5.117   0.679   0.160  0.1534 -0.0763  0.9105
 5796TIP3    H117394   5.144   0.701   0.071 -0.0957 -0.4900  0.7315
 5796TIP3    H217395   5.072   0.757   0.191 -0.4101 -0.1986  0.4064
 5797TIP3   OH217396   2.904   1.184   1.190 -0.7818  0.2688  0.2682
 5797TIP3    H117397   2.938   1.095   1.197 -1.3679  0.0751  0.7356
 5797TIP3    H217398   2.919   1.208   1.099 -0.1846 -0.1292  0.2555
 5798TIP3   OH217399   6.039   2.433   2.861  0.3194 -0.1718 -0.1367
 5798TIP3    H117400   5.970   2.446   2.927 -0.2783 -3.7467  0.1417
 5798TIP3    H217401   5.991   2.420   2.779  0.9456  1.6050 -0.8247
 5799TIP3   OH217402   3.130   3.142   1.798 -0.3461  0.4516 -0.0955
 5799TIP3    H117403   3.191   3.073   1.825 -1.7769 -1.5328 -1.6466
 5799TIP3    H217404   3.086   3.168   1.879  0.1327 -0.5614  0.5102
 5800TIP3   OH217405   3.139   4.247   3.145  0.1752 -0.0591 -0.3021
 5800TIP3    H117406   3.095   4.210   3.069  0.1529  0.0679 -0.3517
 5800TIP3    H217407   3.232   4.229   3.129  0.2507  0.6503 -0.7464
 5801TIP3   OH217408   3.441   5.274   5.008 -0.6342  0.4867 -0.1344
 5801TIP3    H117409   3.474   5.362   5.025 -1.3052  0.8574 -0.6682
 5801TIP3    H217410   3.357   5.271   5.055 -0.2378 -0.1564  0.5474
 5802TIP3   OH217411   0.773   4.610   5.151 -0.6120  0.7880 -0.1777
 5802TIP3    H117412   0.747   4.684   5.206  0.5002  0.7588  0.4131
 5802TIP3    H217413   0.809   4.650   5.072  1.0675  0.9454  0.6251
 5803TIP3   OH217414   3.062   5.578   1.423 -0.6267  0.1385  0.2772
 5803TIP3    H117415   3.093   5.557   1.335 -0.4026  2.1840 -0.1723
 5803TIP3    H217416   2.975   5.539   1.428  0.3366 -2.2136  0.1171
 5804TIP3   OH217417   4.446   5.578   3.219 -0.5829 -0.2467  0.3237
 5804TIP3    H117418   4.368   5.616   3.179 -2.1944 -1.0781  2.5058
 5804TIP3    H217419   4.465   5.636   3.293 -1.0426 -1.7609  1.6707
 5805TIP3   OH217420   3.536   4.327   3.781  0.5187  0.9649  0.3953
 5805TIP3    H117421   3.483   4.368   3.712  0.4874  1.1289  0.5147
 5805TIP3    H217422   3.620   4.373   3.777  0.5319  0.9439  0.4392
 5806TIP3   OH217423   0.975   4.100   2.720  0.4057 -0.0649 -0.7577
 5806TIP3    H117424   1.068   4.081   2.727  0.2477 -0.2813  1.5900
 5806TIP3    H217425   0.943   4.039   2.653  1.7557 -0.7291 -0.8348
 5807TIP3   OH217426   2.925   4.132   4.830  0.5505  0.0641  0.2262
 5807TIP3    H117427   2.873   4.211   4.818 -1.9647 -1.5008  0.2726
 5807TIP3    H217428   2.988   4.134   4.758  0.0585  1.7397 -0.1891
 5808TIP3   OH217429   1.974   2.055   4.972 -0.4397 -0.4902 -0.5360
 5808TIP3    H117430   2.048   2.116   4.972  0.3861 -1.4415  1.0961
 5808TIP3    H217431   2.004   1.981   4.920 -0.8199 -0.2542 -1.1060
 5809TIP3   OH217432   1.668   3.714   1.491  0.4636 -0.4283  0.2883
 5809TIP3    H117433   1.627   3.659   1.557  2.3719 -0.9872  1.0926
 5809TIP3    H217434   1.726   3.654   1.443 -0.0914  0.1901 -1.1971
 5810TIP3   OH217435   1.035   1.347   1.583 -0.5472  0.2363  0.2654
 5810TIP3    H117436   1.023   1.295   1.504 -0.4229  1.7016 -0.7702
 5810TIP3    H217437   0.982   1.304   1.649 -1.4056 -0.5035 -0.8684
 5811TIP3   OH217438   1.093   4.424   1.219  0.2203 -0.2062 -0.2195
 5811TIP3    H117439   1.093   4.353   1.154  1.4733 -1.3843  1.0198
 5811TIP3    H217440   1.178   4.418   1.261  0.6550  2.5152 -0.5383
 5812TIP3   OH217441   0.089   2.028   1.269  0.0763  0.2789  0.0728
 5812TIP3    H117442   0.008   2.067   1.302 -0.1288  0.0866 -0.1977
 5812TIP3    H217443   0.067   1.999   1.181  0.5433  0.5441 -0.1346
 5813TIP3   OH217444   4.909   0.354   0.135  0.4028  0.1849 -0.9717
 5813TIP3    H117445   4.850   0.384   0.204  0.2634 -0.6046 -0.7359
 5813TIP3    H217446   4.968   0.293   0.179  0.5068 -0.0931 -1.4872
 5814TIP3   OH217447   2.910   2.284   3.790  0.5115 -0.1356 -0.1981
 5814TIP3    H117448   2.945   2.337   3.861  1.1115 -0.0979 -0.5198
 5814TIP3    H217449   2.979   2.221   3.770  1.0400  0.9015 -1.8612
 5815TIP3   OH217450   1.283   1.680   0.548 -0.2672 -0.2774  0.5276
 5815TIP3    H117451   1.243   1.640   0.625 -0.5252  2.5175  1.9693
 5815TIP3    H217452   1.212   1.686   0.485 -0.8318  0.0875  1.1854
 5816TIP3   OH217453   1.202   0.666   2.687  0.8736 -0.3035 -0.1240
 5816TIP3    H117454   1.191   0.702   2.599  0.5984  0.5721  0.2664
 5816TIP3    H217455   1.182   0.573   2.677 -1.8617  0.2641 -0.4572
 5817TIP3   OH217456   4.798   3.989   3.084 -0.0673 -0.2588 -0.4984
 5817TIP3    H117457   4.790   3.941   3.001 -0.0683 -0.1880 -0.5390
 5817TIP3    H217458   4.863   3.941   3.134  0.1648 -0.1188 -0.6664
 5818TIP3   OH217459   0.558   0.169   3.986  0.1968  0.3818  0.5004
 5818TIP3    H117460   0.475   0.168   3.939  0.5159  2.6226 -0.2172
 5818TIP3    H217461   0.534   0.170   4.078 -0.5197 -0.3685  0.3313
 5819TIP3   OH217462   3.259   0.217   4.323 -0.0007 -0.0428  0.2911
 5819TIP3    H117463   3.244   0.310   4.340  0.1067  0.0550 -0.1454
 5819TIP3    H217464   3.178   0.186   4.282 -0.0898 -0.1766  0.5633
 5820TIP3   OH217465   1.988   1.943   0.005 -0.1295 -0.3121  0.1432
 5820TIP3    H117466   1.988   1.847   0.004  2.3257 -0.3931  1.5257
 5820TIP3    H217467   1.904   1.966   0.045 -0.8978 -1.8437 -0.4764
 5821TIP3   OH217468   2.507   4.227   3.320  0.2563 -0.0119  0.2824
 5821TIP3    H117469   2.512   4.158   3.386  0.0119  1.0286  1.4433
 5821TIP3    H217470   2.547   4.303   3.362 -1.9872  1.3492  0.1659
 5822TIP3   OH217471   1.113   4.231   0.067 -0.0126 -0.2153 -0.3851
 5822TIP3    H117472   1.189   4.237   0.010  0.5343 -0.2285  0.3236
 5822TIP3    H217473   1.069   4.150   0.040  0.2294 -0.2140 -0.7889
 5823TIP3   OH217474   5.040   4.830   4.511  0.6203 -0.0214 -0.0903
 5823TIP3    H117475   4.958   4.791   4.537  0.8068 -0.4544 -0.1514
 5823TIP3    H217476   5.026   4.925   4.519  0.4745 -0.1295  0.9446
 5824TIP3   OH217477   4.819   4.158   0.211  0.2796 -0.4579 -0.6053
 5824TIP3    H117478   4.741   4.109   0.184 -0.3858  0.1192  0.2341
 5824TIP3    H217479   4.867   4.097   0.268  0.2343 -0.6637 -0.7839
 5825TIP3   OH217480   4.106   3.367   4.164  0.4159  0.6728 -0.4584
 5825TIP3    H117481   4.011   3.365   4.165  0.3743 -2.0696 -1.3185
 5825TIP3    H217482   4.132   3.345   4.254  0.2152  0.3859 -0.4698
 5826TIP3   OH217483   0.561   1.983   4.106  0.3520 -0.1810  0.0477
 5826TIP3    H117484   0.653   1.971   4.082  0.4561  1.6693 -0.6991
 5826TIP3    H217485   0.564   2.047   4.178 -0.3338 -0.4651  0.3349
 5827TIP3   OH217486   2.320   1.174   5.045  0.0225  0.5668 -0.1909
 5827TIP3    H117487   2.237   1.151   5.088 -0.5954  0.5268 -1.3753
 5827TIP3    H217488   2.338   1.263   5.074  0.8671 -0.2451  2.0291
 5828TIP3   OH217489   0.848   3.397   1.536  0.5939  0.6977  0.8679
 5828TIP3    H117490   0.819   3.327   1.595 -0.7758  1.0328  0.6185
 5828TIP3    H217491   0.828   3.478   1.583 -0.5730  0.9708 -0.0616
 5829TIP3   OH217492   4.114   2.756   3.729  0.2498  0.6277 -0.1124
 5829TIP3    H117493   4.061   2.836   3.734 -0.2431  0.2361  1.3838
 5829TIP3    H217494   4.204   2.785   3.741  0.0047  0.8940  1.1741
 5830TIP3   OH217495   2.484   1.462   1.083  0.5297  0.0612  0.2069
 5830TIP3    H117496   2.441   1.381   1.110 -0.8713  0.9756  0.8372
 5830TIP3    H217497   2.574   1.453   1.114  0.1107 -0.7947  1.2525
 5831TIP3   OH217498   5.506   4.024   1.095 -0.0103 -0.3540  0.3197
 5831TIP3    H117499   5.503   3.933   1.064 -2.6269 -0.3523  0.3295
 5831TIP3    H217500   5.414   4.047   1.109  0.3803  2.8686 -1.3960
 5832TIP3   OH217501   4.839   0.342   2.234  0.4977  0.4990  0.3108
 5832TIP3    H117502   4.800   0.427   2.214 -0.6583 -0.3033 -1.0010
 5832TIP3    H217503   4.863   0.306   2.149  0.5263 -0.6979  0.8048
 5833TIP3   OH217504  -0.028   0.551   2.873  0.2901 -0.5908 -0.1297
 5833TIP3    H117505   0.003   0.503   2.950 -0.0106  1.8015  1.6255
 5833TIP3    H217506   0.052   0.577   2.827  0.5600 -0.7461  0.2439
 5834TIP3   OH217507   3.266   1.513   4.951  0.8133 -0.1091 -0.2543
 5834TIP3    H117508   3.343   1.487   4.901  1.0271 -1.1502  0.5894
 5834TIP3    H217509   3.196   1.518   4.886  0.9585 -1.9647 -0.6137
 5835TIP3   OH217510   0.388   3.288   1.133  0.0941 -0.4846  0.2043
 5835TIP3    H117511   0.413   3.196   1.137  1.6526 -0.1727 -1.0907
 5835TIP3    H217512   0.451   3.332   1.190  0.6536 -0.0196 -0.7443
 5836TIP3   OH217513   0.011   3.712   1.815  0.6467  0.0343 -0.0370
 5836TIP3    H117514   0.106   3.720   1.810  0.6356  0.1312 -0.0801
 5836TIP3    H217515  -0.004   3.618   1.826  0.8430  0.1711  1.8863
 5837TIP3   OH217516   0.669   2.188   5.123 -0.4336 -0.0184 -0.2188
 5837TIP3    H117517   0.698   2.214   5.035  0.6741 -0.3358  0.0277
 5837TIP3    H217518   0.683   2.265   5.177  0.9454 -0.4609  0.1011
 5838TIP3   OH217519   2.321   3.067   3.036  0.0026  0.0532  0.3587
 5838TIP3    H117520   2.229   3.046   3.017 -0.1375  0.5965  0.4073
 5838TIP3    H217521   2.366   2.983   3.036 -0.4151 -0.1694 -0.1078
 5839TIP3   OH217522   0.616   4.666   1.960 -0.0960 -0.1881 -0.3347
 5839TIP3    H117523   0.639   4.583   1.919  1.6545 -0.5381  1.2004
 5839TIP3    H217524   0.593   4.723   1.888 -1.6553 -2.0651 -1.4140
 5840TIP3   OH217525   0.033   0.408   1.666  0.2720  0.3414 -0.0131
 5840TIP3    H117526   0.047   0.419   1.760 -0.3095  0.7248  0.0330
 5840TIP3    H217527   0.117   0.377   1.632  0.9833  1.7504  0.3804
 5841TIP3   OH217528   2.917   2.177   3.363  0.1332 -0.4069  0.0577
 5841TIP3    H117529   2.899   2.114   3.294  0.5493  1.2461 -1.6487
 5841TIP3    H217530   3.010   2.199   3.352  0.4125 -0.6720  1.6585
 5842TIP3   OH217531   3.839   0.842   4.951 -0.7926  0.2915 -0.5054
 5842TIP3    H117532   3.781   0.773   4.919 -2.0959  0.9408  0.3904
 5842TIP3    H217533   3.866   0.814   5.038  1.1446 -0.5069 -1.2945
 5843TIP3   OH217534   1.498   3.868   4.826 -0.1378  0.1512  1.1844
 5843TIP3    H117535   1.585   3.859   4.787 -1.3059  1.7299 -2.1692
 5843TIP3    H217536   1.465   3.778   4.831  1.0540 -0.3254  0.9359
 5844TIP3   OH217537   2.099   0.587   1.596 -0.3458 -0.0506 -0.3000
 5844TIP3    H117538   2.124   0.506   1.639 -0.5054 -0.4691 -0.9830
 5844TIP3    H217539   2.182   0.624   1.564 -0.0445  0.9518  1.4953
 5845TIP3   OH217540   5.533   1.560   2.847 -0.3629  0.1169 -0.2445
 5845TIP3    H117541   5.523   1.531   2.756 -0.3018 -0.2640 -0.1277
 5845TIP3    H217542   5.470   1.509   2.896 -0.0788  0.0002 -0.0001
 5846TIP3   OH217543   6.073   4.719   0.793 -0.1346  0.5230 -0.0065
 5846TIP3    H117544   6.044   4.643   0.844 -0.4135 -0.7235 -1.9279
 5846TIP3    H217545   6.168   4.716   0.798 -0.1530  0.2811  0.2470
 5847TIP3   OH217546   2.795   4.438   4.099  0.5468  0.0110 -0.0812
 5847TIP3    H117547   2.793   4.478   4.013  0.2524  3.2186  1.2830
 5847TIP3    H217548   2.712   4.391   4.106  0.2201  0.3908 -1.2166
 5848TIP3   OH217549   5.089   1.361   1.065 -0.4643  0.6503 -0.0516
 5848TIP3    H117550   5.139   1.420   1.009  0.0864  0.0623 -0.1894
 5848TIP3    H217551   5.112   1.273   1.034 -0.4492  0.3260  0.8445
 5849TIP3   OH217552   0.618   0.979   3.717  0.0593  0.3203 -0.3533
 5849TIP3    H117553   0.537   1.009   3.759  1.0579  0.3020  1.7041
 5849TIP3    H217554   0.621   0.886   3.736  0.3654  0.2359 -0.8072
 5850TIP3   OH217555   5.726   3.594   4.299 -0.8831 -0.3423 -0.0075
 5850TIP3    H117556   5.654   3.581   4.360 -0.7527 -0.0615  0.2084
 5850TIP3    H217557   5.761   3.506   4.285 -1.4656 -0.5236 -0.3633
 5851TIP3   OH217558   5.323   0.984   5.060 -0.5228  0.3381 -0.0280
 5851TIP3    H117559   5.250   1.027   5.016  0.4294  0.8634 -1.1692
 5851TIP3    H217560   5.283   0.927   5.124 -1.9015  1.3289  0.0290
 5852TIP3   OH217561   5.907   3.911   3.805 -0.0404 -0.2649 -0.0382
 5852TIP3    H117562   5.990   3.875   3.835  0.4637  0.7444 -0.1977
 5852TIP3    H217563   5.842   3.877   3.868  0.6383 -0.1814  0.7191
 5853TIP3   OH217564   2.214   5.792   4.576  0.0593  0.0356  0.9643
 5853TIP3    H117565   2.281   5.730   4.605  0.9195  0.7229  0.4686
 5853TIP3    H217566   2.142   5.779   4.638 -0.1540 -2.0657  0.3659
 5854TIP3   OH217567   2.256   5.845   0.459 -0.4658 -0.2589  0.3110
 5854TIP3    H117568   2.219   5.782   0.398  0.7996  1.1786 -2.0511
 5854TIP3    H217569   2.198   5.921   0.453  2.0871  1.6764 -2.7702
 5855TIP3   OH217570   0.443   2.891   4.514 -0.2866 -0.3757 -0.4866
 5855TIP3    H117571   0.446   2.961   4.580 -3.0629  0.2720 -0.9270
 5855TIP3    H217572   0.507   2.827   4.544  0.3557  1.0781  1.4461
 5856TIP3   OH217573   2.209   2.064   0.182 -0.2724  0.5305  0.0662
 5856TIP3    H117574   2.143   2.082   0.114 -2.3718 -0.3885  1.7615
 5856TIP3    H217575   2.198   1.972   0.203  0.6551  0.6825  1.3426
 5857TIP3   OH217576   4.318   5.076   1.438  0.1188  0.6061 -0.0340
 5857TIP3    H117577   4.382   5.100   1.505  3.1401 -1.6678 -1.8397
 5857TIP3    H217578   4.300   4.983   1.455 -1.8728  0.9169 -0.2746
 5858TIP3   OH217579   1.037   2.867   3.456  0.0535 -0.0582  0.5132
 5858TIP3    H117580   1.089   2.898   3.530  0.3944 -0.4597  0.4384
 5858TIP3    H217581   1.100   2.855   3.385 -0.2854  0.4249  0.1181
 5859TIP3   OH217582   6.159   5.724   5.152 -0.3246 -0.5657  0.3868
 5859TIP3    H117583   6.214   5.655   5.113 -0.4054 -0.1822 -0.4298
 5859TIP3    H217584   6.080   5.724   5.099  0.4968  1.5071 -0.9554
 5860TIP3   OH217585   3.749   5.559   2.995  0.2144 -0.7439  0.0825
 5860TIP3    H117586   3.722   5.537   3.084 -1.5274 -0.2952 -0.2831
 5860TIP3    H217587   3.844   5.564   2.999  0.2069 -1.2239  1.7937
 5861TIP3   OH217588   3.396   2.033   1.516  0.4967 -0.1940  0.5227
 5861TIP3    H117589   3.475   2.081   1.540 -0.0423  0.2178  1.4815
 5861TIP3    H217590   3.356   2.007   1.599 -1.4276  1.3006  0.1317
 5862TIP3   OH217591   2.655   1.167   0.904  0.3181  0.3201  0.2200
 5862TIP3    H117592   2.656   1.071   0.893  1.0173  0.3086  0.3393
 5862TIP3    H217593   2.739   1.187   0.946  0.0624  0.9617  0.4340
 5863TIP3   OH217594   0.766   3.528   3.694  0.3551 -0.1643  0.1281
 5863TIP3    H117595   0.788   3.602   3.638  4.6118 -1.5585 -0.3614
 5863TIP3    H217596   0.701   3.478   3.644  1.1621  0.6350 -1.7992
 5864TIP3   OH217597   1.264   0.054   1.908  0.2725 -0.2891 -0.2562
 5864TIP3    H117598   1.329   0.121   1.886 -0.1212  0.2224  0.1214
 5864TIP3    H217599   1.311  -0.029   1.897  0.4397 -0.0145 -1.8594
 5865TIP3   OH217600   3.528   5.020   3.323  0.4379  0.2467 -0.2024
 5865TIP3    H117601   3.606   4.967   3.337  0.5583  0.3739 -0.3876
 5865TIP3    H217602   3.484   4.978   3.249 -0.6019 -0.8923  1.0170
 5866TIP3   OH217603   2.938   1.256   0.929 -0.0477  0.0900 -0.3884
 5866TIP3    H117604   2.931   1.333   0.873 -0.9758  0.7662  0.6009
 5866TIP3    H217605   3.029   1.228   0.922  0.4999  1.7298 -0.2016
 5867TIP3   OH217606   5.212   2.274   2.967  0.1342  0.3601 -0.2387
 5867TIP3    H117607   5.151   2.328   2.916 -0.3725 -0.9814 -1.0913
 5867TIP3    H217608   5.160   2.198   2.992  0.2675  1.0864  2.5824
 5868TIP3   OH217609   1.692   1.451   2.419  0.7398 -1.0872 -0.6735
 5868TIP3    H117610   1.626   1.408   2.364  0.0367  0.1045 -0.7931
 5868TIP3    H217611   1.653   1.535   2.442  1.0740 -1.4837  1.5308
 5869TIP3   OH217612   5.910   3.364   0.180  0.2716 -0.1666  0.1687
 5869TIP3    H117613   5.976   3.304   0.215 -0.7870 -1.4072  0.1559
 5869TIP3    H217614   5.900   3.338   0.088  0.1991  0.4014  0.0144
 5870TIP3   OH217615   1.141   4.325   5.076 -0.1440  0.5223 -0.2924
 5870TIP3    H117616   1.201   4.353   5.145  1.1116 -0.6074 -0.8902
 5870TIP3    H217617   1.188   4.342   4.994 -0.7243 -0.1712 -0.7848
 5871TIP3   OH217618   3.013   2.949   1.639  0.1498 -0.2700 -0.8241
 5871TIP3    H117619   3.042   3.037   1.666 -0.6638 -0.5328  1.1039
 5871TIP3    H217620   2.943   2.965   1.577  0.5677  0.4338 -1.1322
 5872TIP3   OH217621   0.132   5.267   4.572  0.1250 -0.0086 -0.0927
 5872TIP3    H117622   0.072   5.205   4.531 -0.0774 -0.2754  0.5860
 5872TIP3    H217623   0.140   5.236   4.662  0.1993  0.8148  0.1963
 5873TIP3   OH217624   3.639   4.917   5.099 -0.1294  0.1752 -0.2603
 5873TIP3    H117625   3.670   4.864   5.025  0.2639  1.3043 -0.9254
 5873TIP3    H217626   3.629   5.005   5.063 -1.7459  0.3600  0.5684
 5874TIP3   OH217627   0.236   2.371   0.126  0.2971 -0.1805  0.2517
 5874TIP3    H117628   0.235   2.308   0.198  0.2846 -0.2126  0.2236
 5874TIP3    H217629   0.221   2.318   0.048 -0.9709 -0.0007  0.3448
 5875TIP3   OH217630   1.158   0.658   4.568 -0.5702  0.0565 -0.1108
 5875TIP3    H117631   1.129   0.568   4.574 -0.8377 -0.1928 -3.3157
 5875TIP3    H217632   1.169   0.686   4.659 -0.5695 -3.1212  0.9921
 5876TIP3   OH217633   5.198   5.210   0.809 -0.1821 -0.1825  0.6214
 5876TIP3    H117634   5.276   5.170   0.770  0.5661  0.0686  1.8215
 5876TIP3    H217635   5.126   5.155   0.778  0.5210 -0.7519 -0.0603
 5877TIP3   OH217636   6.154   3.891   2.802 -0.2533 -0.1887 -0.8002
 5877TIP3    H117637   6.195   3.937   2.729  0.3349 -0.6017 -0.7423
 5877TIP3    H217638   6.179   3.942   2.880 -0.2418 -0.1773 -0.8116
 5878TIP3   OH217639   4.305   0.840   0.590  0.7416 -0.0057 -0.2738
 5878TIP3    H117640   4.392   0.881   0.596 -0.6123  3.0996  0.0999
 5878TIP3    H217641   4.249   0.909   0.554 -1.9350 -1.2799  1.2004
 5879TIP3   OH217642   5.479   3.775   0.946  0.5620  0.4221 -0.8664
 5879TIP3    H117643   5.408   3.716   0.919  0.5890 -0.6511  1.1803
 5879TIP3    H217644   5.491   3.834   0.872 -1.0864 -0.6616 -2.0672
 5880TIP3   OH217645   3.452   2.247   2.053  0.4939 -0.0777 -0.3519
 5880TIP3    H117646   3.543   2.238   2.081  0.4794  1.1719  0.1751
 5880TIP3    H217647   3.411   2.298   2.123 -0.1036  1.1573 -1.5576
 5881TIP3   OH217648   6.018   5.758   2.505  0.1309  0.2572  0.4434
 5881TIP3    H117649   6.025   5.819   2.431  0.9838  0.9546  1.0923
 5881TIP3    H217650   5.974   5.808   2.574  0.4117 -0.0158  0.8231
 5882TIP3   OH217651   2.097   2.582   4.655 -0.3533 -0.0121  0.1126
 5882TIP3    H117652   2.046   2.663   4.645  1.0620  1.0818  1.2024
 5882TIP3    H217653   2.162   2.586   4.585 -0.1063 -0.0484  0.3362
 5883TIP3   OH217654   4.802   4.472   4.939  0.1138  0.5548 -0.1481
 5883TIP3    H117655   4.726   4.433   4.983  1.1723  1.1221  2.3241
 5883TIP3    H217656   4.873   4.410   4.953  0.7846  1.3564  0.0761
 5884TIP3   OH217657   4.466   2.296   3.451 -0.0694  0.6490  0.2438
 5884TIP3    H117658   4.520   2.292   3.530  0.5683  1.8524 -0.1011
 5884TIP3    H217659   4.377   2.308   3.483  0.1935  1.2025  0.7834
 5885TIP3   OH217660   2.581   4.839   2.738 -0.0932  0.3978 -0.1286
 5885TIP3    H117661   2.659   4.797   2.776 -0.8090 -0.1154  0.8326
 5885TIP3    H217662   2.517   4.838   2.809 -0.6211  1.8307 -0.5546
 5886TIP3   OH217663   2.661   5.227   5.096 -0.0830 -0.2313 -0.4090
 5886TIP3    H117664   2.596   5.165   5.062  0.6658 -0.3922 -1.5596
 5886TIP3    H217665   2.650   5.305   5.043  0.6510 -0.2542 -0.6011
 5887TIP3   OH217666   4.730   5.299   1.206  0.1260 -0.4051 -0.3713
 5887TIP3    H117667   4.808   5.244   1.203 -0.5326 -1.3333 -1.0907
 5887TIP3    H217668   4.706   5.311   1.114 -0.6992 -0.3301 -0.1530
 5888TIP3   OH217669   1.258   0.452   2.160  0.0177 -0.2865 -0.5589
 5888TIP3    H117670   1.252   0.472   2.067  2.1436 -0.2077 -0.7353
 5888TIP3    H217671   1.180   0.399   2.179  0.0218 -1.1030 -2.6049
 5889TIP3   OH217672   5.378   1.002   4.258  0.2467  0.0877 -0.1935
 5889TIP3    H117673   5.337   0.917   4.277 -1.6202  0.8904 -0.3919
 5889TIP3    H217674   5.360   1.055   4.335  1.4551  0.3104 -0.0526
 5890TIP3   OH217675   5.902   3.253   0.812  0.3290 -0.0410  0.5074
 5890TIP3    H117676   5.896   3.283   0.721  0.3085 -1.9913 -0.1851
 5890TIP3    H217677   5.991   3.275   0.839  1.3302 -1.9714 -0.9949
 5891TIP3   OH217678   2.999   4.799   2.638 -0.0949 -0.2528 -0.7781
 5891TIP3    H117679   3.092   4.790   2.617  0.7895  1.0396  2.1322
 5891TIP3    H217680   2.987   4.749   2.718 -1.9326 -0.3477 -1.0698
 5892TIP3   OH217681   1.692   3.269   0.954 -0.0694  0.0430  0.4283
 5892TIP3    H117682   1.749   3.215   0.899 -0.4611 -0.9273  0.9396
 5892TIP3    H217683   1.607   3.267   0.909 -0.3718 -0.6966  1.0182
 5893TIP3   OH217684   5.083   0.281   3.303 -0.4025  0.5351 -0.0804
 5893TIP3    H117685   5.169   0.315   3.329  0.2684 -0.5498 -0.7973
 5893TIP3    H217686   5.103   0.202   3.253 -1.8741 -0.4749  0.8657
 5894TIP3   OH217687   3.699   2.715   1.776  0.3111  0.3430  0.3950
 5894TIP3    H117688   3.680   2.716   1.682 -1.7464  0.1356  0.7546
 5894TIP3    H217689   3.720   2.806   1.797 -0.4859  0.6466 -0.0635
 5895TIP3   OH217690   1.998   3.714   3.066  0.2080 -0.1004 -0.8543
 5895TIP3    H117691   1.910   3.746   3.050  0.7649  0.8825 -2.1467
 5895TIP3    H217692   2.038   3.781   3.122  0.4797  0.0327 -1.2029
 5896TIP3   OH217693   5.870   1.140   0.350  0.2759  0.2377 -0.2607
 5896TIP3    H117694   5.783   1.179   0.344  0.6287  1.0043 -0.5739
 5896TIP3    H217695   5.873   1.101   0.437 -0.2364  0.5691 -0.0895
 5897TIP3   OH217696   0.377   2.699   2.800  0.4036 -0.4513  0.4279
 5897TIP3    H117697   0.452   2.738   2.843  0.7164  0.1697 -0.6381
 5897TIP3    H217698   0.319   2.773   2.780 -0.4566 -0.9084  1.1586
 5898TIP3   OH217699   5.515   3.974   0.773 -0.2363  0.2628  0.0977
 5898TIP3    H117700   5.569   3.987   0.695 -0.8620  0.9833 -0.2276
 5898TIP3    H217701   5.542   4.044   0.832 -1.0919  0.9009 -0.2371
 5899TIP3   OH217702   2.045   0.873   3.095  0.3631  0.5010  0.0025
 5899TIP3    H117703   2.117   0.932   3.071 -0.4637  1.2531 -0.6728
 5899TIP3    H217704   1.969   0.906   3.047 -0.3445 -0.5457  0.3623
 5900TIP3   OH217705   5.975   3.084   1.931  0.1805 -0.1621  0.3530
 5900TIP3    H117706   5.902   3.086   1.869  0.3810 -0.2559  0.1128
 5900TIP3    H217707   5.933   3.086   2.017 -0.1657 -1.4381  0.2356
 5901TIP3   OH217708   1.068   0.150   3.842  0.2645 -0.0882 -0.1286
 5901TIP3    H117709   1.030   0.099   3.913 -0.3722  1.7369  0.9009
 5901TIP3    H217710   1.147   0.189   3.879 -0.2535  1.1556 -0.2769
 5902TIP3   OH217711   1.432   2.131   2.056  0.3886 -0.1955 -0.3403
 5902TIP3    H117712   1.435   2.173   1.970  0.6687 -1.1600 -0.8143
 5902TIP3    H217713   1.355   2.074   2.052 -0.3003  0.6422  0.4842
 5903TIP3   OH217714   1.241   4.372   1.628 -0.1238  0.0777  0.2359
 5903TIP3    H117715   1.148   4.355   1.620 -0.0706  0.4437 -1.3275
 5903TIP3    H217716   1.271   4.310   1.695 -1.2952 -0.7111  0.0558
 5904TIP3   OH217717   1.275   2.648   0.891 -0.6372  0.2024  0.0319
 5904TIP3    H117718   1.312   2.671   0.977 -2.8410  1.4715  0.7211
 5904TIP3    H217719   1.184   2.626   0.909 -0.8572 -0.6631 -1.8692
 5905TIP3   OH217720   6.277   2.520   2.740 -0.3865  0.0017 -0.4447
 5905TIP3    H117721   6.207   2.480   2.791 -0.1948 -0.8579 -0.8252
 5905TIP3    H217722   6.357   2.478   2.772  0.3165  2.7395  1.7379
 5906TIP3   OH217723   2.164   1.468   1.002 -0.0002 -0.6989 -0.4528
 5906TIP3    H117724   2.222   1.393   0.990 -0.7095 -1.5326  1.0626
 5906TIP3    H217725   2.204   1.517   1.075  0.0873  0.0456 -0.9885
 5907TIP3   OH217726   5.649   0.209   4.948  0.4887 -0.1038  0.1895
 5907TIP3    H117727   5.587   0.278   4.923  0.4000  0.5741  2.0971
 5907TIP3    H217728   5.727   0.256   4.976  1.3463 -0.9056 -0.7668
 5908TIP3   OH217729   5.090   1.072   4.202 -0.3017  0.3493 -0.3838
 5908TIP3    H117730   5.167   1.016   4.188  1.2716  2.1509  0.6073
 5908TIP3    H217731   5.033   1.019   4.258  0.2789 -0.9532 -0.9738
 5909TIP3   OH217732   1.680   1.300   1.803  0.2964  0.4471 -0.2155
 5909TIP3    H117733   1.714   1.291   1.714  1.2029  0.1199  0.1490
 5909TIP3    H217734   1.647   1.213   1.826 -0.0349  0.5577 -0.2694
 5910TIP3   OH217735   1.162   5.360   4.914  0.1149  0.0571  0.0264
 5910TIP3    H117736   1.227   5.337   4.848 -0.7198 -1.3154 -0.3446
 5910TIP3    H217737   1.189   5.311   4.992 -1.0067 -1.3238 -0.4210
 5911TIP3   OH217738   3.098   4.620   2.322  0.2874  0.2901  0.1924
 5911TIP3    H117739   3.173   4.630   2.264 -2.0605  0.0585 -3.1617
 5911TIP3    H217740   3.048   4.701   2.310 -1.7346 -0.9771 -0.4994
 5912TIP3   OH217741   3.561   0.978   4.149 -0.1122 -0.3448  0.2695
 5912TIP3    H117742   3.599   0.959   4.063 -1.1074 -1.9309  0.1416
 5912TIP3    H217743   3.475   0.936   4.147 -0.8577  1.0503  1.4425
 5913TIP3   OH217744   4.987   5.084   1.240 -0.1501  0.0444 -0.1756
 5913TIP3    H117745   5.077   5.052   1.242 -0.4089 -0.6769  1.3930
 5913TIP3    H217746   4.970   5.102   1.147  0.9168 -1.7877 -0.7888
 5914TIP3   OH217747   0.334   3.776   4.275 -0.2434  0.8695  0.2344
 5914TIP3    H117748   0.358   3.748   4.363  2.2669  1.4571 -0.1803
 5914TIP3    H217749   0.341   3.871   4.277  0.1196  0.8749 -0.6485
 5915TIP3   OH217750   5.599   3.110   0.045  0.2991 -0.7062  0.1160
 5915TIP3    H117751   5.549   3.144   0.120  0.8501 -2.2187  1.2196
 5915TIP3    H217752   5.571   3.020   0.036  1.5638 -1.0761 -0.3356
 5916TIP3   OH217753   0.218   1.319   2.356 -0.1617  0.2740  0.2882
 5916TIP3    H117754   0.202   1.338   2.264  1.4661  0.9463  0.1052
 5916TIP3    H217755   0.313   1.331   2.367 -0.4362  1.0928  2.2433
 5917TIP3   OH217756   5.563   1.410   2.184 -0.1257 -0.2899  0.5735
 5917TIP3    H117757   5.548   1.470   2.111  1.9319  0.1724  0.4651
 5917TIP3    H217758   5.514   1.449   2.257  0.2044  0.8731  0.1967
 5918TIP3   OH217759   1.927   3.882   1.574 -0.1238 -0.0081 -0.5850
 5918TIP3    H117760   2.008   3.933   1.582  0.2913 -0.6371 -0.6744
 5918TIP3    H217761   1.883   3.918   1.497  1.0479 -0.9663 -1.7559
 5919TIP3   OH217762   2.041   5.079   1.397 -0.0456  0.1118 -0.4357
 5919TIP3    H117763   2.038   4.996   1.445 -0.3064  0.9099  0.9645
 5919TIP3    H217764   1.950   5.095   1.372 -0.5354  1.4326  1.9296
 5920TIP3   OH217765   3.686   2.015   4.125  0.1616  0.1993  0.7255
 5920TIP3    H117766   3.781   2.024   4.116  0.5100  0.3515  3.5959
 5920TIP3    H217767   3.670   1.922   4.107  1.2543 -0.3750  2.4073
 5921TIP3   OH217768   3.593   2.961   4.382 -0.0385 -0.2040 -0.0822
 5921TIP3    H117769   3.620   3.046   4.418 -1.2517 -0.2365  0.9908
 5921TIP3    H217770   3.545   2.919   4.454 -2.1514 -0.4903 -1.5813
 5922TIP3   OH217771   1.220   2.374   2.706  0.3420 -0.2698  0.2733
 5922TIP3    H117772   1.219   2.284   2.674  0.9567 -0.6006  1.1346
 5922TIP3    H217773   1.135   2.410   2.680  0.9640 -0.3444 -2.1070
 5923TIP3   OH217774   0.568   0.680   1.031  0.5164  0.1478  0.2562
 5923TIP3    H117775   0.489   0.705   0.983  1.1067  0.5700 -0.5156
 5923TIP3    H217776   0.634   0.665   0.963  1.4249  0.9489  0.9380
 5924TIP3   OH217777   0.161   1.992   4.374  0.6360  0.0717  0.7199
 5924TIP3    H117778   0.197   1.934   4.441 -2.2319  0.0820  2.4075
 5924TIP3    H217779   0.140   1.934   4.301 -0.9012 -0.8510  1.8437
 5925TIP3   OH217780   0.723   2.321   3.913 -0.0518  0.0120  0.1289
 5925TIP3    H117781   0.780   2.283   3.980  1.2800  0.2254 -0.8160
 5925TIP3    H217782   0.732   2.415   3.924 -0.1897  0.0463 -0.0444
 5926TIP3   OH217783   6.251   5.434   1.562  0.0899 -0.1822  0.0796
 5926TIP3    H117784   6.235   5.424   1.656  0.5047  0.9452  0.2794
 5926TIP3    H217785   6.164   5.452   1.525  0.1283  0.8503  0.4634
 5927TIP3   OH217786   1.400   5.211   3.030 -0.0478  0.1722  0.0924
 5927TIP3    H117787   1.342   5.154   3.081  0.2854 -0.5551 -0.3268
 5927TIP3    H217788   1.350   5.292   3.020 -0.6889 -0.1751  0.3687
 5928TIP3   OH217789   4.016   5.485   3.957  0.0261 -0.2816  0.2202
 5928TIP3    H117790   4.009   5.550   3.887  0.6648  0.9976  1.3063
 5928TIP3    H217791   3.940   5.501   4.012  0.0327 -0.6524  0.3399
 5929TIP3   OH217792   0.746   3.443   2.726 -0.1488  0.3865 -0.4030
 5929TIP3    H117793   0.732   3.536   2.741  2.3864  0.7684  0.1697
 5929TIP3    H217794   0.782   3.411   2.809  1.1539 -0.5640 -1.2838
 5930TIP3   OH217795   4.662   1.800   4.986  0.1530 -0.1954  0.2757
 5930TIP3    H117796   4.628   1.860   5.053  1.5004 -0.3610  1.1333
 5930TIP3    H217797   4.757   1.809   4.992  0.3239 -1.1464 -0.7715
 5931TIP3   OH217798   0.413   4.019   4.117  0.0717  0.2484 -0.7331
 5931TIP3    H117799   0.471   3.986   4.048  0.2922 -0.2150 -0.3328
 5931TIP3    H217800   0.326   4.019   4.077  0.2449  0.2946 -1.1160
 5932TIP3   OH217801   4.733   4.805   3.951 -0.0422 -0.2419  0.4359
 5932TIP3    H117802   4.648   4.763   3.959 -0.6492  0.9968  0.8483
 5932TIP3    H217803   4.764   4.781   3.864 -0.2323 -1.7206  0.7571
 5933TIP3   OH217804   2.475   1.650   0.574  0.2465 -0.0987 -0.2043
 5933TIP3    H117805   2.484   1.724   0.635 -0.4588  1.1603 -1.5500
 5933TIP3    H217806   2.501   1.574   0.625 -2.5937  0.4963  2.4843
 5934TIP3   OH217807   3.036   3.109   4.263  0.3206 -0.3279 -0.0161
 5934TIP3    H117808   3.019   3.202   4.276  1.3973 -0.0610 -0.4016
 5934TIP3    H217809   2.951   3.067   4.274 -0.9418  1.0526 -3.1646
 5935TIP3   OH217810   4.940   1.765   0.628 -0.1624  0.1950 -0.1217
 5935TIP3    H117811   4.967   1.854   0.605  2.2479 -0.5313 -0.3610
 5935TIP3    H217812   4.982   1.710   0.562 -0.5566 -1.2159  0.7807
 5936TIP3   OH217813   0.598   4.798   3.487 -0.0506  0.3841  0.2063
 5936TIP3    H117814   0.667   4.802   3.553  0.3274  0.6823 -0.2092
 5936TIP3    H217815   0.620   4.867   3.424  0.1230 -0.5137 -0.7500
 5937TIP3   OH217816   5.888   0.034   2.713  0.5366 -0.4655  0.1383
 5937TIP3    H117817   5.877   0.062   2.804  1.0098 -0.2625  0.1375
 5937TIP3    H217818   5.959   0.088   2.681  0.3830 -0.5522 -0.3506
 5938TIP3   OH217819   5.203   1.336   4.851  0.0311 -0.2401  0.1465
 5938TIP3    H117820   5.258   1.322   4.775 -0.3073 -3.3819  0.3717
 5938TIP3    H217821   5.239   1.414   4.893  0.1625  1.6845 -3.1933
 5939TIP3   OH217822   4.798   3.561   1.216  0.7149 -0.1220  0.1763
 5939TIP3    H117823   4.788   3.506   1.138 -0.9130  0.8645 -0.3610
 5939TIP3    H217824   4.712   3.559   1.258  1.3160  0.1046  1.4652
 5940TIP3   OH217825   1.701   5.841   0.417  0.2909  0.5354 -0.2878
 5940TIP3    H117826   1.625   5.839   0.474  1.6569  0.3555  1.6282
 5940TIP3    H217827   1.718   5.749   0.396  0.0710  0.5624 -0.5808
 5941TIP3   OH217828   2.360   2.931   4.150 -0.1852  0.1439  0.0603
 5941TIP3    H117829   2.369   2.868   4.078 -1.6555 -0.8876  0.7362
 5941TIP3    H217830   2.429   2.906   4.212 -1.6144 -1.7658  0.9704
 5942TIP3   OH217831   5.008   2.421   2.811 -0.2399  0.0601  0.6239
 5942TIP3    H117832   5.004   2.509   2.776  0.5908 -0.1744 -0.0789
 5942TIP3    H217833   5.032   2.366   2.737 -2.0036 -0.9494  0.7435
 5943TIP3   OH217834   5.852   1.329   1.276 -0.1217 -0.3198 -0.7816
 5943TIP3    H117835   5.917   1.259   1.273  0.8234  0.4676  0.4316
 5943TIP3    H217836   5.794   1.311   1.202  1.7207 -0.7769 -2.1819
 5944TIP3   OH217837   0.745   1.078   2.985 -0.1695  0.2681 -0.5947
 5944TIP3    H117838   0.793   1.023   3.048 -1.7206 -1.3629 -0.7382
 5944TIP3    H217839   0.674   1.116   3.037 -1.0684 -0.5647 -1.1787
 5945TIP3   OH217840   3.277   5.410   4.081 -0.1075  0.4508  0.1303
 5945TIP3    H117841   3.244   5.420   4.171  2.2074  2.1442  0.8926
 5945TIP3    H217842   3.209   5.449   4.026 -1.4986 -0.4772  1.0983
 5946TIP3   OH217843   5.297   2.894   3.700  0.2421  0.1364 -0.2847
 5946TIP3    H117844   5.373   2.940   3.664  1.1499  0.2299  1.6185
 5946TIP3    H217845   5.286   2.818   3.642  0.0783  1.5079 -2.1662
 5947TIP3   OH217846   0.750   5.391   3.889  0.1763  0.1428  0.3969
 5947TIP3    H117847   0.665   5.391   3.845 -0.1937 -0.8180  1.0549
 5947TIP3    H217848   0.762   5.300   3.918  1.0267  0.4492  1.0705
 5948TIP3   OH217849   1.803   5.405   1.671 -0.4743  0.0262 -0.5809
 5948TIP3    H117850   1.794   5.477   1.608  0.1197 -0.3143 -1.0608
 5948TIP3    H217851   1.879   5.355   1.641 -0.8116 -0.7430 -0.1891
 5949TIP3   OH217852   1.358   2.984   2.394  0.0066 -0.1452 -0.2991
 5949TIP3    H117853   1.329   3.068   2.359  2.6574  0.3802 -1.5221
 5949TIP3    H217854   1.383   3.004   2.485 -0.5193  0.1032 -0.2064
 5950TIP3   OH217855   0.975   2.821   3.859  0.5167 -0.5200 -0.1656
 5950TIP3    H117856   0.901   2.878   3.834  0.9004  0.4870  0.9347
 5950TIP3    H217857   0.944   2.774   3.936  0.1802 -1.8870 -1.1086
 5951TIP3   OH217858   4.507   3.883   4.915 -0.1835 -0.1408  0.0946
 5951TIP3    H117859   4.572   3.813   4.923  0.6055  0.7240  1.8334
 5951TIP3    H217860   4.429   3.849   4.958 -0.2764 -0.4994 -0.3594
 5952TIP3   OH217861   5.557   2.652   3.445 -0.2479  0.1587 -0.3819
 5952TIP3    H117862   5.612   2.696   3.380 -1.1491  0.1805 -1.1525
 5952TIP3    H217863   5.467   2.672   3.418 -0.6477 -0.6774  0.2884
 5953TIP3   OH217864   4.245   4.769   4.233 -0.0429 -0.2950  0.6795
 5953TIP3    H117865   4.341   4.770   4.239 -0.0251  0.3060  0.2877
 5953TIP3    H217866   4.223   4.843   4.177 -0.7145 -0.6990  0.3947
 5954TIP3   OH217867   0.255   2.991   4.745  0.1722  0.1403  0.2577
 5954TIP3    H117868   0.209   3.040   4.678  1.1678  0.2221 -0.3776
 5954TIP3    H217869   0.335   3.040   4.762  0.7774 -0.7980  0.2309
 5955TIP3   OH217870   3.878   3.401   4.465  0.4105 -0.5045 -0.1699
 5955TIP3    H117871   3.936   3.467   4.426  1.5562 -1.0631  0.5499
 5955TIP3    H217872   3.933   3.354   4.528 -1.0569 -0.4341  1.2456
 5956TIP3   OH217873   0.458   1.739   4.715  0.2633 -0.8966 -0.1372
 5956TIP3    H117874   0.493   1.805   4.774 -0.7660  0.4678 -0.9938
 5956TIP3    H217875   0.479   1.656   4.756  2.2476 -0.0763  0.6233
 5957TIP3   OH217876   2.801   3.867   1.609 -0.1104 -0.1126  0.4249
 5957TIP3    H117877   2.780   3.778   1.579  0.3795 -0.5759  1.3960
 5957TIP3    H217878   2.871   3.854   1.673  0.2563  1.0224  0.2664
 5958TIP3   OH217879   4.128   3.523   2.126  0.3380 -0.0293 -0.2980
 5958TIP3    H117880   4.137   3.590   2.058  1.0386 -1.6860 -1.9290
 5958TIP3    H217881   4.180   3.556   2.199  1.8797  0.5785 -1.6036
 5959TIP3   OH217882   0.260   5.861   5.130  0.3030  0.2899  0.2108
 5959TIP3    H117883   0.211   5.897   5.056 -2.1166 -1.0919  1.0152
 5959TIP3    H217884   0.294   5.778   5.099  2.0306  1.1326 -0.2655
 5960TIP3   OH217885   4.332   4.654   0.776 -0.3008 -0.6264 -0.0940
 5960TIP3    H117886   4.327   4.619   0.865 -0.0219  0.5437  0.3960
 5960TIP3    H217887   4.393   4.596   0.731  1.6945  0.3220  1.2429
 5961TIP3   OH217888   5.221   5.645   0.026  0.1390 -0.0277 -0.0928
 5961TIP3    H117889   5.183   5.659   0.113  0.2559  3.0091 -0.4199
 5961TIP3    H217890   5.313   5.669   0.035  0.1644  0.2900 -0.9989
 5962TIP3   OH217891   0.933   2.931   1.324  0.7040 -0.3159  0.1726
 5962TIP3    H117892   1.007   2.902   1.270  1.3914 -1.4669  1.6746
 5962TIP3    H217893   0.892   3.000   1.272  2.7094  0.2274 -0.8111
 5963TIP3   OH217894   4.309   4.603   1.320 -0.3653 -0.5462  0.4420
 5963TIP3    H117895   4.259   4.524   1.341  0.5181 -0.5996  2.5912
 5963TIP3    H217896   4.267   4.673   1.371 -0.1988  0.0758 -0.2440
 5964TIP3   OH217897   3.496   0.559   0.013  0.0734  0.3856 -0.0516
 5964TIP3    H117898   3.411   0.599   0.031 -0.1665 -0.6021  1.0870
 5964TIP3    H217899   3.538   0.552   0.098  1.0371  0.2596 -0.5230
 5965TIP3   OH217900   1.590   1.155   4.269  0.3673 -0.7444  0.3486
 5965TIP3    H117901   1.538   1.101   4.209  0.0271  0.0305 -0.0709
 5965TIP3    H217902   1.530   1.225   4.295  0.5227 -1.0560  1.5767
 5966TIP3   OH217903   5.437   2.881   2.199  0.6407  0.0416 -0.1085
 5966TIP3    H117904   5.410   2.830   2.276  1.7235  0.3971  0.5270
 5966TIP3    H217905   5.475   2.816   2.139  1.9803  0.0655  0.6810
 5967TIP3   OH217906   4.230   4.428   0.462  0.1422  0.3525  0.4938
 5967TIP3    H117907   4.306   4.438   0.519  0.6824 -0.8658  0.0062
 5967TIP3    H217908   4.236   4.502   0.401  1.8705 -0.5992 -0.5643
 5968TIP3   OH217909   2.485   2.460   3.302 -0.0574  0.1239  0.2062
 5968TIP3    H117910   2.512   2.446   3.211  1.0697  3.4129 -0.1067
 5968TIP3    H217911   2.504   2.377   3.346  0.4839 -1.1680 -2.2739
 5969TIP3   OH217912   5.322   4.649   2.533 -0.4433 -0.3842  0.3184
 5969TIP3    H117913   5.391   4.651   2.466 -0.3001  2.3527  0.4381
 5969TIP3    H217914   5.326   4.561   2.569  3.4048 -0.2042  0.7083
 5970TIP3   OH217915   4.582   5.362   4.116 -0.4594  0.3905  0.5676
 5970TIP3    H117916   4.550   5.430   4.057 -1.0723 -1.2661 -1.1235
 5970TIP3    H217917   4.518   5.358   4.187 -1.5952  0.1494 -0.4451
 5971TIP3   OH217918   5.335   3.055   1.993  0.4464 -0.0713 -0.1549
 5971TIP3    H117919   5.339   2.997   2.070 -1.1083 -1.4617 -1.0807
 5971TIP3    H217920   5.376   3.005   1.923  0.9581  0.8013 -0.5004
 5972TIP3   OH217921   5.870   1.603   1.356  0.1323 -0.2918 -0.2011
 5972TIP3    H117922   5.825   1.523   1.329 -0.6448 -0.3976  1.3008
 5972TIP3    H217923   5.847   1.667   1.289  1.2148 -1.4221 -1.7399
 5973TIP3   OH217924   2.195   5.523   1.799 -0.5799  0.0856 -0.4426
 5973TIP3    H117925   2.258   5.544   1.730  1.3278  1.0580  1.4867
 5973TIP3    H217926   2.203   5.429   1.811  2.5294  0.4546  1.4636
 5974TIP3   OH217927   2.013   3.831   3.382  0.5781  0.2692  0.0137
 5974TIP3    H117928   2.087   3.789   3.425  0.4429 -0.7485 -0.7269
 5974TIP3    H217929   1.972   3.762   3.330 -1.0259  0.7506  0.5695
 5975TIP3   OH217930   4.297   1.229   4.677  0.0994 -0.3513  0.0068
 5975TIP3    H117931   4.298   1.324   4.666  1.2444 -0.1537  1.6251
 5975TIP3    H217932   4.388   1.202   4.666  0.2648 -0.8927  2.3010
 5976TIP3   OH217933   1.431   4.642   2.395  0.5386  0.0129 -0.3267
 5976TIP3    H117934   1.383   4.725   2.390 -0.6524 -0.2865  3.0531
 5976TIP3    H217935   1.489   4.653   2.471 -0.3038 -2.4581  0.7792
 5977TIP3   OH217936   2.318   5.327   2.075  0.5253  0.1712  0.5729
 5977TIP3    H117937   2.352   5.325   2.165  0.4872 -0.0047  0.5835
 5977TIP3    H217938   2.332   5.418   2.047  1.0580  0.0882  0.5604
 5978TIP3   OH217939   5.477   0.892   2.077  0.0976  0.1836 -0.0495
 5978TIP3    H117940   5.490   0.987   2.075 -0.7385  0.2958 -1.1708
 5978TIP3    H217941   5.553   0.858   2.125  0.0072  1.4742  1.0750
 5979TIP3   OH217942   0.379   0.907   1.704  0.1063  0.4952  0.5089
 5979TIP3    H117943   0.330   0.990   1.707  0.8735  0.9400  2.8093
 5979TIP3    H217944   0.463   0.927   1.746 -0.0678 -1.6423  2.0691
 5980TIP3   OH217945   2.455   1.816   2.685  0.9353  0.4226 -0.3258
 5980TIP3    H117946   2.517   1.787   2.619  1.4783  0.7888  0.0206
 5980TIP3    H217947   2.428   1.903   2.657  0.6288  0.2950 -0.4360
 5981TIP3   OH217948   6.167   1.326   4.569  0.0274 -0.2166  0.1788
 5981TIP3    H117949   6.260   1.306   4.560  0.5195  1.6972  0.5216
 5981TIP3    H217950   6.151   1.394   4.504 -0.3775  1.5993  2.0647
 5982TIP3   OH217951   2.075   0.267   3.865 -0.1872  0.3177  0.0446
 5982TIP3    H117952   2.065   0.172   3.864  1.7006  0.0293  1.5267
 5982TIP3    H217953   2.025   0.295   3.942  0.6997  0.2785  0.6504
 5983TIP3   OH217954   2.539   4.859   3.611  0.1227  0.0542  0.0720
 5983TIP3    H117955   2.504   4.947   3.627 -2.2777 -1.0594  1.5129
 5983TIP3    H217956   2.496   4.831   3.530  0.7450  0.1068 -0.2851
 5984TIP3   OH217957   4.220   0.366   0.141  0.0162 -0.6658  0.7102
 5984TIP3    H117958   4.151   0.366   0.075  1.5989 -0.5412 -0.9938
 5984TIP3    H217959   4.217   0.278   0.179 -1.1884 -0.5970  0.8153
 5985TIP3   OH217960   3.209   0.657   3.877  0.5593  0.1924  0.2997
 5985TIP3    H117961   3.153   0.729   3.906 -0.9139 -0.9307  0.3611
 5985TIP3    H217962   3.224   0.675   3.784 -1.2156 -0.2816 -0.1109
 5986TIP3   OH217963   0.443   3.393   4.515 -0.5760  0.2432  0.1764
 5986TIP3    H117964   0.453   3.303   4.486  1.7731  0.4375  0.1488
 5986TIP3    H217965   0.519   3.438   4.478 -2.1052  2.4363 -0.4774
 5987TIP3   OH217966   0.452   2.940   1.905  0.1171 -0.6679  0.0204
 5987TIP3    H117967   0.365   2.908   1.928 -0.5707  1.8423  1.3188
 5987TIP3    H217968   0.463   2.917   1.813 -2.2117 -0.4293 -0.3731
 5988TIP3   OH217969   2.036   5.618   2.001  0.5545 -0.3177 -0.2494
 5988TIP3    H117970   2.084   5.614   2.084  1.0614  0.7237 -0.4708
 5988TIP3    H217971   2.090   5.567   1.940 -0.4258 -2.1040  0.3149
 5989TIP3   OH217972   3.692   2.276   0.145 -0.7637  0.1846  0.2524
 5989TIP3    H117973   3.747   2.348   0.174  0.9263 -1.6387  1.8249
 5989TIP3    H217974   3.744   2.198   0.161 -2.7872 -1.4591 -0.7447
 5990TIP3   OH217975   2.180   5.167   1.864  0.3498  1.0954 -0.0442
 5990TIP3    H117976   2.233   5.092   1.837 -2.5688 -1.0778 -0.3577
 5990TIP3    H217977   2.221   5.198   1.945  1.9737 -0.5208 -0.1812
 5991TIP3   OH217978   6.345   0.642   2.171  0.5642 -0.0713  0.8047
 5991TIP3    H117979   6.297   0.696   2.233  1.6658 -0.8040  2.3452
 5991TIP3    H217980   6.319   0.552   2.191  0.2467 -0.2712 -0.4107
 5992TIP3   OH217981   6.180   3.402   2.477 -0.0948  0.5218  0.3747
 5992TIP3    H117982   6.247   3.463   2.445 -0.3492  1.0861  0.9195
 5992TIP3    H217983   6.130   3.452   2.542  0.2640 -0.5361  1.4959
 5993TIP3   OH217984   5.384   0.847   0.157  0.4684 -0.2496 -0.1227
 5993TIP3    H117985   5.386   0.906   0.081 -0.6741 -0.9032 -0.6917
 5993TIP3    H217986   5.383   0.759   0.119 -2.2436 -0.5900  0.5126
 5994TIP3   OH217987   3.485   4.001   1.466 -0.3646 -0.0862  0.0090
 5994TIP3    H117988   3.489   3.997   1.371  0.2000 -0.3733  0.0407
 5994TIP3    H217989   3.413   3.942   1.489  0.6822 -1.4667 -0.1497
 5995TIP3   OH217990   5.977   3.801   5.111 -0.1360 -0.0726 -0.2463
 5995TIP3    H117991   5.939   3.889   5.114 -0.1414 -0.0610 -0.5455
 5995TIP3    H217992   6.015   3.795   5.023  0.8858  0.0607  0.1739
 5996TIP3   OH217993   1.137   3.691   2.397  0.1262 -0.4781  0.0041
 5996TIP3    H117994   1.123   3.703   2.303  0.5095 -0.0936 -0.0101
 5996TIP3    H217995   1.226   3.657   2.403  1.3412  2.4606  0.3723
 5997TIP3   OH217996   1.151   4.251   1.029  0.0006 -0.4410 -0.0806
 5997TIP3    H117997   1.125   4.178   0.973 -0.8838  0.4147 -0.8062
 5997TIP3    H217998   1.231   4.286   0.988 -0.9014  0.4745 -1.1070
 5998TIP3   OH217999   3.018   2.236   1.213 -0.2611 -0.1881 -0.3869
 5998TIP3    H118000   3.107   2.220   1.183 -0.1167 -0.2021  0.0395
 5998TIP3    H218001   3.012   2.331   1.224  0.0692 -0.2799  0.6859
 5999TIP3   OH218002   2.418   4.582   2.131  0.1965  0.1264 -0.5306
 5999TIP3    H118003   2.363   4.659   2.114 -0.2168  0.2459  1.1608
 5999TIP3    H218004   2.479   4.611   2.199  0.7533 -0.7195 -0.6657
 6000TIP3   OH218005   2.470   0.385   2.008  0.1673  0.2557 -0.0130
 6000TIP3    H118006   2.470   0.471   1.965  0.7959 -0.5497 -1.7077
 6000TIP3    H218007   2.407   0.394   2.080 -0.7983  1.7234 -0.9921
 6001TIP3   OH218008   4.455   3.954   2.603  0.0295 -0.2257 -0.5465
 6001TIP3    H118009   4.483   4.017   2.669  2.1962 -0.8734 -0.7495
 6001TIP3    H218010   4.532   3.898   2.590 -1.5629 -2.4715 -0.8798
 6002TIP3   OH218011   4.013   5.135   1.037 -0.7905 -0.5415 -1.1313
 6002TIP3    H118012   3.920   5.154   1.030 -0.7142 -0.4246 -1.8486
 6002TIP3    H218013   4.049   5.208   1.087 -1.2117 -1.0074 -0.0964
 6003TIP3   OH218014   0.161   5.034   3.493 -0.0279 -0.5505  0.0351
 6003TIP3    H118015   0.252   5.040   3.521  0.2062 -0.1323 -0.7891
 6003TIP3    H218016   0.110   5.044   3.573  0.6504 -1.1181  0.5534
 6004TIP3   OH218017   1.708   3.560   4.760  0.2722  0.4605  0.2452
 6004TIP3    H118018   1.619   3.530   4.778  0.3598 -0.9211 -1.4314
 6004TIP3    H218019   1.697   3.647   4.722 -0.4399 -0.0875 -0.8316
 6005TIP3   OH218020   1.611   2.769   1.322 -0.0700  0.3357 -0.1353
 6005TIP3    H118021   1.620   2.745   1.414  0.2848  0.5443 -0.1158
 6005TIP3    H218022   1.597   2.863   1.323  1.8129  0.6410 -0.3982
 6006TIP3   OH218023   1.545   0.559   0.666  0.0133  0.0612  0.1833
 6006TIP3    H118024   1.483   0.629   0.644 -0.6841 -0.4929  0.3195
 6006TIP3    H218025   1.529   0.491   0.601 -0.4177 -0.6106  0.9719
 6007TIP3   OH218026   5.232   0.086   2.552 -0.0726 -0.0209 -0.5068
 6007TIP3    H118027   5.152   0.131   2.525 -0.5743  0.9218  2.1984
 6007TIP3    H218028   5.228   0.002   2.508  0.1851  1.8764 -4.6677
 6008TIP3   OH218029   0.807   4.925   1.566 -0.2796 -0.0133 -0.1145
 6008TIP3    H118030   0.876   4.878   1.613  0.0566  1.4165  0.8838
 6008TIP3    H218031   0.822   4.903   1.474  1.5796  0.3216  0.0631
 6009TIP3   OH218032   1.457   5.862   3.263 -0.7272 -0.2851  0.3929
 6009TIP3    H118033   1.483   5.945   3.224 -0.3909  0.8496  2.8767
 6009TIP3    H218034   1.409   5.817   3.193  1.5557  0.6827 -1.9586
 6010TIP3   OH218035   6.077   0.705   1.187 -0.0617 -0.5123 -0.0379
 6010TIP3    H118036   5.999   0.746   1.149 -0.8306 -1.0418  0.9466
 6010TIP3    H218037   6.093   0.755   1.267  1.4107  0.4405 -0.8855
 6011TIP3   OH218038   1.530   5.165   4.223 -0.5081 -0.6949 -0.1445
 6011TIP3    H118039   1.558   5.255   4.203 -1.3328 -0.5716 -0.8686
 6011TIP3    H218040   1.589   5.135   4.292 -0.6860  0.6761  0.6424
 6012TIP3   OH218041   0.843   1.975   4.004  0.3102 -0.3136  0.1479
 6012TIP3    H118042   0.928   2.019   4.004  1.5946 -2.5893 -1.3596
 6012TIP3    H218043   0.864   1.884   4.023 -1.9229 -0.8018  0.4790
 6013TIP3   OH218044   3.819   1.437   0.468  0.5545 -0.9348  0.6419
 6013TIP3    H118045   3.904   1.466   0.502  0.0937  0.4335  0.6856
 6013TIP3    H218046   3.818   1.467   0.377  1.1405 -3.2099 -0.1795
 6014TIP3   OH218047   2.370   0.679   0.612  0.0114  0.4101  0.2915
 6014TIP3    H118048   2.349   0.745   0.546 -0.6763 -1.4255 -1.4091
 6014TIP3    H218049   2.432   0.620   0.569  0.7187 -0.0246  1.8170
 6015TIP3   OH218050   2.674   2.138   2.880  0.1804 -0.1912 -0.4209
 6015TIP3    H118051   2.628   2.151   2.963  1.4233 -0.0969  0.2941
 6015TIP3    H218052   2.738   2.210   2.877  1.6375 -1.4215 -0.3729
 6016TIP3   OH218053   2.283   5.553   0.711  0.4603  0.1680 -0.0886
 6016TIP3    H118054   2.207   5.506   0.676 -1.0465  1.5000  1.2513
 6016TIP3    H218055   2.337   5.485   0.751 -0.6818 -0.6655  0.0848
 6017TIP3   OH218056   3.074   2.884   1.032  0.6647  0.5577 -0.0622
 6017TIP3    H118057   3.134   2.846   0.968 -1.2521  0.7556 -2.1173
 6017TIP3    H218058   3.102   2.849   1.116  0.1115 -4.0502 -1.5546
 6018TIP3   OH218059   2.799   0.831   0.714 -0.5744  0.3660 -0.4167
 6018TIP3    H118060   2.875   0.877   0.749 -0.1238  0.3883 -1.3902
 6018TIP3    H218061   2.815   0.826   0.620 -0.8896 -1.2938 -0.4090
 6019TIP3   OH218062   2.083   3.930   0.345 -0.2556  0.0034 -0.3686
 6019TIP3    H118063   2.116   3.845   0.376 -0.1187 -0.0735 -0.7274
 6019TIP3    H218064   2.089   3.987   0.422 -1.8589 -0.7288  0.3373
 6020TIP3   OH218065   6.124   1.259   4.822  0.0701 -0.4368 -0.0216
 6020TIP3    H118066   6.123   1.270   4.727  0.4849  2.3861  0.1952
 6020TIP3    H218067   6.216   1.271   4.846  0.1768 -2.3848  0.6777
 6021TIP3   OH218068   2.437   1.838   0.099 -0.1087  0.5463  0.1853
 6021TIP3    H118069   2.476   1.849   0.186  1.8967  0.9662 -0.7025
 6021TIP3    H218070   2.450   1.923   0.056 -3.1402  1.1214  0.1946
 6022TIP3   OH218071   2.887   2.805   3.491 -0.3689  0.0406  0.2476
 6022TIP3    H118072   2.959   2.743   3.503  0.3052  0.9590  1.1319
 6022TIP3    H218073   2.855   2.787   3.403  2.1964  0.8396 -0.9611
 6023TIP3   OH218074   3.558   1.494   2.728 -0.2305  0.2774 -0.1696
 6023TIP3    H118075   3.630   1.465   2.784 -1.0857 -0.9734  0.3302
 6023TIP3    H218076   3.554   1.429   2.658 -1.3610 -0.1174  0.2441
 6024TIP3   OH218077   5.194   4.890   2.379 -0.1883 -0.1475  0.0142
 6024TIP3    H118078   5.245   4.961   2.417 -1.4984  0.2778  1.0665
 6024TIP3    H218079   5.234   4.810   2.414  0.2935  0.1438  0.1251
 6025TIP3   OH218080   3.433   4.080   3.113  0.1999 -0.1064 -0.3407
 6025TIP3    H118081   3.429   4.115   3.202 -1.0417 -0.3564 -0.2742
 6025TIP3    H218082   3.366   4.011   3.111  2.2875 -2.2303 -0.6076
 6026TIP3   OH218083   4.105   1.357   2.552  0.0317  0.3445 -0.0591
 6026TIP3    H118084   4.121   1.448   2.530  0.7591  0.4330  0.7594
 6026TIP3    H218085   4.173   1.336   2.616 -0.0769 -0.7932 -0.2985
 6027TIP3   OH218086   3.142   3.529   2.266 -0.4055 -0.5514  0.2554
 6027TIP3    H118087   3.109   3.457   2.321 -1.5401  0.0812  0.4223
 6027TIP3    H218088   3.136   3.606   2.322  0.0550 -0.1853 -0.1943
 6028TIP3   OH218089   1.038   0.599   4.162  0.6999 -0.4918 -0.4391
 6028TIP3    H118090   0.985   0.618   4.240  0.9310  2.3336 -0.8466
 6028TIP3    H218091   0.989   0.639   4.090  1.9346 -0.4112 -1.2648
 6029TIP3   OH218092   5.261   3.390   0.001  0.2344  0.3430  0.2553
 6029TIP3    H118093   5.326   3.359   0.064 -0.2225  1.1419  1.1531
 6029TIP3    H218094   5.186   3.333   0.015  0.4415 -0.0393 -0.1860
 6030TIP3   OH218095   1.684   1.865   1.363  0.3067  0.3286 -0.2105
 6030TIP3    H118096   1.655   1.911   1.284  1.8986  0.0155 -1.0109
 6030TIP3    H218097   1.685   1.773   1.337 -0.7192  0.0448  0.6989
 6031TIP3   OH218098   4.285   3.424   1.819 -0.0258  0.0261 -0.0251
 6031TIP3    H118099   4.312   3.448   1.907  0.6511  0.2584 -0.2929
 6031TIP3    H218100   4.231   3.498   1.790 -0.6944 -0.2855  0.3775
 6032TIP3   OH218101   2.263   1.250   4.789 -0.3353 -0.4562 -0.2682
 6032TIP3    H118102   2.263   1.217   4.879  0.7674  0.1712 -0.0103
 6032TIP3    H218103   2.197   1.319   4.789  0.2346  0.1100  0.3040
 6033TIP3   OH218104   1.929   1.432   2.273  0.0083 -0.6466 -0.1352
 6033TIP3    H118105   1.856   1.461   2.326  1.0180  1.9468 -0.0396
 6033TIP3    H218106   1.899   1.441   2.182 -0.1468 -0.6220 -0.0808
 6034TIP3   OH218107   3.151   4.418   1.482  0.2868  0.6348 -0.3197
 6034TIP3    H118108   3.092   4.481   1.441 -1.5071 -0.9522 -0.3089
 6034TIP3    H218109   3.202   4.470   1.545 -0.3248  2.2394 -1.0936
 6035TIP3   OH218110   1.481   5.033   2.810  0.4882 -0.3560 -0.3918
 6035TIP3    H118111   1.452   5.089   2.881 -0.3303  0.5445 -1.4172
 6035TIP3    H218112   1.556   5.079   2.772  0.6436 -0.6108 -0.3949
 6036TIP3   OH218113   0.039   4.842   0.247 -0.0718  0.1211 -0.5511
 6036TIP3    H118114  -0.045   4.881   0.227  0.0509  0.3982 -0.5261
 6036TIP3    H218115   0.024   4.792   0.327 -0.6281 -1.2054 -1.4490
 6037TIP3   OH218116   0.025   3.969   2.357  0.1974 -0.2198 -0.3400
 6037TIP3    H118117  -0.016   4.006   2.435 -0.7919 -3.1832  0.6569
 6037TIP3    H218118   0.113   3.945   2.384  1.2775  2.2669 -1.3211
 6038TIP3   OH218119   4.820   5.729   2.906  0.3460  0.5482 -0.4376
 6038TIP3    H118120   4.761   5.665   2.946 -0.4434  0.9288 -0.9755
 6038TIP3    H218121   4.908   5.699   2.931  0.5011 -3.7299 -4.6673
 6039TIP3   OH218122   1.991   5.684   1.693 -0.4889 -0.6049  0.2160
 6039TIP3    H118123   2.054   5.753   1.672 -0.1463 -0.9239  0.1824
 6039TIP3    H218124   2.044   5.615   1.733 -0.4839 -1.7336 -1.6715
 6040TIP3   OH218125   0.515   1.145   3.129  0.7037  0.4174  0.2015
 6040TIP3    H118126   0.498   1.075   3.192 -1.9392 -0.7086 -1.5532
 6040TIP3    H218127   0.505   1.225   3.179  2.0414 -0.4324  1.8932
 6041TIP3   OH218128   4.914   5.608   3.738  0.2195  0.1000 -0.6732
 6041TIP3    H118129   4.918   5.631   3.831 -0.1858  0.0998 -0.6524
 6041TIP3    H218130   4.984   5.659   3.697  2.1585 -1.8996  0.0220
 6042TIP3   OH218131   5.536   2.898   1.791  0.0168 -0.0199  0.4965
 6042TIP3    H118132   5.575   2.852   1.716  1.6144  0.9009  0.7023
 6042TIP3    H218133   5.443   2.902   1.772  0.1931 -1.1297 -0.7170
 6043TIP3   OH218134   1.380   1.792   2.633  0.1285 -0.1883  0.6110
 6043TIP3    H118135   1.344   1.764   2.717 -1.1821 -0.1716  0.0785
 6043TIP3    H218136   1.322   1.862   2.603  0.3593 -0.4308 -0.4691
 6044TIP3   OH218137   6.192   1.170   3.994 -0.2699  0.5249  0.8133
 6044TIP3    H118138   6.284   1.195   3.986 -0.0829 -0.0037  1.2679
 6044TIP3    H218139   6.143   1.250   3.973  0.2897  0.7981  0.5361
 6045TIP3   OH218140   2.510   0.316   3.909  0.2906  0.1503 -0.4856
 6045TIP3    H118141   2.425   0.360   3.908 -0.1258 -0.6292 -0.5658
 6045TIP3    H218142   2.553   0.344   3.828 -0.4891 -0.5562 -1.1737
 6046TIP3   OH218143   4.020   0.512   5.127 -0.5639  0.3018 -0.0471
 6046TIP3    H118144   4.016   0.596   5.083 -1.8734  0.2121 -0.1449
 6046TIP3    H218145   4.074   0.528   5.205 -0.7590  1.2105 -0.0898
 6047TIP3   OH218146   0.548   2.345   4.666 -0.1480  0.0662 -0.4180
 6047TIP3    H118147   0.500   2.411   4.715  0.7161 -1.0509  2.1206
 6047TIP3    H218148   0.490   2.268   4.664 -0.6540  0.4382 -2.2822
 6048TIP3   OH218149   6.314   4.459   4.025 -0.2529 -0.2244  0.3292
 6048TIP3    H118150   6.272   4.379   4.059  1.1195 -1.0408  0.1557
 6048TIP3    H218151   6.321   4.516   4.101 -0.3496 -0.6557  0.6676
 6049TIP3   OH218152   0.187   4.697   4.219  0.1290  0.2307  0.5282
 6049TIP3    H118153   0.195   4.790   4.199  0.2192  0.1830  0.3370
 6049TIP3    H218154   0.238   4.653   4.151  0.5520  0.0682  0.9459
 6050TIP3   OH218155   5.252   5.053   4.988 -0.4783  0.5242  0.6671
 6050TIP3    H118156   5.167   5.021   4.958 -0.7064  1.4994  0.2318
 6050TIP3    H218157   5.284   5.108   4.916  0.5864  0.0663  0.7673
 6051TIP3   OH218158   2.658   0.169   5.080 -0.4609 -0.3509 -0.0024
 6051TIP3    H118159   2.582   0.177   5.023  0.4896 -0.7724 -1.3831
 6051TIP3    H218160   2.658   0.249   5.133 -1.3020  0.1146 -0.6912
 6052TIP3   OH218161   5.417   3.731   3.923 -0.2649  0.1351 -0.0801
 6052TIP3    H118162   5.509   3.759   3.920  0.1185 -1.0215  0.1638
 6052TIP3    H218163   5.422   3.636   3.916 -1.3632 -0.0602  1.4886
 6053TIP3   OH218164   1.420   0.933   4.217  0.1866  0.1966  0.1323
 6053TIP3    H118165   1.398   0.856   4.270 -1.5643 -1.6753 -3.0420
 6053TIP3    H218166   1.338   0.981   4.210  0.7389  1.1752  0.1911
 6054TIP3   OH218167   1.891   3.904   2.738 -0.2437 -1.1074  0.5513
 6054TIP3    H118168   1.919   3.848   2.665 -1.6757  1.1270 -1.8637
 6054TIP3    H218169   1.913   3.993   2.711 -1.3137 -0.1361  2.6282
 6055TIP3   OH218170   3.365   4.310   0.791 -0.0704 -0.2018 -0.1857
 6055TIP3    H118171   3.287   4.324   0.845 -1.4907 -2.4035 -1.4711
 6055TIP3    H218172   3.355   4.372   0.719  0.1165  0.5024  0.3931
 6056TIP3   OH218173   1.741   4.062   3.961  0.1580  0.0711 -0.0951
 6056TIP3    H118174   1.652   4.073   3.994  0.6614  2.1334  0.7491
 6056TIP3    H218175   1.749   4.128   3.892  1.2443  0.4266  0.3476
 6057TIP3   OH218176   4.605   2.520   3.369 -0.5592 -1.0123 -0.3340
 6057TIP3    H118177   4.572   2.555   3.452  0.6635  0.4956 -0.4395
 6057TIP3    H218178   4.554   2.440   3.355 -0.2401 -1.7659  2.2750
 6058TIP3   OH218179   1.668   1.113   2.104 -0.5130 -0.3957  0.0544
 6058TIP3    H118180   1.637   1.063   2.029  1.3786  0.1345 -1.1321
 6058TIP3    H218181   1.733   1.056   2.146  0.2248  0.2774 -0.1623
 6059TIP3   OH218182   4.085   2.477   0.836 -0.2578 -0.2439 -0.4282
 6059TIP3    H118183   4.016   2.544   0.837  0.2158  0.2957 -1.8344
 6059TIP3    H218184   4.150   2.509   0.899 -0.1463  0.5006 -0.9133
 6060TIP3   OH218185   4.907   5.690   0.959  0.2340  0.0508 -0.5530
 6060TIP3    H118186   4.845   5.622   0.934 -0.4066 -0.0827  1.2158
 6060TIP3    H218187   4.951   5.655   1.036  1.5978  0.6894 -1.0166
 6061TIP3   OH218188  -0.027   2.115   3.545  0.1051 -0.5085  0.0926
 6061TIP3    H118189  -0.016   2.205   3.516  0.8856 -0.8571 -0.7221
 6061TIP3    H218190   0.057   2.073   3.527  0.2302 -1.0596  1.7384
 6062TIP3   OH218191   1.425   4.251   3.874 -0.2153 -0.8603 -0.2430
 6062TIP3    H118192   1.497   4.258   3.811 -0.8746 -2.0987 -1.1589
 6062TIP3    H218193   1.466   4.272   3.958  0.7046  0.7238 -1.0342
 6063TIP3   OH218194   0.421   4.269   4.811 -0.3387 -0.4288 -0.3891
 6063TIP3    H118195   0.346   4.321   4.841 -0.1144 -1.8515  3.2230
 6063TIP3    H218196   0.466   4.325   4.749 -2.2579  2.0611  0.2865
 6064TIP3   OH218197   0.423   3.131   3.464 -0.0812 -0.7888  0.1219
 6064TIP3    H118198   0.413   3.121   3.370  3.2804 -3.5853 -0.1374
 6064TIP3    H218199   0.515   3.152   3.477 -0.3774 -0.7090  2.8175
 6065TIP3   OH218200   0.744   1.797   2.110 -0.0750 -0.0388  0.4274
 6065TIP3    H118201   0.749   1.888   2.081  0.2499  0.2447  1.3393
 6065TIP3    H218202   0.787   1.747   2.040  0.0208  0.5406  0.0676
 6066TIP3   OH218203   3.708   2.554   2.660 -0.1880 -0.5288 -0.0423
 6066TIP3    H118204   3.694   2.468   2.702  0.0255 -1.4985 -1.8662
 6066TIP3    H218205   3.622   2.581   2.631 -0.4444  0.4612  1.5138
 6067TIP3   OH218206   0.491   1.530   1.570 -0.0857 -0.6399  0.3965
 6067TIP3    H118207   0.539   1.478   1.634  2.1642  0.3400 -0.4238
 6067TIP3    H218208   0.540   1.520   1.488 -1.3844  0.2828 -0.5454
 6068TIP3   OH218209   3.802   1.041   4.477 -0.3327  0.1207  0.2399
 6068TIP3    H118210   3.854   0.980   4.529 -1.3697 -0.9896  0.0142
 6068TIP3    H218211   3.751   1.090   4.542  0.2258  0.5159  0.3964
 6069TIP3   OH218212   1.589   4.883   3.025  0.1873  0.3428  0.0688
 6069TIP3    H118213   1.680   4.911   3.030 -0.3568  2.3655 -0.6632
 6069TIP3    H218214   1.557   4.918   2.943 -0.9941 -1.2542 -0.1973
 6070TIP3   OH218215   0.738   1.254   4.933  0.9342  1.0927  0.1253
 6070TIP3    H118216   0.714   1.202   5.009 -0.4231  1.0202 -0.3123
 6070TIP3    H218217   0.831   1.236   4.919  0.9135  0.1892  1.0397
 6071TIP3   OH218218   3.811   0.662   4.114 -0.1530 -0.2247 -0.1093
 6071TIP3    H118219   3.768   0.581   4.139 -2.1373  0.9836  0.6938
 6071TIP3    H218220   3.830   0.705   4.197 -0.6539  0.8430 -0.5239
 6072TIP3   OH218221   2.391   1.637   1.650 -0.0272  0.8741  0.1925
 6072TIP3    H118222   2.364   1.643   1.558 -0.4870  1.0474  0.3348
 6072TIP3    H218223   2.484   1.615   1.647  0.5007  2.9451 -0.3413
 6073TIP3   OH218224   1.707   4.378   3.030  0.1351  0.9157 -0.4385
 6073TIP3    H118225   1.676   4.468   3.023 -0.2501  0.7652 -0.7115
 6073TIP3    H218226   1.719   4.364   3.124  1.4264  1.6540 -0.4721
 6074TIP3   OH218227   1.601   4.701   2.606  0.0028  0.1978  0.3581
 6074TIP3    H118228   1.663   4.635   2.638  0.9297 -0.1987 -2.0376
 6074TIP3    H218229   1.529   4.699   2.670  1.2873 -1.1196  1.8581
 6075TIP3   OH218230   1.726   1.887   4.384  0.1041 -0.1602 -0.3064
 6075TIP3    H118231   1.632   1.877   4.369  0.1575 -0.9102 -0.1735
 6075TIP3    H218232   1.761   1.798   4.378  0.8096  0.1163 -0.3700
 6076TIP3   OH218233   2.250   4.627   1.187  0.1400 -0.6337  0.2320
 6076TIP3    H118234   2.224   4.537   1.169  1.0197 -0.5470 -1.7450
 6076TIP3    H218235   2.344   4.621   1.206  0.4238 -0.0674 -0.8913
 6077TIP3   OH218236   1.506   3.317   4.298  0.0842 -0.5691  0.5870
 6077TIP3    H118237   1.519   3.403   4.258  2.0379 -1.7387 -1.5585
 6077TIP3    H218238   1.451   3.334   4.374  1.7915  2.8145  1.2591
 6078TIP3   OH218239   1.963   5.799   2.755  0.0923  0.0508 -0.6644
 6078TIP3    H118240   1.975   5.887   2.791  0.7469 -0.2460 -0.1331
 6078TIP3    H218241   1.932   5.813   2.666 -1.1036  0.8154 -0.1567
 6079TIP3   OH218242   5.452   2.552   5.042 -0.6493 -0.0282  0.5282
 6079TIP3    H118243   5.479   2.622   5.102 -0.6136 -0.2832  0.8088
 6079TIP3    H218244   5.357   2.552   5.046 -0.7605  1.2398 -0.8747
 6080TIP3   OH218245   0.136   1.720   0.253  0.6188  0.5335 -0.0244
 6080TIP3    H118246   0.139   1.813   0.231  0.1810  0.2049 -1.5410
 6080TIP3    H218247   0.206   1.681   0.201 -0.6563 -0.3186 -1.1576
 6081TIP3   OH218248   2.242   4.647   0.759 -0.2651 -0.8212 -0.2557
 6081TIP3    H118249   2.201   4.731   0.742  0.4557 -0.6267 -1.0992
 6081TIP3    H218250   2.181   4.602   0.818 -0.8116  0.1489 -0.0599
 6082TIP3   OH218251   1.120   1.171   0.443  0.2110 -0.4929 -0.2580
 6082TIP3    H118252   1.080   1.116   0.375 -1.7637 -0.2169  0.5901
 6082TIP3    H218253   1.130   1.257   0.401  3.2662 -1.3558 -1.5716
 6083TIP3   OH218254   1.161   4.670   4.338 -0.0813  0.1680 -0.2813
 6083TIP3    H118255   1.098   4.623   4.284  0.6925  0.3799 -1.4138
 6083TIP3    H218256   1.109   4.732   4.389 -0.8072  0.1760 -1.0208
 6084TIP3   OH218257   3.736   0.981   1.165  0.1749 -0.0101  0.2026
 6084TIP3    H118258   3.745   1.071   1.196 -1.5576 -0.2566  1.5814
 6084TIP3    H218259   3.711   0.990   1.073  0.7356  0.8825  0.1251
 6085TIP3   OH218260   5.666   2.229   4.834  0.1831  0.0811 -0.0928
 6085TIP3    H118261   5.659   2.287   4.909  0.2347 -0.1375  0.0820
 6085TIP3    H218262   5.684   2.143   4.871 -1.0901 -0.2933 -0.2670
 6086TIP3   OH218263   6.147   5.770   4.103  0.3100  0.2486 -0.4906
 6086TIP3    H118264   6.237   5.779   4.135  1.0881 -1.6521 -1.9165
 6086TIP3    H218265   6.142   5.829   4.028  0.1919  0.7438 -0.0955
 6087TIP3   OH218266   0.284   0.986   2.442 -0.2960 -0.5447 -0.1763
 6087TIP3    H118267   0.331   1.019   2.519 -0.8029 -0.8614  0.2744
 6087TIP3    H218268   0.252   0.900   2.468 -1.4493 -0.1831 -0.3326
 6088TIP3   OH218269   4.311   0.870   1.745 -0.2096  0.1697 -0.4806
 6088TIP3    H118270   4.249   0.936   1.714 -0.9965  0.9369  2.3998
 6088TIP3    H218271   4.393   0.918   1.758  0.0477 -0.0929 -1.0999
 6089TIP3   OH218272   5.076   0.446   1.220  0.1143  0.3651  0.0112
 6089TIP3    H118273   5.131   0.466   1.296 -1.6672  0.5295  1.3205
 6089TIP3    H218274   5.071   0.350   1.220 -0.1936  0.3818  0.3253
 6090TIP3   OH218275   2.354   4.290   5.091 -0.2116  0.8442  0.2128
 6090TIP3    H118276   2.344   4.204   5.132 -0.5310  0.4427 -0.6593
 6090TIP3    H218277   2.398   4.344   5.156  0.0501 -0.0068  0.7519
 6091TIP3   OH218278   5.254   5.691   2.227 -0.2211 -0.5994 -0.3237
 6091TIP3    H118279   5.180   5.751   2.228  0.2893  0.0308  0.0959
 6091TIP3    H218280   5.257   5.659   2.136  0.2723  0.9844 -0.8978
 6092TIP3   OH218281   0.584   3.324   0.435  0.3267  0.2150 -0.2747
 6092TIP3    H118282   0.671   3.354   0.408  0.9764  0.2083  1.6838
 6092TIP3    H218283   0.553   3.391   0.496 -0.0922 -0.8825  0.7461
 6093TIP3   OH218284   0.292   4.691   0.973 -0.2393 -0.0241  0.1428
 6093TIP3    H118285   0.206   4.733   0.977 -0.0533  0.4893 -0.9520
 6093TIP3    H218286   0.354   4.764   0.966  0.2316 -0.4192  0.1130
 6094TIP3   OH218287   3.646   4.374   0.512 -0.8444  0.2351 -0.2391
 6094TIP3    H118288   3.586   4.301   0.497 -1.2661 -0.2038  2.9900
 6094TIP3    H218289   3.730   4.333   0.531 -1.0012  0.5546  1.2406
 6095TIP3   OH218290   3.675   0.676   1.723 -0.6498  0.0807  0.5707
 6095TIP3    H118291   3.639   0.592   1.752 -1.3423 -0.1536 -0.9054
 6095TIP3    H218292   3.767   0.673   1.750 -0.5971 -1.2625  0.3078
 6096TIP3   OH218293   1.819   0.931   0.673 -0.2335  0.1326  0.1734
 6096TIP3    H118294   1.748   0.987   0.643 -1.4368 -1.2433  0.3537
 6096TIP3    H218295   1.892   0.952   0.615 -1.1594  0.6841 -0.8335
 6097TIP3   OH218296   5.885   2.374   1.925 -0.4795  0.3627 -0.0604
 6097TIP3    H118297   5.956   2.320   1.960 -0.6320  0.2403  0.0565
 6097TIP3    H218298   5.805   2.326   1.944 -0.5709  0.3187 -0.5291
 6098TIP3   OH218299   3.596   2.582   1.986 -0.5115 -0.3340  0.1091
 6098TIP3    H118300   3.659   2.610   2.052 -1.6067 -1.5381  1.7187
 6098TIP3    H218301   3.620   2.633   1.908  0.5869  1.4155  1.4971
 6099TIP3   OH218302   1.513   3.941   0.286  1.0151 -0.0636  0.1516
 6099TIP3    H118303   1.506   3.871   0.221  0.0898  1.6954 -1.7646
 6099TIP3    H218304   1.600   3.977   0.274  0.2711  1.3537 -1.3960
 6100TIP3   OH218305   6.134   5.059   3.644 -0.6773  0.4756 -0.7595
 6100TIP3    H118306   6.126   5.139   3.696  0.0780 -1.7905  3.2492
 6100TIP3    H218307   6.052   5.012   3.659  0.2374 -0.9986 -0.0951
 6101TIP3   OH218308   0.410   3.695   2.723 -0.0559  0.4404 -0.3036
 6101TIP3    H118309   0.486   3.746   2.751 -0.9080  1.6547 -0.1407
 6101TIP3    H218310   0.432   3.667   2.634  0.7182  0.4919 -0.1332
 6102TIP3   OH218311   4.855   1.768   2.927  0.2771 -0.1296 -0.5044
 6102TIP3    H118312   4.860   1.802   3.017 -0.7494  0.4145 -0.6379
 6102TIP3    H218313   4.762   1.760   2.910  0.4293  0.8521 -1.9185
 6103TIP3   OH218314   2.557   3.180   4.734  0.4847 -0.5122  0.5648
 6103TIP3    H118315   2.538   3.221   4.649 -1.8040 -1.2717  0.6165
 6103TIP3    H218316   2.493   3.220   4.794  0.3208 -1.8373  1.3081
 6104TIP3   OH218317   2.871   1.700   5.030 -0.0478  0.4460 -0.2818
 6104TIP3    H118318   2.875   1.775   5.089 -0.7132  0.5555 -0.3712
 6104TIP3    H218319   2.924   1.633   5.073 -0.1732  0.6715  0.2291
 6105TIP3   OH218320   4.625   1.767   3.648 -0.3492  0.2698  0.6026
 6105TIP3    H118321   4.643   1.719   3.567  2.5925  0.0247  1.2836
 6105TIP3    H218322   4.645   1.858   3.626  1.1859  0.1066  1.1602
 6106TIP3   OH218323   6.192   1.898   2.111  0.3755  0.0895 -0.0175
 6106TIP3    H118324   6.260   1.869   2.050  0.6316  0.4919  0.0657
 6106TIP3    H218325   6.242   1.936   2.184  0.0863 -0.8007  0.6542
 6107TIP3   OH218326   2.184   4.918   0.102  0.3903  0.5389  0.2420
 6107TIP3    H118327   2.248   4.911   0.173  0.8313 -0.2351 -0.2127
 6107TIP3    H218328   2.194   4.836   0.053  0.0763  1.0445 -0.6886
 6108TIP3   OH218329   4.680   3.977   0.608 -0.3647 -0.0398 -0.1900
 6108TIP3    H118330   4.635   4.037   0.548 -0.6455 -1.0770 -1.0676
 6108TIP3    H218331   4.673   3.891   0.565  1.9067 -0.3632 -0.0348
 6109TIP3   OH218332   4.607   5.969   3.339 -0.1939 -0.0580  0.3069
 6109TIP3    H118333   4.630   5.878   3.323  3.1466  0.5759  0.7104
 6109TIP3    H218334   4.634   5.985   3.429 -1.7575  1.0602  0.6049
 6110TIP3   OH218335   3.062   0.320   2.532  0.0449  0.5207 -0.2502
 6110TIP3    H118336   2.974   0.282   2.524  1.2668 -2.3676 -1.2784
 6110TIP3    H218337   3.103   0.269   2.602  1.6574  0.0661 -1.4605
 6111TIP3   OH218338   6.262   3.840   0.485  1.1582  0.1053  0.0216
 6111TIP3    H118339   6.212   3.881   0.556 -0.5687  0.7275 -1.4750
 6111TIP3    H218340   6.309   3.913   0.444  0.7246  0.0643 -0.5662
 6112TIP3   OH218341   4.566   3.130   3.628  0.1026 -0.2711  0.0195
 6112TIP3    H118342   4.654   3.091   3.628  0.1454 -0.2327 -1.2222
 6112TIP3    H218343   4.536   3.121   3.718  1.1197 -0.8873  0.3221
 6113TIP3   OH218344   4.751   0.698   1.318 -0.5717  0.9778 -0.1991
 6113TIP3    H118345   4.742   0.696   1.223  0.8561  1.0416 -0.3491
 6113TIP3    H218346   4.722   0.612   1.347 -3.6640  1.8266 -0.3933
 6114TIP3   OH218347   4.009   1.620   2.460  0.5218 -0.0384 -0.1411
 6114TIP3    H118348   3.993   1.623   2.555 -0.4813  0.1647 -0.3083
 6114TIP3    H218349   3.934   1.572   2.425  0.7706  0.0954 -0.8702
 6115TIP3   OH218350   1.243   3.629   1.789  0.1243 -1.0947  0.6277
 6115TIP3    H118351   1.195   3.589   1.861 -0.7024 -1.2991 -0.0332
 6115TIP3    H218352   1.219   3.578   1.712 -0.3201  0.1632 -0.0927
 6116TIP3   OH218353   1.713   2.824   0.760 -0.0751  0.2717  0.2202
 6116TIP3    H118354   1.784   2.789   0.705 -0.9613 -1.1958 -0.0413
 6116TIP3    H218355   1.641   2.840   0.699 -0.3272  0.7522  0.6424
 6117TIP3   OH218356   5.395   5.173   0.580 -0.2334  0.3527 -0.1666
 6117TIP3    H118357   5.371   5.081   0.570  0.7315 -0.0932  1.3056
 6117TIP3    H218358   5.465   5.173   0.646  1.0696  1.9672 -1.4610
 6118TIP3   OH218359   0.934   4.383   2.648  0.3384 -0.0103  0.6749
 6118TIP3    H118360   1.016   4.388   2.600  1.5096  3.1691  2.7017
 6118TIP3    H218361   0.943   4.305   2.703  0.9633 -0.9745 -0.7426
 6119TIP3   OH218362   2.407   4.679   3.779 -0.2824  0.0111  0.2744
 6119TIP3    H118363   2.341   4.673   3.709  1.2223 -0.8057 -1.1264
 6119TIP3    H218364   2.464   4.751   3.751  0.8073 -0.8606  0.2189
 6120TIP3   OH218365   2.475   2.077   0.952 -0.4829  0.2278 -0.2850
 6120TIP3    H118366   2.557   2.039   0.981 -0.5638  0.9621  0.9673
 6120TIP3    H218367   2.480   2.169   0.978 -0.7997  0.8251 -2.1462
 6121TIP3   OH218368   3.241   3.737   1.088  0.6058 -0.4026 -0.7206
 6121TIP3    H118369   3.211   3.646   1.089  0.5661 -0.3890 -0.6796
 6121TIP3    H218370   3.326   3.735   1.134 -0.2826 -0.1088  1.0236
 6122TIP3   OH218371   0.087   5.293   0.130 -0.2318  0.3041  0.3338
 6122TIP3    H118372   0.139   5.220   0.163 -0.6758  0.1744  0.7608
 6122TIP3    H218373   0.144   5.369   0.139  0.4567 -0.0780 -0.6853
 6123TIP3   OH218374   4.489   4.323   0.249 -0.6389 -0.3099 -0.2161
 6123TIP3    H118375   4.398   4.350   0.248 -0.3683  0.6843  0.5325
 6123TIP3    H218376   4.531   4.382   0.312 -0.0127 -2.4956  1.5530
 6124TIP3   OH218377   3.776   4.569   2.842  0.1516 -0.2649  0.1332
 6124TIP3    H118378   3.744   4.517   2.768  1.0727 -0.2588 -0.2742
 6124TIP3    H218379   3.828   4.507   2.894 -0.5176 -0.2799  0.8100
 6125TIP3   OH218380   5.125   1.496   4.508 -0.3263  0.2165  0.3435
 6125TIP3    H118381   5.079   1.548   4.574 -0.0502 -0.9603  1.5048
 6125TIP3    H218382   5.056   1.442   4.468 -0.5618  1.2239 -0.6448
 6126TIP3   OH218383   2.366   4.157   0.330 -0.0032  0.2274 -0.1622
 6126TIP3    H118384   2.382   4.071   0.290  0.7986  0.1131  0.3857
 6126TIP3    H218385   2.292   4.193   0.281  0.0055 -0.5443 -0.7558
 6127TIP3   OH218386   1.319   4.738   3.209  0.1235 -0.6294  0.0404
 6127TIP3    H118387   1.303   4.649   3.241  2.6024 -0.6174  1.5578
 6127TIP3    H218388   1.394   4.769   3.259 -2.6567  3.7047  2.0938
 6128TIP3   OH218389   2.448   5.676   3.044 -0.1894  0.3367  0.8401
 6128TIP3    H118390   2.497   5.727   2.979  0.2093 -1.9560 -0.7647
 6128TIP3    H218391   2.365   5.656   3.002 -0.7461  0.4641  1.8435
 6129TIP3   OH218392   4.387   2.413   2.652 -0.1302 -0.0413 -0.1913
 6129TIP3    H118393   4.443   2.392   2.727  0.2196  0.2402 -0.3711
 6129TIP3    H218394   4.399   2.340   2.592  1.5975  0.9451 -1.1095
 6130TIP3   OH218395   1.479   3.574   4.211 -0.4314  0.5739 -0.4776
 6130TIP3    H118396   1.568   3.607   4.198  0.0904 -1.0224 -1.2290
 6130TIP3    H218397   1.441   3.573   4.124 -1.2335  1.3090 -0.1509
 6131TIP3   OH218398   6.056   1.176   3.426 -0.9300  0.3476 -0.4198
 6131TIP3    H118399   6.022   1.191   3.514 -0.6545 -2.7580  0.3371
 6131TIP3    H218400   6.151   1.182   3.436 -0.9459  3.0768 -1.2517
 6132TIP3   OH218401   3.745   4.881   0.957 -0.1052 -0.1352 -0.0642
 6132TIP3    H118402   3.684   4.826   1.005 -0.6814 -0.6856 -1.3737
 6132TIP3    H218403   3.732   4.857   0.865  0.4697  1.3401 -0.5708
 6133TIP3   OH218404   4.775  -0.013   2.288 -0.0496 -0.2937  0.2934
 6133TIP3    H118405   4.728   0.038   2.221 -2.4603  0.4136  2.3615
 6133TIP3    H218406   4.827   0.052   2.335 -0.6454 -0.2533  0.9152
 6134TIP3   OH218407   5.055   0.135   0.283  0.2073  0.1709  0.0123
 6134TIP3    H118408   5.034   0.043   0.268  2.6393 -0.2948 -1.2139
 6134TIP3    H218409   5.038   0.149   0.376 -3.5560 -0.4579 -0.4430
 6135TIP3   OH218410   0.722   0.344   4.346  0.6252 -0.1475  0.1332
 6135TIP3    H118411   0.741   0.427   4.390 -0.7443 -0.0309  0.5298
 6135TIP3    H218412   0.787   0.284   4.381  1.0745  0.5332  0.5039
 6136TIP3   OH218413   5.825   5.537   3.824 -0.1384 -0.4311 -0.1943
 6136TIP3    H118414   5.849   5.526   3.916  0.2464 -0.6677 -0.3220
 6136TIP3    H218415   5.736   5.503   3.818  0.0879 -1.0699 -0.0463
 6137TIP3   OH218416   0.321   2.615   3.403  0.2722 -0.3581 -0.5007
 6137TIP3    H118417   0.398   2.595   3.457  0.6397  0.3766 -0.7348
 6137TIP3    H218418   0.247   2.584   3.454  0.5973  0.4874  0.5243
 6138TIP3   OH218419   5.749   2.562   4.833  0.0342 -0.3564  0.0316
 6138TIP3    H118420   5.699   2.532   4.757 -0.6961 -1.9984  1.1311
 6138TIP3    H218421   5.838   2.529   4.817  0.5619  1.5357 -1.3289
 6139TIP3   OH218422   0.556   5.847   1.523  0.0349 -0.6538 -0.1169
 6139TIP3    H118423   0.539   5.781   1.456  0.0233 -1.3774  0.5794
 6139TIP3    H218424   0.566   5.929   1.474  0.9204 -1.3041 -1.0803
 6140TIP3   OH218425   0.443   0.077   3.607 -0.3153 -0.1708 -0.2240
 6140TIP3    H118426   0.520   0.122   3.641 -0.3918 -0.8693  0.9053
 6140TIP3    H218427   0.436  -0.002   3.659 -0.4273 -1.3272 -1.8974
 6141TIP3   OH218428   3.884   1.571   2.712 -0.3072 -0.0048 -0.3649
 6141TIP3    H118429   3.890   1.479   2.736  2.2403  0.3753  0.8712
 6141TIP3    H218430   3.907   1.618   2.792  0.7867  1.5955 -1.5415
 6142TIP3   OH218431   3.931   0.917   1.434  0.7929 -0.3665 -0.1964
 6142TIP3    H118432   3.863   0.953   1.377  0.5439 -0.0474  0.2917
 6142TIP3    H218433   4.009   0.967   1.414  1.3816 -1.9132 -2.0522
 6143TIP3   OH218434   4.998   0.911   1.911  0.3776 -0.3327 -0.0395
 6143TIP3    H118435   5.073   0.928   1.853  0.3738 -1.4277 -0.3852
 6143TIP3    H218436   5.012   0.970   1.985  1.4861 -0.3773 -0.1924
 6144TIP3   OH218437   2.077   4.046   2.300  0.0916  0.3441 -0.6396
 6144TIP3    H118438   2.122   3.964   2.281 -0.9029  0.1742 -2.5330
 6144TIP3    H218439   2.147   4.108   2.321  0.8673 -0.9108  0.6069
 6145TIP3   OH218440   0.644   2.085   3.824 -0.2115 -0.3682  0.3364
 6145TIP3    H118441   0.689   2.046   3.899 -0.4969 -0.3598  0.5152
 6145TIP3    H218442   0.651   2.179   3.838  1.2847 -0.3176 -0.5752
 6146TIP3   OH218443   0.937   2.142   3.692 -0.1956  0.2554 -0.4686
 6146TIP3    H118444   0.858   2.121   3.741  0.0486  0.5294  0.0472
 6146TIP3    H218445   0.958   2.061   3.645 -1.3471  0.4884 -1.4230
 6147TIP3   OH218446   1.384   0.405   5.119  0.1444  0.6188 -0.8651
 6147TIP3    H118447   1.371   0.310   5.124 -1.5289  0.7837 -1.5799
 6147TIP3    H218448   1.437   0.426   5.197  1.9445 -1.0773 -1.5478
 6148TIP3   OH218449   1.246   4.461   2.303  1.0468 -0.0225  0.1955
 6148TIP3    H118450   1.281   4.549   2.317  1.1412 -0.0069 -0.1299
 6148TIP3    H218451   1.247   4.421   2.390  2.5459 -0.2749  0.0781
 6149TIP3   OH218452   0.550   1.281   1.182  0.4909 -0.6006  0.3765
 6149TIP3    H118453   0.524   1.254   1.094  0.0107  0.3221  0.2188
 6149TIP3    H218454   0.625   1.339   1.167  1.5241 -1.8087  0.7083
 6150TIP3   OH218455   2.448   2.267   5.004  0.1209  0.1483  0.7285
 6150TIP3    H118456   2.415   2.182   4.976  0.2672  0.4711 -0.5160
 6150TIP3    H218457   2.465   2.257   5.097  1.8614 -1.7585  0.2779
 6151TIP3   OH218458   6.081   1.610   2.501  0.3698  0.3445  0.0735
 6151TIP3    H118459   6.075   1.612   2.406  1.5188  0.4453 -0.0139
 6151TIP3    H218460   6.043   1.526   2.526  0.1646  0.2715 -0.4766
 6152TIP3   OH218461   6.113   0.189   0.892  0.0211  0.5146 -0.1661
 6152TIP3    H118462   6.131   0.161   0.982  1.4426 -0.9112 -0.8461
 6152TIP3    H218463   6.136   0.282   0.891  1.1000  0.2799  0.6802
 6153TIP3   OH218464   0.893   0.256   1.173 -0.3058  0.4545 -0.2988
 6153TIP3    H118465   0.909   0.331   1.230 -0.5354  0.4629 -0.2472
 6153TIP3    H218466   0.836   0.199   1.224 -1.4871  1.0070 -0.9746
 6154TIP3   OH218467   1.393   1.740   2.163 -0.5073 -0.2355  0.6487
 6154TIP3    H118468   1.359   1.794   2.092 -0.1646  0.6741  1.1663
 6154TIP3    H218469   1.417   1.658   2.120  1.0617  0.8084 -0.5843
 6155TIP3   OH218470   2.170   1.135   4.570  0.1466  0.2660  0.8373
 6155TIP3    H118471   2.201   1.045   4.559 -0.4537 -0.0867  1.8536
 6155TIP3    H218472   2.225   1.170   4.640  0.6091  0.8072  0.2049
 6156TIP3   OH218473   2.914   3.978   5.052 -0.2458 -0.6298  0.0936
 6156TIP3    H118474   3.003   3.987   5.087  0.1493 -2.0072 -0.4941
 6156TIP3    H218475   2.917   4.026   4.969  0.1814 -1.3034 -0.2888
 6157TIP3   OH218476   3.467   0.016   0.840  0.1516  0.0454  0.2052
 6157TIP3    H118477   3.405  -0.033   0.786  1.0309 -0.7781 -0.0811
 6157TIP3    H218478   3.548   0.019   0.789  0.6332  0.3103  0.9556
 6158TIP3   OH218479   2.545   2.303   0.124  0.3947  0.0277 -0.5120
 6158TIP3    H118480   2.609   2.260   0.181  1.1525  1.6157 -0.1173
 6158TIP3    H218481   2.465   2.307   0.177  0.7135  0.3025 -0.0416
 6159TIP3   OH218482   5.270   4.969   3.318  0.6881  0.2532  0.3858
 6159TIP3    H118483   5.217   4.906   3.366  1.1085 -0.4626 -0.0758
 6159TIP3    H218484   5.215   5.047   3.313  0.1676 -0.0622  0.9727
 6160TIP3   OH218485   0.496   4.416   1.587 -0.1812  0.2228  0.0822
 6160TIP3    H118486   0.454   4.498   1.560 -1.3876 -0.6979 -0.9836
 6160TIP3    H218487   0.428   4.369   1.635  0.9143  0.3795  1.8856
 6161TIP3   OH218488   0.294   2.470   4.452  0.8414 -0.6070 -0.2631
 6161TIP3    H118489   0.304   2.552   4.499 -0.9626 -0.9845  0.8686
 6161TIP3    H218490   0.382   2.449   4.422  1.7273  0.6130  1.3267
 6162TIP3   OH218491   0.806   0.916   5.011  0.3869 -0.6161 -0.1223
 6162TIP3    H118492   0.765   0.977   5.073  1.4662  1.2193 -1.1082
 6162TIP3    H218493   0.871   0.869   5.063  0.5961  0.1929  0.3789
 6163TIP3   OH218494   0.789   2.540   3.168  0.2198  0.1042  0.4389
 6163TIP3    H118495   0.744   2.464   3.205 -0.5815  0.2357 -0.2204
 6163TIP3    H218496   0.881   2.515   3.166 -0.0863 -1.0548 -0.2366
 6164TIP3   OH218497   2.850   3.003   4.925  0.2611  0.5730 -0.3975
 6164TIP3    H118498   2.782   2.949   4.965 -0.6029  1.0337 -1.1975
 6164TIP3    H218499   2.930   2.952   4.935 -0.5110 -0.8324 -1.0503
 6165TIP3   OH218500   3.870   5.944   3.435  0.5765 -0.3529 -0.2248
 6165TIP3    H118501   3.908   5.981   3.514  1.2965 -0.6515 -0.4250
 6165TIP3    H218502   3.827   5.863   3.465 -0.6397  0.3913  0.1385
 6166TIP3   OH218503   0.728   2.162   1.130 -0.2913  0.3230  0.8143
 6166TIP3    H118504   0.794   2.136   1.194  0.5457  1.3649  0.4055
 6166TIP3    H218505   0.718   2.256   1.143  0.4560  0.7026 -1.0595
 6167TIP3   OH218506   5.130   0.712   3.907 -0.2679 -0.1975 -0.4003
 6167TIP3    H118507   5.129   0.626   3.865  1.2579  0.6909 -2.4241
 6167TIP3    H218508   5.211   0.713   3.958 -1.9230 -1.1291  2.5445
 6168TIP3   OH218509   6.160   3.320   0.470 -0.5267 -0.6461  0.3301
 6168TIP3    H118510   6.193   3.254   0.531 -0.9921 -0.7967  0.4249
 6168TIP3    H218511   6.202   3.402   0.497  0.3203 -0.9547  0.0009
 6169TIP3   OH218512   3.043   1.395   3.303  0.0271 -0.2947 -0.0803
 6169TIP3    H118513   2.979   1.326   3.282 -1.4061  0.5544  1.2860
 6169TIP3    H218514   3.041   1.453   3.227 -1.0433 -0.1418  0.0485
 6170TIP3   OH218515   0.246   1.637   1.583  0.1717  0.0864  0.3261
 6170TIP3    H118516   0.324   1.591   1.551 -0.2643 -0.9338  0.6709
 6170TIP3    H218517   0.175   1.573   1.571 -0.6429  1.0571 -0.1305
 6171TIP3   OH218518   1.016   1.668   0.499 -0.2639 -0.1574 -0.1995
 6171TIP3    H118519   1.033   1.586   0.454 -1.1117  0.4615 -1.7250
 6171TIP3    H218520   0.968   1.721   0.436 -2.5590  0.3638  1.8440
 6172TIP3   OH218521   0.532   5.669   3.501 -0.1701 -0.2376 -0.0284
 6172TIP3    H118522   0.472   5.730   3.458  0.5755  1.2183  0.9020
 6172TIP3    H218523   0.605   5.660   3.441 -0.3584 -0.3414 -0.2413
 6173TIP3   OH218524   0.503   0.224   4.246 -0.1286  0.7445 -0.4989
 6173TIP3    H118525   0.580   0.264   4.288  0.0678 -0.6917  0.6083
 6173TIP3    H218526   0.430   0.281   4.270  0.4200  1.5260 -0.6452
 6174TIP3   OH218527   4.997   4.305   4.931 -0.2398  0.0383 -0.0281
 6174TIP3    H118528   4.985   4.223   4.884 -0.2152 -1.3021  2.1574
 6174TIP3    H218529   5.079   4.341   4.896 -0.7947 -0.2880 -1.7637
 6175TIP3   OH218530   2.744   3.083   4.322  0.5922  0.4768  0.2886
 6175TIP3    H118531   2.794   3.151   4.367  0.3932  0.6402  0.2660
 6175TIP3    H218532   2.710   3.126   4.244 -1.0579  0.8937  1.1727
 6176TIP3   OH218533   3.856   2.955   1.134 -0.2104  0.2894  0.1293
 6176TIP3    H118534   3.841   3.048   1.150 -1.3643 -0.1197  1.7713
 6176TIP3    H218535   3.834   2.942   1.042  1.0447  1.8198 -0.4229
 6177TIP3   OH218536   2.820   2.944   1.461  0.1267 -0.2661 -0.7868
 6177TIP3    H118537   2.735   2.901   1.468 -0.4397  1.0151  0.7856
 6177TIP3    H218538   2.828   2.966   1.368 -1.0055 -0.8955 -1.0492
 6178TIP3   OH218539   1.777   0.353   1.980 -0.1409 -0.7095 -0.5447
 6178TIP3    H118540   1.788   0.380   1.888 -1.1555 -1.5157 -0.9240
 6178TIP3    H218541   1.717   0.416   2.017  0.0368 -0.5562 -0.5167
 6179TIP3   OH218542   6.168   4.313   3.400 -0.3062 -0.0111 -0.5922
 6179TIP3    H118543   6.112   4.250   3.355 -0.4065  0.3325 -0.9537
 6179TIP3    H218544   6.229   4.343   3.333  0.0675 -0.0980 -0.2947
 6180TIP3   OH218545   4.037   2.523   2.016 -0.6359  0.6989 -0.7614
 6180TIP3    H118546   4.017   2.601   2.068 -1.5795  0.3327 -0.5465
 6180TIP3    H218547   3.993   2.538   1.933 -1.0362  0.2969 -0.6290
 6181TIP3   OH218548   2.635   3.536   3.196 -0.7468  0.0117  0.3564
 6181TIP3    H118549   2.591   3.532   3.111 -2.1151  1.1143  0.9657
 6181TIP3    H218550   2.648   3.629   3.212  0.4057 -0.2281  0.9286
 6182TIP3   OH218551   1.701   3.757   2.881  0.2526 -0.3945  0.3886
 6182TIP3    H118552   1.722   3.670   2.846  0.8604 -0.1811  0.2094
 6182TIP3    H218553   1.758   3.816   2.833  1.3148 -0.1163  1.9134
 6183TIP3   OH218554   3.964   5.168   1.662  0.2096 -0.4497  0.9565
 6183TIP3    H118555   3.906   5.100   1.696 -0.3885  0.2655  1.4109
 6183TIP3    H218556   3.980   5.225   1.738  0.0689  0.3452  0.4024
 6184TIP3   OH218557   2.292   2.723   4.484 -0.1906  0.3302 -0.5988
 6184TIP3    H118558   2.313   2.690   4.397  1.6101  0.5701 -0.2978
 6184TIP3    H218559   2.274   2.816   4.472  0.5221  0.4658 -0.6736
 6185TIP3   OH218560   6.128   1.649   2.240 -0.3940 -0.0792 -0.2060
 6185TIP3    H118561   6.135   1.741   2.214 -1.5484  0.2828  0.6660
 6185TIP3    H218562   6.166   1.600   2.167  1.0560  1.1164 -0.3019
 6186TIP3   OH218563   2.536   1.864   2.986  0.1818  0.4306  0.5810
 6186TIP3    H118564   2.464   1.867   2.923 -2.4273  0.3552  3.3539
 6186TIP3    H218565   2.536   1.950   3.027  3.5737  1.4380 -1.0976
 6187TIP3   OH218566   3.657   4.695   1.138  0.0460 -0.0609 -0.0915
 6187TIP3    H118567   3.605   4.637   1.194  0.5514 -1.2946 -0.8880
 6187TIP3    H218568   3.711   4.744   1.200  1.8495 -2.6030  0.4961
 6188TIP3   OH218569   4.158   2.322   1.705  0.0283 -0.0897 -0.2331
 6188TIP3    H118570   4.228   2.366   1.657  0.3495 -0.6600 -0.3013
 6188TIP3    H218571   4.080   2.335   1.652  0.5295 -1.3758 -1.3323
 6189TIP3   OH218572   0.708   4.094   0.123 -0.7339 -0.1045  0.4199
 6189TIP3    H118573   0.696   4.154   0.050  0.2653 -0.5113 -0.1158
 6189TIP3    H218574   0.698   4.148   0.201 -0.3877  0.6477 -0.0409
 6190TIP3   OH218575   4.979   3.077   3.961 -0.1581  0.7994  0.2448
 6190TIP3    H118576   5.038   3.053   3.890  0.9418 -0.2288  1.4588
 6190TIP3    H218577   4.922   3.001   3.972 -0.7394  1.2002  0.0785
 6191TIP3   OH218578   4.830   5.274   4.019  0.0809 -1.4160  0.0575
 6191TIP3    H118579   4.803   5.190   3.981  0.0414 -0.7786 -1.4036
 6191TIP3    H218580   4.755   5.302   4.071 -0.1549 -1.9868  0.0311
 6192TIP3   OH218581   0.592   1.661   1.227 -0.9175  0.1911  0.2007
 6192TIP3    H118582   0.632   1.576   1.212 -2.8106 -0.6762 -0.2299
 6192TIP3    H218583   0.622   1.686   1.315  0.5834 -0.3432 -0.1283
 6193TIP3   OH218584   3.046   0.472   1.750 -0.2393  0.0954 -0.0902
 6193TIP3    H118585   2.996   0.498   1.828  0.0355  0.0961  0.0880
 6193TIP3    H218586   3.135   0.502   1.768 -0.2362  0.3773 -0.5416
 6194TIP3   OH218587   4.889   3.577   0.419 -0.6827 -0.2168 -0.1078
 6194TIP3    H118588   4.920   3.487   0.410 -1.1861 -0.2575 -1.7813
 6194TIP3    H218589   4.794   3.570   0.409 -0.7010  0.5259 -0.5123
 6195TIP3   OH218590   3.724   5.136   4.916  0.0617 -0.1137  0.0379
 6195TIP3    H118591   3.678   5.159   4.835  0.7667 -3.3107 -1.4019
 6195TIP3    H218592   3.805   5.187   4.912 -0.5949  0.9328 -0.4708
 6196TIP3   OH218593   2.274   2.823   3.336 -0.5317  0.0037 -0.5703
 6196TIP3    H118594   2.330   2.900   3.347 -0.2704 -0.0890 -1.1893
 6196TIP3    H218595   2.212   2.848   3.267 -0.4796 -0.3160 -0.7375
 6197TIP3   OH218596   5.156   4.770   1.411 -0.5265  0.1093  0.3495
 6197TIP3    H118597   5.115   4.817   1.484 -1.6951 -1.7917  0.9880
 6197TIP3    H218598   5.199   4.696   1.452 -0.4299 -0.4962 -0.8090
 6198TIP3   OH218599   3.687   0.767   0.756  0.2689 -0.0612  0.0766
 6198TIP3    H118600   3.692   0.784   0.662 -0.5284 -1.4587 -0.2513
 6198TIP3    H218601   3.630   0.836   0.790  1.0884  0.8363 -0.3500
 6199TIP3   OH218602   4.675   3.645   4.596 -0.7013  0.2466  0.0799
 6199TIP3    H118603   4.771   3.650   4.594 -0.7108  0.2486 -0.5991
 6199TIP3    H218604   4.652   3.667   4.686 -0.0397 -0.1865  0.3643
 6200TIP3   OH218605   0.103   5.743   2.190 -0.8291 -0.3324 -0.4083
 6200TIP3    H118606   0.101   5.739   2.286  2.4548 -1.0509 -0.2457
 6200TIP3    H218607   0.098   5.651   2.162  2.8668 -0.6513 -0.5414
 6201TIP3   OH218608   1.730   5.925   1.327 -0.2921  0.3573 -0.9281
 6201TIP3    H118609   1.638   5.904   1.345 -0.4091  1.1723 -0.5498
 6201TIP3    H218610   1.755   5.865   1.257 -1.7851  1.6554 -2.6572
 6202TIP3   OH218611   2.885   5.463   0.523  0.1268  0.4580 -0.3628
 6202TIP3    H118612   2.972   5.489   0.554 -0.4321  1.7417  0.2160
 6202TIP3    H218613   2.836   5.442   0.602  0.0530 -0.7763 -0.7205
 6203TIP3   OH218614   2.923   2.408   5.066 -0.4540 -0.1054  0.5612
 6203TIP3    H118615   2.852   2.347   5.086 -0.6554  0.1966  0.7728
 6203TIP3    H218616   2.885   2.495   5.081 -0.4773  0.1163 -0.6952
 6204TIP3   OH218617   5.555   0.084   1.193 -0.2490 -0.1921  0.1181
 6204TIP3    H118618   5.592  -0.001   1.171 -1.3735 -0.4500 -0.8737
 6204TIP3    H218619   5.460   0.071   1.189 -0.4586  1.3431 -1.1208
 6205TIP3   OH218620   0.026   2.055   4.786  0.0227 -0.0022 -0.1611
 6205TIP3    H118621   0.049   1.963   4.775 -1.3664 -0.8795  3.0283
 6205TIP3    H218622  -0.068   2.059   4.768  0.4359  1.3135 -2.3819
 6206TIP3   OH218623   2.979   4.421   4.783  0.1389 -0.5435 -0.0233
 6206TIP3    H118624   3.055   4.367   4.762  0.1506 -0.5280 -0.0213
 6206TIP3    H218625   2.987   4.497   4.725 -0.2861 -0.9061 -0.5623
 6207TIP3   OH218626   4.178   5.361   2.874 -0.6569  0.5164  0.0412
 6207TIP3    H118627   4.221   5.444   2.896 -1.3494  1.4302 -1.8425
 6207TIP3    H218628   4.088   5.371   2.907 -0.2019 -0.3768  1.6886
 6208TIP3   OH218629   2.846   5.948   3.914 -0.2535  0.0949  0.7440
 6208TIP3    H118630   2.765   5.910   3.948 -0.7762  0.2512 -0.3078
 6208TIP3    H218631   2.817   6.014   3.852  0.6147 -2.5124 -2.7264
 6209TIP3   OH218632   6.110   4.397   4.215 -0.3125  0.3605 -0.7216
 6209TIP3    H118633   6.139   4.328   4.274  1.7201 -1.1447 -3.3063
 6209TIP3    H218634   6.120   4.478   4.266  0.6420 -0.9088  1.2115
 6210TIP3   OH218635   0.722   3.233   4.611  0.0716 -0.2481  0.3675
 6210TIP3    H118636   0.738   3.270   4.524 -3.0115  0.8143  0.1337
 6210TIP3    H218637   0.762   3.296   4.671  1.4226 -0.5134 -0.2226
 6211TIP3   OH218638   3.320   5.766   1.853  0.3612  0.0611  0.2600
 6211TIP3    H118639   3.343   5.675   1.836 -0.2262 -0.0080 -0.1933
 6211TIP3    H218640   3.245   5.762   1.912 -0.9713  0.1844 -1.3475
 6212TIP3   OH218641   5.927   2.394   0.664 -0.8023  0.6827  0.0447
 6212TIP3    H118642   5.977   2.313   0.660 -0.3465  0.8985  1.1023
 6212TIP3    H218643   5.987   2.460   0.628 -0.8703  0.6831 -0.0655
 6213TIP3   OH218644   4.423   5.132   2.607  0.0842  0.4048  0.5566
 6213TIP3    H118645   4.395   5.145   2.517  0.2107 -0.1050  0.4382
 6213TIP3    H218646   4.342   5.116   2.656  0.0778 -0.0732  0.3947
 6214TIP3   OH218647   5.391   4.932   3.746  0.3185 -0.4477 -0.2188
 6214TIP3    H118648   5.480   4.958   3.722  1.1746 -2.6470  0.3291
 6214TIP3    H218649   5.336   5.005   3.718  2.1979  0.6388 -1.2538
 6215TIP3   OH218650   5.579   1.173   1.299  0.0014  0.2785 -0.1636
 6215TIP3    H118651   5.591   1.268   1.298  1.4338  0.1902  1.7578
 6215TIP3    H218652   5.493   1.158   1.260 -0.3840  2.3881 -0.2042
 6216TIP3   OH218653   5.245   1.883   3.368 -0.0220  0.0402  0.1972
 6216TIP3    H118654   5.261   1.835   3.286 -1.2567 -0.4428  0.2072
 6216TIP3    H218655   5.152   1.904   3.365  0.2038  1.2017  0.8745
 6217TIP3   OH218656   5.480   0.795   1.443  0.3370 -0.0756  0.0647
 6217TIP3    H118657   5.486   0.728   1.375  1.6276  0.6781 -0.6052
 6217TIP3    H218658   5.448   0.873   1.397 -0.6246 -0.0617  0.7230
 6218TIP3   OH218659   3.586   5.846   4.641 -0.1760 -0.3598  0.0049
 6218TIP3    H118660   3.571   5.852   4.546 -1.0611  1.7874  0.2087
 6218TIP3    H218661   3.601   5.936   4.668  1.4408 -1.0980  1.7397
 6219TIP3   OH218662   0.083   4.870   4.766  0.7944  0.5211  0.8632
 6219TIP3    H118663   0.090   4.775   4.774  1.8500  0.6669  2.0187
 6219TIP3    H218664   0.173   4.900   4.756  0.4034  1.3480 -0.6275
 6220TIP3   OH218665   3.597   3.503   4.870 -0.4230 -0.1838 -0.3315
 6220TIP3    H118666   3.589   3.556   4.791  0.1244 -0.2521 -0.4390
 6220TIP3    H218667   3.691   3.505   4.890 -0.6361  0.3587  0.6753
 6221TIP3   OH218668   0.079   0.096   0.708 -0.0792 -0.0928 -0.6856
 6221TIP3    H118669   0.122   0.163   0.761 -0.1086  0.3801 -1.2520
 6221TIP3    H218670   0.146   0.068   0.646  0.0067 -0.7659 -0.3052
 6222TIP3   OH218671   0.286   4.180   0.067  0.1301 -0.3828 -0.3795
 6222TIP3    H118672   0.250   4.095   0.040 -0.2121 -0.3235 -0.1189
 6222TIP3    H218673   0.317   4.166   0.156  0.6201 -0.3909 -0.5475
 6223TIP3   OH218674   2.460   5.652   5.019 -0.0207  0.3320 -0.5815
 6223TIP3    H118675   2.443   5.744   5.002  0.3542  0.3832 -0.7030
 6223TIP3    H218676   2.409   5.631   5.097  0.0536  0.6928 -0.4369
 6224TIP3   OH218677   2.301   4.462   2.934 -0.2992 -0.4272  0.8268
 6224TIP3    H118678   2.365   4.434   2.869 -0.7246 -0.7934  0.5588
 6224TIP3    H218679   2.217   4.450   2.891 -0.5963 -0.8513  1.5108
 6225TIP3   OH218680   5.964   0.829   4.536  0.2572 -0.2051  0.4203
 6225TIP3    H118681   6.013   0.762   4.488 -1.7913 -1.9658  0.5930
 6225TIP3    H218682   5.883   0.839   4.486 -0.6989  0.0260  1.9498
 6226TIP3   OH218683   0.124   3.088   3.542 -0.4703  0.2401  0.4638
 6226TIP3    H118684   0.059   3.145   3.501  0.0650 -0.4627 -1.4577
 6226TIP3    H218685   0.207   3.135   3.532 -0.4281  0.4150  1.4948
 6227TIP3   OH218686   5.331   5.458   0.747  0.0039  0.6819  1.0447
 6227TIP3    H118687   5.248   5.506   0.748  0.4838  1.5584  3.0494
 6227TIP3    H218688   5.310   5.373   0.785  0.0228  0.9163  1.5840
 6228TIP3   OH218689   3.863   1.951   3.201  0.3337 -0.3137  0.1862
 6228TIP3    H118690   3.806   1.951   3.278  0.5377 -0.9033  0.3417
 6228TIP3    H218691   3.944   1.911   3.231  0.6359  0.0093 -0.1820
 6229TIP3   OH218692   4.893   5.470   1.626  0.1126  0.3759 -0.4437
 6229TIP3    H118693   4.954   5.539   1.602 -0.1263  1.1105  0.9257
 6229TIP3    H218694   4.816   5.484   1.570 -0.2575  1.7488  0.3572
 6230TIP3   OH218695   5.666   5.541   2.519  0.4290 -0.6970 -0.3110
 6230TIP3    H118696   5.713   5.563   2.439  0.3250  1.1959  0.1068
 6230TIP3    H218697   5.586   5.592   2.515 -1.1314 -3.0074 -0.4629
 6231TIP3   OH218698   5.147   4.496   0.034 -0.1888 -0.1563  0.0598
 6231TIP3    H118699   5.211   4.449   0.087 -0.0324 -1.1220 -0.9398
 6231TIP3    H218700   5.062   4.462   0.062 -0.1031 -0.7105 -0.3523
 6232TIP3   OH218701   5.257   4.040   1.240 -0.0377 -0.7359 -0.0793
 6232TIP3    H118702   5.185   3.985   1.208 -0.5053 -0.7120  0.8861
 6232TIP3    H218703   5.219   4.127   1.246 -0.2764 -0.9112  1.4400
 6233TIP3   OH218704   4.727   2.515   2.726 -0.0157  0.8591 -0.7326
 6233TIP3    H118705   4.658   2.574   2.755 -0.8835 -0.3858 -0.1889
 6233TIP3    H218706   4.723   2.520   2.630  0.3538  2.1449 -0.6939
 6234TIP3   OH218707   4.486   1.890   4.467  0.2038 -0.6631 -0.0593
 6234TIP3    H118708   4.433   1.853   4.397 -1.3504 -3.1609  2.2308
 6234TIP3    H218709   4.575   1.859   4.450  0.1009 -0.2383 -1.4985
 6235TIP3   OH218710   4.870   2.602   3.319  0.1413  0.0180 -0.0112
 6235TIP3    H118711   4.896   2.570   3.405  1.4625 -1.1596 -0.8129
 6235TIP3    H218712   4.776   2.586   3.315  0.1807 -0.5306  0.9603
 6236TIP3   OH218713   3.418   2.616   2.525 -0.0712 -0.1123  0.3623
 6236TIP3    H118714   3.379   2.650   2.606  0.3522 -0.3002  0.6505
 6236TIP3    H218715   3.371   2.534   2.509 -1.2008  0.6506 -0.4167
 6237TIP3   OH218716   5.482   0.370   4.398 -0.2002 -0.0123  0.1670
 6237TIP3    H118717   5.531   0.355   4.478  1.3348  2.3246 -0.2280
 6237TIP3    H218718   5.447   0.284   4.374  1.8105 -1.3505  1.7066
 6238TIP3   OH218719   5.102   5.159   4.310 -0.3414 -0.0684 -0.3498
 6238TIP3    H118720   5.037   5.186   4.245 -0.1551 -0.5874 -0.7600
 6238TIP3    H218721   5.152   5.090   4.267 -0.3953 -0.6216  0.4372
 6239TIP3   OH218722   4.597   5.788   0.766  0.2594  0.1539  0.4223
 6239TIP3    H118723   4.515   5.803   0.718  0.5215 -1.5314 -0.6207
 6239TIP3    H218724   4.633   5.875   0.780 -0.3463  0.7588 -1.5477
 6240TIP3   OH218725   5.698   5.603   0.167  0.0421 -0.1769 -0.5572
 6240TIP3    H118726   5.780   5.567   0.202 -0.0852  1.2540  1.4346
 6240TIP3    H218727   5.637   5.529   0.170  1.3303 -1.4501 -2.6838
 6241TIP3   OH218728   0.529   3.522   1.567  0.1059 -0.2301  0.6126
 6241TIP3    H118729   0.599   3.587   1.564  1.7633 -1.9317  0.5741
 6241TIP3    H218730   0.500   3.514   1.476  1.2466 -0.8860  0.2768
 6242TIP3   OH218731   0.934   1.498   0.796  0.4325 -0.4202  0.3228
 6242TIP3    H118732   0.895   1.440   0.731  0.3129  0.5791 -0.5036
 6242TIP3    H218733   0.860   1.530   0.848  0.6393 -2.3249  1.9402
 6243TIP3   OH218734   1.048   1.527   3.595  0.1360  0.1095  0.5085
 6243TIP3    H118735   1.105   1.528   3.518  1.4729  1.4240  1.4409
 6243TIP3    H218736   1.105   1.498   3.667  0.0142  2.5505  1.6903
 6244TIP3   OH218737   3.916   4.727   1.693  0.3007 -0.5482 -0.4523
 6244TIP3    H118738   3.885   4.677   1.768 -2.7096  1.4068 -0.2302
 6244TIP3    H218739   3.857   4.704   1.621 -0.5802  1.8707 -0.5841
 6245TIP3   OH218740   1.323   1.824   3.678  0.2501 -0.0593 -0.5171
 6245TIP3    H118741   1.361   1.830   3.765  0.4445 -0.9685 -0.5293
 6245TIP3    H218742   1.366   1.748   3.638  1.2480  1.1925 -1.9399
 6246TIP3   OH218743   1.547   5.858   2.554 -0.5104  0.4916  0.1842
 6246TIP3    H118744   1.615   5.922   2.575 -0.5828  1.1450 -1.4102
 6246TIP3    H218745   1.472   5.912   2.528 -0.2465 -0.1830 -2.2159
 6247TIP3   OH218746   5.030   1.506   3.583  0.7423 -0.0289 -1.1031
 6247TIP3    H118747   4.997   1.566   3.650  0.1028 -0.3968 -1.0790
 6247TIP3    H218748   4.997   1.420   3.610  0.1503 -0.1327 -2.0857
 6248TIP3   OH218749   1.078   3.262   0.561  0.5493  0.6415 -0.0694
 6248TIP3    H118750   1.152   3.234   0.615  1.5359  3.5817  0.3096
 6248TIP3    H218751   1.012   3.291   0.624  0.6286  1.5615 -0.3858
 6249TIP3   OH218752   3.266   0.655   0.124 -0.0306  0.4065  0.3657
 6249TIP3    H118753   3.204   0.582   0.127 -0.4063  0.6940 -0.1550
 6249TIP3    H218754   3.277   0.681   0.215 -0.8268  0.4637  0.4549
 6250TIP3   OH218755   1.078   2.022   4.260 -0.0181 -0.3743 -0.2237
 6250TIP3    H118756   1.022   1.950   4.291  0.1370  0.3126  1.7903
 6250TIP3    H218757   1.059   2.094   4.320  1.1878  0.6809 -1.0715
 6251TIP3   OH218758   2.389   0.606   4.611 -0.6428 -0.0531 -0.2554
 6251TIP3    H118759   2.368   0.549   4.538 -0.2289  0.7351 -1.0036
 6251TIP3    H218760   2.372   0.694   4.579  1.9859  0.5227 -0.3275
 6252TIP3   OH218761   5.290   0.551   2.632  0.2212  0.0354 -0.0665
 6252TIP3    H118762   5.313   0.521   2.720  1.1368 -0.7832 -0.5611
 6252TIP3    H218763   5.255   0.639   2.645 -1.1960 -0.6660  1.2894
 6253TIP3   OH218764   2.658   5.027   4.857  0.1392  0.1299  0.2471
 6253TIP3    H118765   2.746   5.062   4.846 -0.4108  0.9900 -1.9453
 6253TIP3    H218766   2.644   4.974   4.778 -1.6583  0.8435  0.0487
 6254TIP3   OH218767   3.859   0.575   0.477 -0.1826 -0.0769 -0.0015
 6254TIP3    H118768   3.898   0.577   0.565  0.0854  0.0800 -0.1224
 6254TIP3    H218769   3.836   0.667   0.460  1.5527  0.2291 -0.8852
 6255TIP3   OH218770   0.036   4.772   2.813  0.2130 -0.4022 -0.0646
 6255TIP3    H118771   0.097   4.740   2.747 -1.3693 -2.5375 -0.6136
 6255TIP3    H218772  -0.023   4.830   2.764  0.2959 -0.3362 -0.0857
 6256TIP3   OH218773   2.515   2.741   1.943 -0.3215  0.6405 -0.3829
 6256TIP3    H118774   2.605   2.709   1.948 -0.0584  1.3721 -0.4399
 6256TIP3    H218775   2.489   2.752   2.035  0.0061  1.4323 -0.3837
 6257TIP3   OH218776   1.026   3.333   2.497 -0.3529  0.5436 -0.1514
 6257TIP3    H118777   0.990   3.257   2.542  0.5366 -1.6234 -2.7844
 6257TIP3    H218778   0.977   3.337   2.415  1.6769  0.8249 -1.4252
 6258TIP3   OH218779   5.509   0.966   2.796  0.1976 -0.1574  0.1974
 6258TIP3    H118780   5.570   0.893   2.807  0.8689  0.3289 -0.2077
 6258TIP3    H218781   5.455   0.941   2.721  1.3649  0.3653 -0.8590
 6259TIP3   OH218782   4.140   5.250   0.382  0.1472 -0.3501  0.5586
 6259TIP3    H118783   4.187   5.189   0.440  0.4046 -1.2381 -0.5552
 6259TIP3    H218784   4.148   5.211   0.295 -1.3152  0.3029  0.1081
 6260TIP3   OH218785   2.443   0.843   2.559 -0.1182 -0.4771  0.3532
 6260TIP3    H118786   2.394   0.860   2.640 -1.2196  1.2729 -0.6225
 6260TIP3    H218787   2.436   0.924   2.509  2.2448 -0.8111 -0.6627
 6261TIP3   OH218788   2.937   2.109   1.777  0.3746 -0.0007 -0.3590
 6261TIP3    H118789   3.008   2.110   1.713  1.6597  1.3291  0.9954
 6261TIP3    H218790   2.960   2.038   1.837  0.5965  0.4372  0.0865
 6262TIP3   OH218791   1.236   4.168   0.764  0.1310  0.1469  0.3610
 6262TIP3    H118792   1.313   4.112   0.752 -1.1360 -2.0637  1.8576
 6262TIP3    H218793   1.189   4.162   0.680  1.6894  1.8096 -0.6932
 6263TIP3   OH218794   4.467   5.205   2.116  0.1135  0.4123 -0.3559
 6263TIP3    H118795   4.419   5.192   2.198  0.7541  0.7127  0.0702
 6263TIP3    H218796   4.458   5.298   2.097  0.3214  0.4215 -0.4077
 6264TIP3   OH218797   4.423   4.694   3.575  0.3791 -0.1381 -0.2136
 6264TIP3    H118798   4.364   4.707   3.500 -0.9934 -0.3641  0.7864
 6264TIP3    H218799   4.394   4.758   3.640  0.0747 -1.4147  0.9619
 6265TIP3   OH218800   6.063   5.695   1.162  0.5170 -0.1127 -0.3014
 6265TIP3    H118801   6.009   5.741   1.226 -0.3276 -0.2731 -0.8907
 6265TIP3    H218802   6.014   5.701   1.080  1.0506 -0.8790 -0.6889
 6266TIP3   OH218803   5.180   2.413   0.739 -0.4008 -0.0511  1.4107
 6266TIP3    H118804   5.157   2.328   0.775 -0.2496  0.5820  3.0962
 6266TIP3    H218805   5.233   2.455   0.807  0.0155  1.1671  0.3873
 6267TIP3   OH218806   1.600   5.220   5.106 -0.0150  0.3083 -0.2676
 6267TIP3    H118807   1.665   5.232   5.175  0.8746 -0.1880 -1.0190
 6267TIP3    H218808   1.649   5.190   5.030 -1.0987  0.0523 -0.8901
 6268TIP3   OH218809   1.799   3.974   0.342  0.2769  0.2291 -0.7485
 6268TIP3    H118810   1.875   4.031   0.351  1.3934 -1.0695 -1.5454
 6268TIP3    H218811   1.810   3.908   0.411 -0.3787  0.3063 -0.5655
 6269TIP3   OH218812   0.484   0.721   0.279 -0.1453 -0.3840  0.4995
 6269TIP3    H118813   0.548   0.683   0.339  0.1024  0.3629  0.7159
 6269TIP3    H218814   0.461   0.650   0.220  1.3028 -0.5135  0.0622
 6270TIP3   OH218815   4.692   2.037   2.482  0.1099  0.1439 -0.0790
 6270TIP3    H118816   4.731   2.004   2.401  2.5807 -0.8386  1.4164
 6270TIP3    H218817   4.761   2.090   2.522 -0.7901  0.0098  1.7441
 6271TIP3   OH218818   2.993   2.545   2.459 -0.3213 -0.0569  0.0590
 6271TIP3    H118819   2.903   2.577   2.467  0.2336  1.3429  1.0726
 6271TIP3    H218820   2.986   2.466   2.406 -1.6983  2.0558 -3.2033
 6272TIP3   OH218821   5.864   4.069   3.449  0.3044  0.1300  0.1789
 6272TIP3    H118822   5.833   4.112   3.529 -0.5707  1.6999 -0.9385
 6272TIP3    H218823   5.901   3.986   3.479  1.0438  1.1520  2.3419
 6273TIP3   OH218824   3.481   2.140   3.290 -0.0283 -0.2694  0.6288
 6273TIP3    H118825   3.564   2.095   3.305 -0.2340  0.2887  4.4847
 6273TIP3    H218826   3.415   2.070   3.292  0.0118 -0.3342  2.7127
 6274TIP3   OH218827   4.068   5.273   4.600 -0.3388  0.2047  0.5579
 6274TIP3    H118828   4.038   5.321   4.677  1.6186 -0.5749  1.8911
 6274TIP3    H218829   4.011   5.197   4.595  1.4328 -1.4836  3.2959
 6275TIP3   OH218830   1.530   4.000   4.543  0.2800  0.4119  0.1119
 6275TIP3    H118831   1.605   3.985   4.600  1.3039 -1.2300 -1.5496
 6275TIP3    H218832   1.498   3.912   4.523 -0.2223  0.9521 -1.5902
 6276TIP3   OH218833   0.530   5.369   4.689 -0.1153 -0.1849  0.0673
 6276TIP3    H118834   0.582   5.295   4.659  0.3207  0.1878 -0.1044
 6276TIP3    H218835   0.586   5.445   4.675  0.4940 -0.0718  2.7194
 6277TIP3   OH218836   2.881   0.913   4.326 -0.3310 -0.3460  0.4634
 6277TIP3    H118837   2.891   0.835   4.380  2.5202  0.9794  2.0643
 6277TIP3    H218838   2.854   0.982   4.387 -0.8743  0.3749 -0.5502
 6278TIP3   OH218839   0.093   3.453   0.787 -0.9342 -0.5351  0.9832
 6278TIP3    H118840   0.051   3.504   0.857 -0.2575  1.8907 -0.2589
 6278TIP3    H218841   0.181   3.437   0.819 -0.9521 -0.3740  1.1160
 6279TIP3   OH218842   1.938   4.559   4.626  0.1287 -0.2391 -0.2333
 6279TIP3    H118843   1.932   4.526   4.716  0.0758  1.4735  0.4267
 6279TIP3    H218844   1.865   4.518   4.581 -1.6426  1.0604  1.2711
 6280TIP3   OH218845   4.899   1.808   1.743 -0.3198 -0.0734  0.2741
 6280TIP3    H118846   4.864   1.812   1.654 -3.2045 -2.8330  1.1085
 6280TIP3    H218847   4.919   1.715   1.757  2.2190  0.6154  1.8214
 6281TIP3   OH218848   0.896   1.577   5.058 -0.4580 -0.3827 -0.4234
 6281TIP3    H118849   0.932   1.518   5.123 -0.9785 -0.5833 -0.3081
 6281TIP3    H218850   0.809   1.600   5.092 -0.5965 -0.2202 -0.8776
 6282TIP3   OH218851   3.335   3.619   3.709  0.3440 -0.0268  0.2289
 6282TIP3    H118852   3.255   3.612   3.761  1.1211  0.0737  1.4711
 6282TIP3    H218853   3.347   3.532   3.671  0.4848 -0.4826  1.3054
 6283TIP3   OH218854   5.204   4.612   1.827  0.0931  0.4329 -0.1702
 6283TIP3    H118855   5.197   4.517   1.838  1.2257  0.1479 -1.6030
 6283TIP3    H218856   5.243   4.642   1.909 -0.4239 -0.3101  0.3631
 6284TIP3   OH218857   1.861   5.148   0.433  0.2021  0.0605 -0.5791
 6284TIP3    H118858   1.828   5.114   0.516  0.1799 -0.3916 -0.7744
 6284TIP3    H218859   1.796   5.214   0.407  0.5884  0.7475  0.1280
 6285TIP3   OH218860   5.653   2.975   0.427 -0.2655  0.3597 -0.1122
 6285TIP3    H118861   5.621   3.023   0.504  0.4609 -0.3502  0.6663
 6285TIP3    H218862   5.575   2.938   0.387 -0.6955  1.0765  0.0505
 6286TIP3   OH218863   4.175   4.835   1.477  0.6735  0.0344 -0.1761
 6286TIP3    H118864   4.080   4.825   1.468  0.8292 -0.6025 -1.3310
 6286TIP3    H218865   4.186   4.895   1.550 -0.6915  2.1111 -1.5682
 6287TIP3   OH218866   5.275   1.741   2.022  0.2946 -0.1285 -0.4359
 6287TIP3    H118867   5.246   1.805   1.958 -1.0071 -0.8556 -0.6033
 6287TIP3    H218868   5.245   1.775   2.106  0.5910  0.0225 -0.3873
 6288TIP3   OH218869   1.371   4.587   4.158 -0.1079  0.3354 -0.6081
 6288TIP3    H118870   1.301   4.568   4.095  0.8732  0.4636 -1.7820
 6288TIP3    H218871   1.325   4.614   4.237 -1.3926  0.0229 -1.2057
 6289TIP3   OH218872   4.656   4.127   1.079 -0.3353 -0.2348 -0.2947
 6289TIP3    H118873   4.680   4.220   1.075  0.9732 -0.6035 -2.8428
 6289TIP3    H218874   4.568   4.127   1.117 -0.3977  2.0390 -0.2738
 6290TIP3   OH218875   3.570   3.978   3.378  0.7089 -0.3825 -0.6203
 6290TIP3    H118876   3.534   3.910   3.435 -0.6358 -0.6569 -1.7473
 6290TIP3    H218877   3.499   4.042   3.368  2.2190  1.7192  1.1340
 6291TIP3   OH218878   4.966   3.905   3.309  1.1240  0.3230  0.4828
 6291TIP3    H118879   5.027   3.979   3.316 -1.2545  2.4135  0.5805
 6291TIP3    H218880   5.003   3.838   3.366  2.0988  2.4208  2.5102
 6292TIP3   OH218881   4.453   5.568   0.901  0.0189  1.0594 -0.0034
 6292TIP3    H118882   4.495   5.652   0.884 -0.4636  0.8608 -2.6829
 6292TIP3    H218883   4.366   5.576   0.861 -0.1776 -0.5536  0.0206
 6293TIP3   OH218884   6.128   1.207   2.087 -0.3608 -0.0316  0.1946
 6293TIP3    H118885   6.070   1.277   2.117  1.2860  0.8871  1.3771
 6293TIP3    H218886   6.211   1.224   2.131  0.1242 -2.7211  0.5104
 6294TIP3   OH218887   0.459   2.630   2.317  0.2657 -0.6325  0.3758
 6294TIP3    H118888   0.480   2.550   2.269  0.2462 -0.7666  0.5894
 6294TIP3    H218889   0.456   2.698   2.250 -1.8912 -1.1725 -0.1761
 6295TIP3   OH218890   0.040   4.964   2.131  0.1263 -0.2099  0.7884
 6295TIP3    H118891  -0.040   5.015   2.144  0.0402 -0.3845  0.9483
 6295TIP3    H218892   0.086   4.971   2.214  1.4713  1.9302 -0.0590
 6296TIP3   OH218893   0.514   3.226   0.147  0.1131  0.0246  0.1814
 6296TIP3    H118894   0.438   3.170   0.136 -0.2269  0.1337  1.6531
 6296TIP3    H218895   0.542   3.211   0.238  0.6265  1.4441  0.2970
 6297TIP3   OH218896   4.125   1.452   2.248 -0.4307  0.1048  0.1831
 6297TIP3    H118897   4.142   1.488   2.161 -0.8008  0.3964  0.2293
 6297TIP3    H218898   4.087   1.524   2.297 -0.3026 -0.0847  0.5636
 6298TIP3   OH218899   6.336   2.624   1.472 -0.6547 -0.9172 -0.3564
 6298TIP3    H118900   6.256   2.572   1.485 -0.3446 -1.0854  0.9542
 6298TIP3    H218901   6.373   2.590   1.390  0.4874 -4.0643  1.3192
 6299TIP3   OH218902   0.418   2.521   0.541  0.6075 -0.1421  0.5437
 6299TIP3    H118903   0.368   2.465   0.601 -1.1095 -1.6101 -2.0760
 6299TIP3    H218904   0.484   2.463   0.504 -0.2821 -0.1192 -1.1535
 6300TIP3   OH218905   3.835   1.285   0.998  0.1273 -0.2308  0.2529
 6300TIP3    H118906   3.789   1.209   0.964  0.3246 -0.9945  1.6034
 6300TIP3    H218907   3.918   1.250   1.031  1.3495  0.9793 -1.3841
 6301TIP3   OH218908   2.873   3.694   1.096 -0.2018  0.7048 -0.1814
 6301TIP3    H118909   2.907   3.783   1.094 -0.3720  0.7560 -1.5331
 6301TIP3    H218910   2.784   3.701   1.062  1.1591 -0.4845 -4.6497
 6302TIP3   OH218911   3.796   3.380   4.218  0.4207  0.8392  0.8745
 6302TIP3    H118912   3.826   3.387   4.309  0.7631 -1.2634  0.9707
 6302TIP3    H218913   3.754   3.294   4.214 -1.0543  1.5809 -0.5735
 6303TIP3   OH218914   3.577   2.224   4.335 -0.4847 -0.4496  0.1616
 6303TIP3    H118915   3.571   2.128   4.328 -1.0929 -0.3056 -1.6263
 6303TIP3    H218916   3.665   2.245   4.307 -0.4998 -0.4565  0.1082
 6304TIP3   OH218917   3.426   1.707   2.485  0.3639 -0.2640  0.5497
 6304TIP3    H118918   3.442   1.658   2.565  1.0570  1.0620  1.2620
 6304TIP3    H218919   3.511   1.709   2.440 -0.0062 -0.9517 -0.2014
 6305TIP3   OH218920   1.933   0.907   2.774  0.3504  0.4362  0.5281
 6305TIP3    H118921   1.914   0.995   2.804  1.0786 -0.1187  2.7918
 6305TIP3    H218922   2.028   0.906   2.762  0.1423  0.4770 -1.3946
 6306TIP3   OH218923   4.528   5.569   3.694  0.5391  0.0953 -0.1313
 6306TIP3    H118924   4.592   5.498   3.691  0.5697  0.1453 -1.0993
 6306TIP3    H218925   4.577   5.644   3.729  1.4224  0.5067 -2.0977
 6307TIP3   OH218926   3.349   2.548   4.593 -0.1454 -0.3387  0.0337
 6307TIP3    H118927   3.256   2.554   4.613 -0.3271 -1.0139 -0.5553
 6307TIP3    H218928   3.385   2.491   4.660 -0.3936 -1.0564 -0.4307
 6308TIP3   OH218929   2.441   0.497   4.381 -0.4528  0.1028 -0.3080
 6308TIP3    H118930   2.501   0.425   4.360  1.2289  0.7772  1.8212
 6308TIP3    H218931   2.354   0.459   4.371  0.3615 -1.7908 -0.6539
 6309TIP3   OH218932   2.749   4.704   2.221  0.1162  0.6081 -0.1071
 6309TIP3    H118933   2.654   4.704   2.236  0.1418  1.5576  0.1619
 6309TIP3    H218934   2.781   4.775   2.277  0.7976  1.2714 -1.2980
 6310TIP3   OH218935   4.733   0.137   2.856 -0.0892 -0.3278  0.0368
 6310TIP3    H118936   4.680   0.179   2.925 -0.5258 -1.5637  0.4836
 6310TIP3    H218937   4.768   0.210   2.805  0.6043  0.6508  1.8179
 6311TIP3   OH218938   5.183   3.219   4.053 -0.3265 -0.0755 -0.2108
 6311TIP3    H118939   5.244   3.220   3.979  0.2857 -1.3164  0.2479
 6311TIP3    H218940   5.103   3.181   4.017 -0.9182  1.6399 -0.8372
 6312TIP3   OH218941   0.949   0.712   1.247  0.0905 -0.2921 -0.0375
 6312TIP3    H118942   0.854   0.713   1.254  0.1913 -0.2002  1.9772
 6312TIP3    H218943   0.969   0.777   1.180 -1.2218  0.5765  0.3706
 6313TIP3   OH218944   5.067   3.047   3.659  0.3726 -0.1182 -0.0652
 6313TIP3    H118945   5.090   3.140   3.651 -1.5772  0.4618  0.5366
 6313TIP3    H218946   5.150   3.001   3.649  1.5172  1.7344  0.3880
 6314TIP3   OH218947   5.251   2.428  -0.010 -0.3787  0.2228 -0.2253
 6314TIP3    H118948   5.264   2.451   0.082  0.7573  1.7568 -0.7292
 6314TIP3    H218949   5.285   2.503  -0.059  0.2054 -1.0951 -1.9366
 6315TIP3   OH218950   1.149   4.989   2.096  0.3257  0.1585  0.4801
 6315TIP3    H118951   1.152   5.065   2.154 -0.0833  0.3046  0.3121
 6315TIP3    H218952   1.171   5.025   2.010  0.6750 -0.0124  0.4948
 6316TIP3   OH218953   1.574   0.441   0.127 -0.2309  0.2452  0.3580
 6316TIP3    H118954   1.511   0.374   0.153 -1.9498  1.6272 -0.0225
 6316TIP3    H218955   1.604   0.479   0.209  1.0547 -1.1679  0.6009
 6317TIP3   OH218956   5.899   0.872   0.247 -0.8490  0.4635 -0.1943
 6317TIP3    H118957   5.833   0.838   0.307  0.0475  0.9664  1.1461
 6317TIP3    H218958   5.905   0.965   0.269  1.9709 -0.0044  1.4591
 6318TIP3   OH218959   0.047   3.082   2.086  0.0005 -0.4216  0.2481
 6318TIP3    H118960  -0.020   3.044   2.030 -0.5026 -1.3544  1.4312
 6318TIP3    H218961   0.023   3.174   2.094  1.9061  0.6162 -3.6378
 6319TIP3   OH218962   4.840   2.428   3.785  0.4297  0.4686  0.6152
 6319TIP3    H118963   4.909   2.383   3.833 -1.1848 -0.1960  2.4333
 6319TIP3    H218964   4.877   2.514   3.767  1.4850  0.4118  2.2299
 6320TIP3   OH218965   0.265   5.328   2.637  0.2192  0.1532  0.0131
 6320TIP3    H118966   0.214   5.263   2.588 -1.0253  2.0498 -1.3139
 6320TIP3    H218967   0.228   5.326   2.725 -0.1697 -0.5274 -0.1574
 6321TIP3   OH218968   5.745   4.472   4.199 -0.4659  0.5163  0.0703
 6321TIP3    H118969   5.781   4.432   4.278 -0.9625 -0.0370  0.0247
 6321TIP3    H218970   5.713   4.398   4.148 -0.0703  0.8653 -0.6932
 6322TIP3   OH218971   0.287   0.502   0.431 -0.5735 -0.5196 -0.2361
 6322TIP3    H118972   0.194   0.513   0.411 -0.6920 -0.7251  0.1853
 6322TIP3    H218973   0.332   0.514   0.347 -0.6655  3.1715  0.0671
 6323TIP3   OH218974   4.137   2.631   1.592  0.1593  0.0571 -0.2325
 6323TIP3    H118975   4.227   2.658   1.612 -0.7587  1.1125  3.2841
 6323TIP3    H218976   4.087   2.713   1.592 -1.0457 -0.6477 -0.5603
 6324TIP3   OH218977   4.569   1.139   4.194 -0.7581 -0.4256  0.3355
 6324TIP3    H118978   4.501   1.199   4.163 -0.3739 -0.5322 -0.7535
 6324TIP3    H218979   4.650   1.189   4.187 -0.1279 -1.6592 -2.5745
 6325TIP3   OH218980   2.207   4.626   4.629 -0.1511  0.4447  0.0845
 6325TIP3    H118981   2.220   4.664   4.542  1.7027 -1.5891 -0.6229
 6325TIP3    H218982   2.115   4.600   4.630 -0.0320 -0.1794 -1.5974
 6326TIP3   OH218983   2.603   1.128   1.997  0.6385  0.3264 -0.2923
 6326TIP3    H118984   2.569   1.112   1.909  2.0087  1.8017 -1.1577
 6326TIP3    H218985   2.669   1.059   2.010  1.8566  1.2660 -1.2803
 6327TIP3   OH218986   6.103   4.982   0.560  0.3425 -0.6080  0.1606
 6327TIP3    H118987   6.136   4.963   0.648  1.5438  1.8887  0.3193
 6327TIP3    H218988   6.011   5.005   0.573  0.3528 -0.8348  0.6560
 6328TIP3   OH218989   5.831   4.618   1.478  0.2072  0.3910 -0.4646
 6328TIP3    H118990   5.791   4.679   1.539 -1.0321  0.2168 -1.0790
 6328TIP3    H218991   5.883   4.673   1.419 -0.8101  0.8502 -0.9427
 6329TIP3   OH218992   3.674   2.926   0.592  0.6119 -0.6748  0.3630
 6329TIP3    H118993   3.656   2.832   0.599  0.1057 -0.5850  0.3096
 6329TIP3    H218994   3.701   2.938   0.501  1.0831 -0.8338  0.4800
 6330TIP3   OH218995   3.238   2.730   0.809 -0.3137 -0.1717 -0.5648
 6330TIP3    H118996   3.220   2.644   0.848 -2.4574  0.5856  0.2603
 6330TIP3    H218997   3.208   2.722   0.719  0.8028 -0.6721 -0.9162
 6331TIP3   OH218998   1.426   4.893   4.148 -0.1122  0.3395  0.0944
 6331TIP3    H118999   1.479   4.959   4.193 -1.0437  1.2292 -0.0800
 6331TIP3    H219000   1.465   4.810   4.174  0.2915  0.8911  1.3555
 6332TIP3   OH219001   6.277   3.865   2.116 -0.0519  0.0001  0.0281
 6332TIP3    H119002   6.344   3.913   2.068 -0.8354  1.9292  0.7752
 6332TIP3    H219003   6.278   3.902   2.204 -1.0047 -1.0534  0.5195
 6333TIP3   OH219004   1.810   2.300   4.184  0.0551 -0.9668 -0.0341
 6333TIP3    H119005   1.897   2.339   4.192  0.3088 -0.7331 -2.8976
 6333TIP3    H219006   1.754   2.371   4.152 -0.9339 -1.4278  0.6082
 6334TIP3   OH219007   4.889   5.507   4.894 -0.2810 -0.1097 -0.0588
 6334TIP3    H119008   4.977   5.471   4.884  0.1570  0.2188  2.1437
 6334TIP3    H219009   4.833   5.448   4.843  1.1142 -0.6289 -1.0592
 6335TIP3   OH219010   0.273   1.237   3.720  0.7800 -0.3081 -0.2398
 6335TIP3    H119011   0.346   1.292   3.751 -0.6624  0.7004  1.5845
 6335TIP3    H219012   0.216   1.298   3.674  0.5699 -0.8910 -0.7536
 6336TIP3   OH219013   1.872   3.114   0.790 -0.0601 -0.3285  0.0552
 6336TIP3    H119014   1.890   3.026   0.825 -2.3191 -0.9262 -0.1189
 6336TIP3    H219015   1.877   3.103   0.695  2.3266  0.4181  0.0352
 6337TIP3   OH219016   5.556   4.728   2.090  0.3010 -0.1510 -0.2861
 6337TIP3    H119017   5.489   4.772   2.039  3.4199  3.6217 -1.6609
 6337TIP3    H219018   5.529   4.739   2.181 -1.0746  0.9829 -0.7937
 6338TIP3   OH219019   4.643   1.207   1.397 -0.1599 -0.5524 -0.1108
 6338TIP3    H119020   4.597   1.283   1.433  1.7476  0.7068 -0.2273
 6338TIP3    H219021   4.573   1.146   1.374 -1.9479  2.0282 -2.0973
 6339TIP3   OH219022   0.507   5.742   2.237  0.5060 -0.6771 -0.5927
 6339TIP3    H119023   0.588   5.732   2.187  0.4679 -1.7224 -0.4572
 6339TIP3    H219024   0.459   5.661   2.222 -1.1600  0.4444 -1.7991
 6340TIP3   OH219025   2.406   1.165   0.789  0.3165 -0.1692 -0.0568
 6340TIP3    H119026   2.487   1.183   0.838  1.9946  0.5699 -2.8990
 6340TIP3    H219027   2.427   1.088   0.736 -1.0867 -0.3431 -0.3988
 6341TIP3   OH219028   4.813   5.268   0.124  0.2910  0.5044  0.1722
 6341TIP3    H119029   4.881   5.222   0.174 -2.1993 -2.0970  1.3963
 6341TIP3    H219030   4.802   5.351   0.171 -0.7475 -1.1226  3.0827
 6342TIP3   OH219031   4.346   4.213   2.095  0.2910 -0.2198  0.2237
 6342TIP3    H119032   4.301   4.204   2.179 -1.3640 -1.1797 -0.7281
 6342TIP3    H219033   4.396   4.295   2.103 -1.0573  0.5064  1.5844
 6343TIP3   OH219034   2.202   0.972   2.744 -0.1580 -0.0660 -0.7048
 6343TIP3    H119035   2.232   1.041   2.684  2.6601 -0.9228 -0.4273
 6343TIP3    H219036   2.212   1.010   2.831 -0.7835 -0.0628 -0.6318
 6344TIP3   OH219037   0.606   1.915   1.730  0.0750 -0.5820  0.5290
 6344TIP3    H119038   0.553   1.974   1.783 -0.0299 -0.8491  0.7211
 6344TIP3    H219039   0.543   1.875   1.669  0.0167 -1.0723  0.9105
 6345TIP3   OH219040   5.330   0.829   4.588 -0.1939  0.0372 -0.2664
 6345TIP3    H119041   5.423   0.847   4.582 -0.2508 -0.1182 -2.2029
 6345TIP3    H219042   5.296   0.897   4.645  0.8232  1.2251 -1.0299
 6346TIP3   OH219043   2.927   1.356   4.061 -0.9057  0.0606  0.1409
 6346TIP3    H119044   2.923   1.423   4.129  3.7097 -0.2703  1.0147
 6346TIP3    H219045   2.961   1.278   4.105 -1.1270 -1.2848 -1.9071
 6347TIP3   OH219046   1.354   2.127   3.062  0.1402  0.1112 -0.0753
 6347TIP3    H119047   1.278   2.109   3.007  0.5941 -1.5317 -0.2171
 6347TIP3    H219048   1.428   2.121   3.002  0.5953 -1.1382  0.5786
 6348TIP3   OH219049   1.791   3.750   0.149  0.4205  0.1365 -0.1465
 6348TIP3    H119050   1.770   3.666   0.190  0.9075  0.1839  0.2034
 6348TIP3    H219051   1.758   3.815   0.210  0.4608  0.2046 -0.1978
 6349TIP3   OH219052   1.840   1.217   4.163 -0.8346 -0.1261 -0.2849
 6349TIP3    H119053   1.754   1.190   4.194  0.1820 -0.4962  2.5887
 6349TIP3    H219054   1.901   1.174   4.223  1.2619  1.4812 -1.1251
 6350TIP3   OH219055   1.410   1.616   3.490 -0.4288 -0.6793  0.3782
 6350TIP3    H119056   1.326   1.572   3.480 -0.1794 -0.7743 -1.7966
 6350TIP3    H219057   1.449   1.613   3.403  1.1646  0.7110  0.9883
 6351TIP3   OH219058   5.422   2.186   0.572  0.4170 -0.0134 -0.5584
 6351TIP3    H119059   5.410   2.275   0.541 -0.5540 -0.0191 -0.2312
 6351TIP3    H219060   5.467   2.195   0.656  1.2592  0.1050 -1.0150
 6352TIP3   OH219061   0.180   3.194   4.078 -0.3809 -0.0520 -0.4492
 6352TIP3    H119062   0.104   3.163   4.127 -0.8912 -1.1291 -1.8418
 6352TIP3    H219063   0.235   3.238   4.143 -1.6588 -0.2445  0.7969
 6353TIP3   OH219064   3.661   5.828   0.585  0.2751 -0.0394  0.1669
 6353TIP3    H119065   3.692   5.889   0.518  1.8344 -1.2751 -0.3006
 6353TIP3    H219066   3.736   5.816   0.643  0.4466 -2.4632 -0.4752
 6354TIP3   OH219067   0.278   0.356   3.388  0.4802  0.1283 -0.3125
 6354TIP3    H119068   0.240   0.311   3.464 -2.2879  1.1125 -0.9935
 6354TIP3    H219069   0.263   0.296   3.315  0.6262  0.3455 -0.5212
 6355TIP3   OH219070   3.548   4.893   4.698  0.5519  0.2076 -0.2300
 6355TIP3    H119071   3.570   4.978   4.738  1.9311 -1.1284  2.1420
 6355TIP3    H219072   3.459   4.876   4.726  0.3903  0.7088 -0.4248
 6356TIP3   OH219073   3.827   5.763   4.384  0.3974  0.1576  0.3564
 6356TIP3    H119074   3.797   5.817   4.311 -0.2511 -0.5521  0.0770
 6356TIP3    H219075   3.922   5.768   4.380  0.5017 -1.7106 -2.0422
 6357TIP3   OH219076   1.429   5.733   0.247 -0.8152 -0.5216  0.4525
 6357TIP3    H119077   1.415   5.653   0.297  0.3447 -1.0237  0.0238
 6357TIP3    H219078   1.440   5.801   0.313  1.2143 -1.2617  0.9497
 6358TIP3   OH219079   3.868   3.198   2.637  0.1331  0.0580 -0.0518
 6358TIP3    H119080   3.830   3.111   2.646  0.8094 -0.4483 -1.6975
 6358TIP3    H219081   3.836   3.230   2.553 -0.3484  1.5542  0.6637
 6359TIP3   OH219082   1.293   4.068   3.692  0.3424 -0.1051  0.5876
 6359TIP3    H119083   1.275   3.992   3.747  2.4859 -0.0595  1.4524
 6359TIP3    H219084   1.362   4.115   3.739  0.7381  1.0877 -1.1157
 6360TIP3   OH219085   5.294   5.949   4.093 -0.3739  0.0027  0.6676
 6360TIP3    H119086   5.298   5.910   4.180  1.4476 -0.0479  0.5962
 6360TIP3    H219087   5.385   5.948   4.062 -0.9846  0.0066 -1.2432
 6361TIP3   OH219088   4.058   2.485   3.881  0.0294 -0.1486 -0.6053
 6361TIP3    H119089   4.059   2.579   3.865  1.8717  0.1423  0.8403
 6361TIP3    H219090   4.140   2.453   3.843  1.1955 -0.5094  1.9666
 6362TIP3   OH219091   0.697   5.463   2.636  0.7338  0.4093 -0.2134
 6362TIP3    H119092   0.658   5.549   2.624 -0.9278 -0.3767 -0.7360
 6362TIP3    H219093   0.658   5.430   2.717  0.1850 -0.4512 -0.8169
 6363TIP3   OH219094   2.103   0.197   2.818 -0.2107  0.3537 -0.0553
 6363TIP3    H119095   2.089   0.238   2.904 -1.2498 -1.1911  0.5459
 6363TIP3    H219096   2.152   0.263   2.769  0.8908  1.0788  1.8876
 6364TIP3   OH219097   1.645   3.326   0.623 -0.4493  0.0431 -0.2822
 6364TIP3    H119098   1.583   3.254   0.611  0.0266 -0.3379 -0.4859
 6364TIP3    H219099   1.590   3.403   0.634 -0.9636 -0.2424 -0.7818
 6365TIP3   OH219100   5.189   1.011   2.879 -0.1568  0.0037  0.3669
 6365TIP3    H119101   5.252   0.991   2.810  0.0681 -0.6243  0.7419
 6365TIP3    H219102   5.242   1.041   2.953 -0.3535  0.1683  0.4430
 6366TIP3   OH219103   1.060   4.104   4.949 -0.2708  0.6011  0.1651
 6366TIP3    H119104   1.129   4.090   4.884 -1.0428  0.5318 -0.6531
 6366TIP3    H219105   1.103   4.154   5.019  0.1635  2.1231 -1.1403
 6367TIP3   OH219106   2.568   2.084   0.470  0.6009  0.0176 -0.2941
 6367TIP3    H119107   2.480   2.089   0.506 -0.1145 -0.1373 -1.9615
 6367TIP3    H219108   2.573   1.999   0.427  1.0533  0.6014 -1.4516
 6368TIP3   OH219109   5.215   2.731   2.649 -0.2440 -0.1179  0.3612
 6368TIP3    H119110   5.125   2.713   2.620  0.1706 -0.6785 -0.6053
 6368TIP3    H219111   5.213   2.718   2.744 -1.9982  3.1738  0.9409
 6369TIP3   OH219112   3.940   4.822   4.423 -0.0532  0.2850 -0.4160
 6369TIP3    H119113   3.976   4.751   4.370 -2.3156  0.2479 -2.0653
 6369TIP3    H219114   3.918   4.781   4.507 -0.7648 -0.8638 -1.1375
 6370TIP3   OH219115   1.750   3.616   4.197 -0.1016 -0.2616 -0.0207
 6370TIP3    H119116   1.766   3.663   4.115  0.0750  1.0311  0.7237
 6370TIP3    H219117   1.801   3.536   4.189 -0.8789 -0.6423 -1.5809
 6371TIP3   OH219118   1.234   2.839   2.178  0.3114 -0.3671 -0.3122
 6371TIP3    H119119   1.327   2.820   2.168  0.3263 -0.8718  0.6621
 6371TIP3    H219120   1.219   2.836   2.272 -0.9239 -1.5026 -0.5128
 6372TIP3   OH219121   0.643   3.056   1.688  0.3761  0.1547 -0.3947
 6372TIP3    H119122   0.659   2.972   1.732 -0.5605  0.8499  1.3690
 6372TIP3    H219123   0.719   3.109   1.709  0.0149  0.4230  0.2782
 6373TIP3   OH219124   1.847   0.664   1.984 -0.0217 -0.1599  0.3114
 6373TIP3    H119125   1.927   0.698   1.943 -1.0330  1.2122 -0.6323
 6373TIP3    H219126   1.829   0.726   2.055 -0.4457 -0.2394  0.2770
 6374TIP3   OH219127   2.414   2.735   4.728 -0.7629 -0.2015 -0.3713
 6374TIP3    H119128   2.387   2.709   4.640 -0.1896  0.1809 -0.6698
 6374TIP3    H219129   2.355   2.807   4.751 -1.7355 -1.1237  0.0769
 6375TIP3   OH219130   5.531   2.052   2.352  0.4118 -0.4875  0.3839
 6375TIP3    H119131   5.451   2.029   2.304  0.9968  0.1789 -0.9720
 6375TIP3    H219132   5.502   2.062   2.443 -1.2427  0.6073 -0.2041
 6376TIP3   OH219133   4.073   0.659   1.534 -0.0662  0.4759  0.0558
 6376TIP3    H119134   4.081   0.585   1.474  0.5716  0.9325 -0.4335
 6376TIP3    H219135   4.048   0.733   1.478 -0.0977  0.7703  0.4480
 6377TIP3   OH219136   0.988   3.575   1.090 -0.0015 -0.0056  0.6546
 6377TIP3    H119137   1.060   3.637   1.099 -0.4468  0.7760 -0.8912
 6377TIP3    H219138   1.012   3.502   1.148  0.7393  1.3886  2.1940
 6378TIP3   OH219139   2.897   2.627   3.852 -0.3792  0.1074  0.1310
 6378TIP3    H119140   2.985   2.593   3.838 -1.2361 -2.7596  0.9827
 6378TIP3    H219141   2.843   2.579   3.789 -1.4471  1.4176 -0.0029
 6379TIP3   OH219142   4.049   1.962   1.988  0.6407  0.3541  0.6160
 6379TIP3    H119143   4.069   1.933   2.077  1.1419  0.5161  0.5621
 6379TIP3    H219144   4.023   2.054   1.999 -1.0422 -0.1222  0.7984
 6380TIP3   OH219145   1.844   1.664   4.270  0.0362 -0.7163  0.6661
 6380TIP3    H119146   1.776   1.627   4.213 -0.7094 -0.2299  1.2187
 6380TIP3    H219147   1.909   1.699   4.209 -1.2210  0.6709  0.0611
 6381TIP3   OH219148   4.861   4.031   1.255 -0.0989  0.3152 -0.4757
 6381TIP3    H119149   4.871   4.080   1.336  1.6266  1.3805 -1.2877
 6381TIP3    H219150   4.806   4.086   1.200  1.0896  0.9557 -1.0528
 6382TIP3   OH219151   1.010   5.478   3.822  0.0501  0.0174  0.2763
 6382TIP3    H119152   0.959   5.545   3.776 -0.3197  1.2246  2.2844
 6382TIP3    H219153   0.944   5.422   3.863  0.3404 -0.2001  0.4469
 6383TIP3   OH219154   4.423   5.102   4.021  0.4248  0.6725 -0.0570
 6383TIP3    H119155   4.498   5.081   3.964  0.6740  0.3694  0.3744
 6383TIP3    H219156   4.379   5.174   3.977  0.1256 -0.1043 -1.0802
 6384TIP3   OH219157   1.360   3.536   2.305  0.1205 -0.6196 -0.1415
 6384TIP3    H119158   1.360   3.604   2.238 -3.1972  2.1320  2.2353
 6384TIP3    H219159   1.300   3.469   2.271 -0.5015  0.1096 -0.5320
 6385TIP3   OH219160   2.423   4.455   0.782  0.3347  0.1625 -0.0658
 6385TIP3    H119161   2.401   4.543   0.751  0.1927  0.5820  1.1813
 6385TIP3    H219162   2.354   4.433   0.845 -0.3609 -1.3872 -1.2765
 6386TIP3   OH219163   3.931   3.786   1.617  0.3934 -0.1991 -0.0557
 6386TIP3    H119164   3.872   3.861   1.605  1.9110  1.2072  0.9408
 6386TIP3    H219165   3.892   3.717   1.564 -2.9099  0.2138  1.5734
 6387TIP3   OH219166   5.964   1.843   1.530  0.5209 -0.9313  0.0701
 6387TIP3    H119167   6.044   1.885   1.497  0.4790 -0.7753  0.1664
 6387TIP3    H219168   5.991   1.753   1.549  1.0114 -0.5503  1.3108
 6388TIP3   OH219169   2.643   3.423   1.088  0.3940  0.7125  0.0408
 6388TIP3    H119170   2.687   3.376   1.017  2.5716  3.2065 -0.4056
 6388TIP3    H219171   2.587   3.486   1.043  0.3017  1.0020  0.5596
 6389TIP3   OH219172   1.344   1.789   1.240 -0.4403  0.6838 -0.1647
 6389TIP3    H119173   1.310   1.736   1.313  1.2071 -1.3559 -0.7783
 6389TIP3    H219174   1.330   1.879   1.267 -0.2069 -0.0124  2.5436
 6390TIP3   OH219175   6.006   5.010   4.347 -0.0292  0.0691  0.0698
 6390TIP3    H119176   6.081   4.980   4.399 -0.1281 -0.6042 -0.1649
 6390TIP3    H219177   5.934   4.953   4.374 -0.9752  1.9022  1.6548
 6391TIP3   OH219178   2.691   3.503   3.677 -0.5973  0.5407  0.2564
 6391TIP3    H119179   2.762   3.470   3.732 -0.5713 -0.5684 -0.4103
 6391TIP3    H219180   2.615   3.505   3.734 -0.3243  0.4650  0.6270
 6392TIP3   OH219181   4.804   5.822   1.525  0.1561  0.5645 -0.4275
 6392TIP3    H119182   4.724   5.865   1.495 -0.5534 -0.3024  0.1829
 6392TIP3    H219183   4.833   5.772   1.448 -0.1892  0.4504 -0.4871
 6393TIP3   OH219184   1.778   3.911   1.346  0.5483  0.3168 -0.1643
 6393TIP3    H119185   1.717   3.859   1.398 -0.3132  0.9229 -0.5543
 6393TIP3    H219186   1.723   3.970   1.295  1.4475  0.7093 -0.7133
 6394TIP3   OH219187   2.863   0.401   2.843  0.5538  0.3089 -0.4268
 6394TIP3    H119188   2.853   0.474   2.782  2.4046  0.5193 -0.5302
 6394TIP3    H219189   2.955   0.404   2.869  0.7062 -2.0454 -0.5093
 6395TIP3   OH219190   4.667   0.559   0.118  0.3973  0.0545  0.2770
 6395TIP3    H119191   4.727   0.574   0.045  1.7114  1.5337  1.5974
 6395TIP3    H219192   4.591   0.515   0.079  2.5076 -2.4093 -1.3918
 6396TIP3   OH219193   5.050   5.663   1.577 -0.1657  0.1592  0.0010
 6396TIP3    H119194   5.047   5.631   1.487  0.7710  0.6595 -0.2164
 6396TIP3    H219195   5.013   5.751   1.572  2.5025  1.3251 -0.4323
 6397TIP3   OH219196   6.310   4.744   3.840  0.0684  0.0470 -0.7337
 6397TIP3    H119197   6.241   4.679   3.854 -0.0642  0.4121  0.4666
 6397TIP3    H219198   6.390   4.692   3.827 -0.0461 -0.3697  0.1310
 6398TIP3   OH219199   4.167   4.741   0.050 -0.6955 -0.4352  0.6839
 6398TIP3    H119200   4.213   4.822   0.031  1.3343 -0.9942  2.6879
 6398TIP3    H219201   4.198   4.679  -0.016 -0.0942 -0.2838  0.8201
 6399TIP3   OH219202   3.765   1.629   3.278  0.2860  0.1816 -0.0127
 6399TIP3    H119203   3.758   1.676   3.361  1.6287  2.0330 -0.8783
 6399TIP3    H219204   3.858   1.635   3.255  0.0836 -0.9851 -1.2830
 6400TIP3   OH219205   3.681   2.573   4.326 -0.3099 -0.6365 -0.0507
 6400TIP3    H119206   3.763   2.605   4.289 -0.1572 -1.3475 -0.3541
 6400TIP3    H219207   3.708   2.513   4.395 -0.5166 -2.3167 -1.3656
 6401TIP3   OH219208   5.687   3.556   2.451  0.5289 -0.0180 -0.3693
 6401TIP3    H119209   5.756   3.502   2.489  0.2173  0.5495  1.0514
 6401TIP3    H219210   5.720   3.645   2.454 -0.1445  0.2273  0.0668
 6402TIP3   OH219211   0.783   2.856   2.096  0.2303  0.3204 -1.2389
 6402TIP3    H119212   0.832   2.872   2.015  3.3756 -0.9737  0.2318
 6402TIP3    H219213   0.814   2.770   2.125  0.9542  1.6666  2.4640
 6403TIP3   OH219214   1.567   0.485   2.084 -0.1300 -0.1945  0.3206
 6403TIP3    H119215   1.548   0.561   2.029 -2.0907 -0.3120  0.7357
 6403TIP3    H219216   1.602   0.522   2.164 -0.2655  0.2253  0.1927
 6404TIP3   OH219217   1.388   1.320   1.090  0.0425 -0.0034 -0.2862
 6404TIP3    H119218   1.351   1.243   1.046 -0.8561  1.1060 -1.5392
 6404TIP3    H219219   1.432   1.369   1.020 -0.6175  1.3333  0.1993
 6405TIP3   OH219220   0.881   4.674   2.674 -0.1921  0.1425  0.1950
 6405TIP3    H119221   0.952   4.688   2.736  0.2785 -0.2239 -0.2572
 6405TIP3    H219222   0.869   4.579   2.672 -0.8399  0.2124  0.4261
 6406TIP3   OH219223   1.135   4.921   3.996 -0.7215  0.6138  0.4106
 6406TIP3    H119224   1.199   4.939   3.927 -1.1780 -0.8550 -0.4310
 6406TIP3    H219225   1.188   4.898   4.072 -0.2295  0.8954  0.1598
 6407TIP3   OH219226   3.889   3.465   1.724  0.0022  0.2527 -0.2640
 6407TIP3    H119227   3.853   3.528   1.786 -0.9239 -0.9030  0.3988
 6407TIP3    H219228   3.973   3.503   1.698 -0.0678  1.2641  0.8905
 6408TIP3   OH219229   0.628   1.938   2.450 -0.1215  0.3569  0.5526
 6408TIP3    H119230   0.613   1.932   2.544  0.1323 -1.5080  0.5214
 6408TIP3    H219231   0.554   1.988   2.417 -0.6823  0.2832  1.6479
 6409TIP3   OH219232   5.835   1.112   1.837  0.3420 -0.1416  0.2855
 6409TIP3    H119233   5.923   1.134   1.869  0.7893  0.0785 -1.0494
 6409TIP3    H219234   5.810   1.186   1.783 -0.5158 -0.3807  0.3416
 6410TIP3   OH219235   3.632   1.427   3.160  0.3705  0.6222 -0.0264
 6410TIP3    H119236   3.681   1.496   3.205  2.4157 -1.4857  1.2265
 6410TIP3    H219237   3.699   1.367   3.128 -1.3363 -1.3250 -0.1624
 6411TIP3   OH219238   4.424   4.910   4.886 -0.1544  0.0463  0.2022
 6411TIP3    H119239   4.347   4.933   4.939  1.4276  1.5829  2.0024
 6411TIP3    H219240   4.463   4.836   4.932  1.3193  1.4949  1.4359
 6412TIP3   OH219241   4.191   5.338   1.478  0.3605 -0.0847  0.5198
 6412TIP3    H119242   4.140   5.260   1.457  0.1450  0.2156 -0.0970
 6412TIP3    H219243   4.256   5.344   1.409 -0.7305  1.2459 -0.4384
 6413TIP3   OH219244   4.766   5.597   0.688  0.1427  0.6571  0.0261
 6413TIP3    H119245   4.821   5.640   0.623 -0.0898 -1.1123 -1.4305
 6413TIP3    H219246   4.706   5.664   0.718 -0.8098  1.1947 -2.8075
 6414TIP3   OH219247   0.375   0.088   2.896 -0.1402 -0.0824 -0.3499
 6414TIP3    H119248   0.319   0.117   2.968 -0.9115 -1.3521 -0.3942
 6414TIP3    H219249   0.336   0.128   2.818 -0.5971 -0.4266 -0.3021
 6415TIP3   OH219250   0.501   3.090   4.712 -0.3511  0.1288 -0.4486
 6415TIP3    H119251   0.559   3.152   4.667 -0.5433  0.0927 -0.7497
 6415TIP3    H219252   0.558   3.044   4.773 -0.4284  1.4632  0.6841
 6416TIP3   OH219253   0.066   4.579   4.798 -0.6322 -0.0330 -0.4949
 6416TIP3    H119254   0.117   4.579   4.716  0.3277  1.9874  0.0406
 6416TIP3    H219255   0.093   4.499   4.842 -0.6989 -0.8502 -1.8638
 6417TIP3   OH219256   4.194   0.509   3.644 -0.0925  0.5678  0.2969
 6417TIP3    H119257   4.172   0.546   3.558  0.1929  0.1502  0.0423
 6417TIP3    H219258   4.286   0.483   3.636 -0.3787 -0.4897  0.3715
 6418TIP3   OH219259   1.882   3.215   4.733  0.5888  0.5359 -0.0970
 6418TIP3    H119260   1.801   3.233   4.782  1.3674  1.2535  0.9810
 6418TIP3    H219261   1.888   3.120   4.731 -0.5513  0.4624 -0.6591
 6419TIP3   OH219262   1.883   0.426  -0.008  0.1885  0.2560  0.0739
 6419TIP3    H119263   1.912   0.382   0.072 -2.0443 -0.0592  0.7916
 6419TIP3    H219264   1.843   0.507   0.023 -1.2236 -0.1388 -0.6501
 6420TIP3   OH219265   0.773   4.711   4.439  0.2784 -0.4356  0.3702
 6420TIP3    H119266   0.800   4.788   4.389  0.2171 -0.0348  0.9470
 6420TIP3    H219267   0.699   4.675   4.391 -1.5919  1.5418  1.6106
 6421TIP3   OH219268   0.543   0.999   1.919 -0.1396 -0.0086  0.5623
 6421TIP3    H119269   0.563   1.092   1.928 -0.1727  0.1092 -0.4085
 6421TIP3    H219270   0.484   0.979   1.991  2.1917  0.0107  2.5974
 6422TIP3   OH219271   2.159   4.316   4.686  0.1628 -0.2381  0.0040
 6422TIP3    H119272   2.175   4.387   4.748 -0.9483 -1.4625  1.7950
 6422TIP3    H219273   2.092   4.350   4.627 -0.1877  0.3014  0.7002
 6423TIP3   OH219274   3.942   4.219   3.561  0.3324 -0.7386 -0.1570
 6423TIP3    H119275   3.866   4.266   3.525  0.1278 -0.8475  0.1299
 6423TIP3    H219276   3.920   4.206   3.653  1.5997  1.1020  0.4748
 6424TIP3   OH219277   4.929   4.563   1.553  0.0608 -0.1235 -0.3621
 6424TIP3    H119278   4.930   4.644   1.605  2.6820  0.8397 -1.7201
 6424TIP3    H219279   4.924   4.593   1.462 -1.0517 -1.6304 -0.8353
 6425TIP3   OH219280   5.297   2.927   4.140 -0.2191 -0.0224  0.4924
 6425TIP3    H119281   5.318   2.902   4.230  2.1462  0.7791  0.2241
 6425TIP3    H219282   5.215   2.976   4.148 -0.1809 -0.1644  2.1855
 6426TIP3   OH219283   5.375   1.532   2.361  0.5178 -0.0649 -0.1061
 6426TIP3    H119284   5.282   1.524   2.339  0.4932 -2.3216  0.5446
 6426TIP3    H219285   5.394   1.625   2.351 -1.5264  0.2896 -1.3404
 6427TIP3   OH219286   0.376   2.859   1.656 -0.1174  0.1744  0.6074
 6427TIP3    H119287   0.411   2.877   1.568 -0.8707 -0.2067  0.2169
 6427TIP3    H219288   0.318   2.932   1.673 -1.7973 -0.8954 -0.2282
 6428TIP3   OH219289   5.716   3.841   0.397  0.6135  0.1878 -0.5458
 6428TIP3    H119290   5.631   3.836   0.441  1.2229  2.7090  1.1107
 6428TIP3    H219291   5.746   3.750   0.393 -1.5208 -0.6006  0.0914
 6429TIP3   OH219292   6.157   0.344   2.329 -0.2046  0.4083  0.2216
 6429TIP3    H119293   6.161   0.396   2.410  1.7895  0.6262  0.0330
 6429TIP3    H219294   6.247   0.314   2.315 -0.9388 -1.5617 -0.7037
 6430TIP3   OH219295   5.274   4.879   4.744 -0.4458  0.2954 -0.1778
 6430TIP3    H119296   5.364   4.845   4.745 -1.3515 -2.4045 -0.9917
 6430TIP3    H219297   5.282   4.966   4.706  1.9401  0.5200  0.6859
 6431TIP3   OH219298   5.458   5.316   3.636  0.1639 -0.4964  0.5555
 6431TIP3    H119299   5.379   5.263   3.645  0.5884 -1.5708 -1.4575
 6431TIP3    H219300   5.507   5.275   3.564  1.7585  1.1201  0.6352
 6432TIP3   OH219301   1.306   5.347   0.569 -0.2433 -0.3854  0.0859
 6432TIP3    H119302   1.347   5.311   0.647 -0.8818 -3.2811 -0.8090
 6432TIP3    H219303   1.237   5.405   0.603 -0.8782 -1.9946  1.7267
 6433TIP3   OH219304   0.625   5.365   2.899 -0.2787 -0.1588 -0.3157
 6433TIP3    H119305   0.530   5.372   2.908 -0.4850  1.1799 -2.6919
 6433TIP3    H219306   0.659   5.445   2.940 -0.0271 -1.0539  1.3464
 6434TIP3   OH219307   5.508   5.431   0.531 -0.7185  0.0663  0.1320
 6434TIP3    H119308   5.484   5.460   0.619 -2.9489 -2.8599  0.6443
 6434TIP3    H219309   5.481   5.339   0.528  0.5967 -0.3501 -3.1709
 6435TIP3   OH219310   3.561   2.647   4.817  0.2056 -0.4609 -0.3438
 6435TIP3    H119311   3.502   2.588   4.864 -0.5767 -1.1208 -2.0538
 6435TIP3    H219312   3.527   2.735   4.835  0.2169 -0.6439  0.6599
 6436TIP3   OH219313   4.545   0.678   2.010 -0.6596 -0.6252  0.2930
 6436TIP3    H119314   4.455   0.654   1.985 -0.9850 -0.7368  1.5088
 6436TIP3    H219315   4.566   0.753   1.954 -1.2325 -1.0575 -0.5287
 6437TIP3   OH219316   1.225   3.107   5.108 -0.0503  0.4312  0.2370
 6437TIP3    H119317   1.288   3.051   5.152 -0.3366  0.1228  0.2605
 6437TIP3    H219318   1.150   3.109   5.167  0.9846  3.1293  1.6272
 6438TIP3   OH219319   6.223   3.514   1.533  0.2625  0.0002 -0.1854
 6438TIP3    H119320   6.219   3.425   1.568  0.5913 -0.3360 -1.0004
 6438TIP3    H219321   6.311   3.544   1.554 -0.6956  1.2375  2.6865
 6439TIP3   OH219322   6.025   3.615   0.713 -0.7047 -0.2840 -0.2918
 6439TIP3    H119323   6.043   3.643   0.802  0.1186  0.7556 -0.7638
 6439TIP3    H219324   6.106   3.574   0.684 -1.4187 -1.9037 -0.1127
 6440TIP3   OH219325   1.734   1.759   5.044 -0.6058 -0.1852 -0.0127
 6440TIP3    H119326   1.681   1.689   5.006 -1.8211 -0.3227  1.8013
 6440TIP3    H219327   1.805   1.712   5.090  0.7646 -0.0264 -1.8360
 6441TIP3   OH219328   4.385   0.142   2.902  0.0033 -0.0031 -0.4682
 6441TIP3    H119329   4.441   0.206   2.946 -0.3126 -0.6193  0.8749
 6441TIP3    H219330   4.378   0.070   2.964  0.9951 -1.7116 -2.2475
 6442TIP3   OH219331   1.954   2.745   1.508  0.2221 -0.2756  0.5078
 6442TIP3    H119332   1.985   2.777   1.592  0.1226 -1.4162  0.9995
 6442TIP3    H219333   1.924   2.656   1.525 -0.7738 -0.1786 -0.5153
 6443TIP3   OH219334   0.708   1.522   0.447  0.1544  0.1765 -0.7221
 6443TIP3    H119335   0.670   1.468   0.379 -1.0960 -0.6662  0.5747
 6443TIP3    H219336   0.700   1.611   0.414 -0.2205 -0.2238 -1.7642
 6444TIP3   OH219337   0.938   3.148   4.316 -0.0788 -0.1741 -0.4453
 6444TIP3    H119338   0.860   3.204   4.324 -0.0625 -0.1243 -0.6264
 6444TIP3    H219339   1.009   3.208   4.294  0.0308 -0.2073 -0.1775
 6445TIP3   OH219340   4.964   4.021   0.403  0.4427  0.1442  0.0765
 6445TIP3    H119341   4.950   4.068   0.485  0.0687 -0.9290  0.6461
 6445TIP3    H219342   4.910   3.943   0.411  1.6945 -0.8060 -0.5001
 6446TIP3   OH219343   1.348   1.096   0.931 -0.3025  0.3204  0.3111
 6446TIP3    H119344   1.430   1.063   0.894 -1.6819 -2.1935 -0.7613
 6446TIP3    H219345   1.294   1.117   0.855 -1.6174 -0.7345  0.9008
 6447TIP3   OH219346   6.211   1.406   2.714 -0.4720  0.3594 -0.2135
 6447TIP3    H119347   6.150   1.357   2.769  0.7005  0.9638  1.7439
 6447TIP3    H219348   6.262   1.339   2.669 -1.8075 -0.1515 -1.0346
 6448TIP3   OH219349   5.680   3.067   3.022  0.0638  0.4541  0.4684
 6448TIP3    H119350   5.769   3.064   3.057  0.0352  1.6466  0.6830
 6448TIP3    H219351   5.681   3.140   2.960 -0.8103  0.6082  0.6236
 6449TIP3   OH219352   2.031   3.684   0.820 -0.1333  0.8333 -0.3129
 6449TIP3    H119353   2.082   3.643   0.890  0.4180  2.3043  0.1961
 6449TIP3    H219354   1.941   3.682   0.852  0.0964  1.3665  0.4017
 6450TIP3   OH219355   3.205   4.193   4.866  0.0488  0.7140  0.6830
 6450TIP3    H119356   3.195   4.215   4.959 -0.8663  0.2246  0.7095
 6450TIP3    H219357   3.184   4.099   4.861  0.5520  0.6243  0.0468
 6451TIP3   OH219358   1.629   1.661   1.037  0.2984  0.0692 -0.1189
 6451TIP3    H119359   1.627   1.641   1.130 -2.4114  0.3572 -0.0398
 6451TIP3    H219360   1.627   1.576   0.994  1.2788 -0.0562  0.0654
 6452TIP3   OH219361   4.583   5.885   2.287  0.2027 -0.2177 -0.9565
 6452TIP3    H119362   4.608   5.795   2.309  1.5603  0.3105 -0.2088
 6452TIP3    H219363   4.489   5.881   2.271 -0.2912 -1.2903  1.7060
 6453TIP3   OH219364   1.076   0.010   3.128 -0.0105  0.3858 -0.6209
 6453TIP3    H119365   1.144   0.058   3.081 -0.2942 -0.2975 -1.7865
 6453TIP3    H219366   0.996   0.030   3.080 -0.3551 -0.1456 -0.2741
 6454TIP3   OH219367   0.982   0.421   2.990 -0.6711  0.6010  0.6683
 6454TIP3    H119368   0.930   0.416   3.071 -1.0792 -0.5352  0.3544
 6454TIP3    H219369   0.989   0.330   2.961  0.7473  0.8275  0.2170
 6455TIP3   OH219370   1.537   5.202   3.783 -0.0179  0.2795 -0.6318
 6455TIP3    H119371   1.521   5.261   3.857 -2.0401 -0.1879 -0.6309
 6455TIP3    H219372   1.561   5.260   3.711  1.9140  0.7454  0.3346
 6456TIP3   OH219373   3.128   1.281   5.043 -0.1757 -0.3733 -0.2354
 6456TIP3    H119374   3.051   1.338   5.035 -0.0219 -0.3510 -2.0563
 6456TIP3    H219375   3.191   1.331   5.094 -0.3558  0.7710 -1.0896
 6457TIP3   OH219376   3.227   5.736   4.664 -0.2176 -0.0931  0.5735
 6457TIP3    H119377   3.307   5.689   4.641 -0.4069 -0.9324  1.5903
 6457TIP3    H219378   3.246   5.776   4.749  0.1700  2.2586 -0.5270
 6458TIP3   OH219379   5.294   3.306   5.148  0.0093  0.5568  0.3857
 6458TIP3    H119380   5.262   3.228   5.102 -1.8075  2.5298 -1.9591
 6458TIP3    H219381   5.328   3.272   5.231 -4.0039 -2.3771  1.1511
 6459TIP3   OH219382   2.676   5.480   0.680 -0.4025  0.1317 -0.0608
 6459TIP3    H119383   2.654   5.573   0.668 -0.0214  0.2081 -0.1715
 6459TIP3    H219384   2.604   5.445   0.733 -0.0923  0.6956  0.7435
 6460TIP3   OH219385   1.579   4.235   4.138 -0.4666 -0.6509  0.2404
 6460TIP3    H119386   1.549   4.249   4.228  0.2300  0.5453  0.3212
 6460TIP3    H219387   1.609   4.322   4.110 -1.9129 -0.7037 -1.6264
 6461TIP3   OH219388   3.791   1.602   1.819 -0.2060  0.7277  0.0290
 6461TIP3    H119389   3.728   1.673   1.834 -0.6246  0.5701 -0.8767
 6461TIP3    H219390   3.740   1.536   1.772  0.6933  0.6858 -0.9149
 6462TIP3   OH219391   1.245   4.850   0.006  0.1251 -0.1243 -0.0325
 6462TIP3    H119392   1.309   4.921   0.011 -0.7761  0.6125  2.2480
 6462TIP3    H219393   1.277   4.784   0.067 -0.6663 -0.2727  0.2365
 6463TIP3   OH219394   6.326   2.652   1.180  0.0284 -0.0351  1.0887
 6463TIP3    H119395   6.255   2.700   1.222 -0.7835  0.6475 -0.9404
 6463TIP3    H219396   6.290   2.565   1.161 -0.0083  0.0496  0.7634
 6464TIP3   OH219397   5.543   4.849   4.692 -0.6053  0.5085  0.5083
 6464TIP3    H119398   5.593   4.845   4.610 -1.2377  1.4307  0.0513
 6464TIP3    H219399   5.593   4.796   4.754 -0.2897 -0.5028 -0.5698
 6465TIP3   OH219400   4.329   3.693   1.519  0.3375  0.2195 -0.4050
 6465TIP3    H119401   4.378   3.612   1.509  1.5660  1.0142 -1.1286
 6465TIP3    H219402   4.373   3.754   1.460  0.6467  1.9556  1.5128
 6466TIP3   OH219403   0.778   5.202   4.694 -0.2907 -0.0448  0.1376
 6466TIP3    H119404   0.792   5.243   4.779 -0.5219  0.7392 -0.1995
 6466TIP3    H219405   0.864   5.203   4.653  0.5470 -3.1272  1.4959
 6467TIP3   OH219406   5.028   2.994   2.095  0.2788 -0.2230 -0.2796
 6467TIP3    H119407   5.001   3.014   2.185  0.3030  0.4438 -0.4157
 6467TIP3    H219408   5.050   3.079   2.057 -0.0691 -0.4657 -1.0349
 6468TIP3   OH219409   1.789   5.307   0.808 -0.5303 -0.3818 -0.6786
 6468TIP3    H119410   1.753   5.275   0.725 -4.9510  0.1930  0.7086
 6468TIP3    H219411   1.764   5.241   0.872 -2.8622  1.9012  0.9996
 6469TIP3   OH219412   5.074   0.792   2.939 -0.0644 -0.0308 -0.1351
 6469TIP3    H119413   5.104   0.881   2.919  1.5312 -0.5303 -0.1452
 6469TIP3    H219414   5.102   0.740   2.863 -1.0774 -0.5396 -0.1768
 6470TIP3   OH219415   2.116   5.841   4.217  0.0835 -0.8030 -0.0980
 6470TIP3    H119416   2.077   5.767   4.264  0.7107 -1.7928 -1.0677
 6470TIP3    H219417   2.115   5.913   4.279  0.4844 -1.9408  1.2809
 6471TIP3   OH219418   2.210   1.806   3.628 -0.0628 -0.1865  0.5408
 6471TIP3    H119419   2.135   1.850   3.669 -0.5579 -0.0298 -0.5178
 6471TIP3    H219420   2.187   1.713   3.627 -1.3711  0.0797 -1.9717
 6472TIP3   OH219421   2.001   0.156   1.935 -0.1692 -0.2346 -0.2183
 6472TIP3    H119422   1.934   0.222   1.952 -1.2506 -1.7615  2.0775
 6472TIP3    H219423   2.067   0.171   2.003 -0.5483 -1.5992  0.4952
 6473TIP3   OH219424   5.048   3.536   2.206 -0.2579 -0.1802  0.0430
 6473TIP3    H119425   5.083   3.522   2.118 -0.1061 -2.6326  0.4390
 6473TIP3    H219426   5.125   3.533   2.263 -0.4415  0.6819  0.3574
 6474TIP3   OH219427   1.473   5.739   1.591  0.0229 -0.1123 -0.8713
 6474TIP3    H119428   1.465   5.710   1.682  0.2752 -0.8308 -1.0770
 6474TIP3    H219429   1.385   5.729   1.555 -0.2280  0.7572 -0.5504
 6475TIP3   OH219430   4.597   4.592   1.362 -0.4745  0.5371  0.4075
 6475TIP3    H119431   4.526   4.656   1.371 -1.5884 -0.4609 -0.8551
 6475TIP3    H219432   4.676   4.642   1.382 -1.4153  1.9771  0.7405
 6476TIP3   OH219433   3.916   1.424   2.003 -0.6046  0.3345  0.3713
 6476TIP3    H119434   3.867   1.491   1.955  1.5716  2.6383  1.1462
 6476TIP3    H219435   4.005   1.458   2.006  0.2080 -1.7496  2.4420
 6477TIP3   OH219436   2.131   1.036   4.048  0.2367  0.5818 -0.5988
 6477TIP3    H119437   2.194   1.076   4.107 -0.7387 -0.6216  1.3450
 6477TIP3    H219438   2.045   1.063   4.082 -0.3710 -1.0401 -0.7462
 6478TIP3   OH219439   3.960   0.818   3.659 -0.3356 -0.2651 -0.5823
 6478TIP3    H119440   3.900   0.764   3.710 -1.4501  0.9048 -0.5965
 6478TIP3    H219441   3.991   0.761   3.589  1.2696 -1.9443  1.3330
 6479TIP3   OH219442   0.955   3.907   2.467 -0.5319 -0.1246  0.0884
 6479TIP3    H119443   1.036   3.917   2.418  1.1945 -1.1567  2.5579
 6479TIP3    H219444   0.948   3.813   2.484  1.0636  0.3423  4.8656
 6480TIP3   OH219445   0.595   2.721   3.209  0.4346  0.6880  0.4648
 6480TIP3    H119446   0.637   2.776   3.275  0.1260  1.8810 -0.3133
 6480TIP3    H219447   0.664   2.660   3.182  1.0327  1.2137  0.7633
 6481TIP3   OH219448   1.433   3.125   1.119 -0.3057  0.1877 -0.2398
 6481TIP3    H119449   1.476   3.145   1.202 -0.2763 -1.0197  0.0632
 6481TIP3    H219450   1.479   3.178   1.054  0.5458  0.1578  0.3278
 6482TIP3   OH219451   4.781   1.026   2.781 -0.4422  0.9382  0.5784
 6482TIP3    H119452   4.802   1.076   2.860  0.6834 -0.8861  1.4915
 6482TIP3    H219453   4.688   1.007   2.789 -0.3851  0.9523  1.3834
 6483TIP3   OH219454   5.078   5.792   3.599 -0.0003 -0.2174 -0.2154
 6483TIP3    H119455   5.173   5.793   3.597  0.0232 -1.2913 -0.2617
 6483TIP3    H219456   5.052   5.836   3.517  0.4860 -1.5019 -1.0862
 6484TIP3   OH219457   1.324   3.038   2.876 -0.3193  0.3331  0.1275
 6484TIP3    H119458   1.287   2.950   2.870  1.0518 -0.2839  0.2037
 6484TIP3    H219459   1.249   3.096   2.882 -1.2481 -0.8455  0.1936
 6485TIP3   OH219460   0.503   4.155   1.770  0.1444  0.3714 -0.3318
 6485TIP3    H119461   0.421   4.204   1.772 -0.0598  0.2723  4.0097
 6485TIP3    H219462   0.480   4.068   1.801  1.7643  0.1672  0.4125
 6486TIP3   OH219463   4.605   2.477   3.882  0.8743 -0.3794 -0.2616
 6486TIP3    H119464   4.692   2.473   3.842  1.9042  3.9096  1.0050
 6486TIP3    H219465   4.616   2.437   3.968  2.2750  1.8350  0.6756
 6487TIP3   OH219466   2.104   3.111   4.900  0.2395  0.0275  0.0890
 6487TIP3    H119467   2.010   3.092   4.898  0.3752 -0.6555 -1.0677
 6487TIP3    H219468   2.110   3.206   4.898 -0.4258  0.0914  0.7471
 6488TIP3   OH219469   2.425   0.278   1.427  0.6450 -0.3209  0.4240
 6488TIP3    H119470   2.367   0.203   1.437 -1.2058  1.1371  1.3167
 6488TIP3    H219471   2.497   0.247   1.372 -0.6733 -2.3777 -0.2197
 6489TIP3   OH219472   1.493   3.333   3.829  0.0901 -0.1766  0.0207
 6489TIP3    H119473   1.431   3.297   3.893  2.3957 -1.5309  1.6787
 6489TIP3    H219474   1.519   3.258   3.776 -1.2569  0.8044 -2.1613
 6490TIP3   OH219475   2.972   2.522   1.248 -0.6994  0.3172 -0.2255
 6490TIP3    H119476   2.997   2.512   1.339 -1.4531 -0.2387 -0.0713
 6490TIP3    H219477   2.903   2.589   1.249 -1.0511 -0.0413 -0.3245
 6491TIP3   OH219478   2.547   1.216   4.800  0.2715  0.4666 -0.1188
 6491TIP3    H119479   2.452   1.226   4.792  0.2032  1.1209  1.1794
 6491TIP3    H219480   2.562   1.210   4.895  1.5678  0.7613 -0.2872
 6492TIP3   OH219481   4.241   4.064   0.090  0.4192  0.1361  0.2046
 6492TIP3    H119482   4.276   3.979   0.118  0.6937 -0.2151 -1.1546
 6492TIP3    H219483   4.199   4.046   0.006  1.2961  1.5340 -0.5571
 6493TIP3   OH219484   5.746   4.832   4.468  0.6166  0.3319 -0.2609
 6493TIP3    H119485   5.837   4.803   4.477  0.2516 -0.7654  0.0496
 6493TIP3    H219486   5.698   4.753   4.441 -0.7245  0.1478  2.3809
 6494TIP3   OH219487   3.540   4.054   1.210  0.5273  0.0038  0.0593
 6494TIP3    H119488   3.488   4.010   1.142  0.3950 -0.3083  0.3622
 6494TIP3    H219489   3.541   4.146   1.183  0.5586 -0.1316 -0.4208
 6495TIP3   OH219490   1.693   0.135   4.905 -0.4665 -0.3032  0.5298
 6495TIP3    H119491   1.674   0.197   4.834 -0.5002 -0.9777 -0.0612
 6495TIP3    H219492   1.685   0.188   4.985  1.0405  0.8268 -0.0205
 6496TIP3   OH219493   0.052   4.990   3.734  0.0348  0.4183  0.5270
 6496TIP3    H119494   0.027   4.905   3.771  0.3488  0.3898  0.6743
 6496TIP3    H219495  -0.031   5.027   3.702 -0.2717  0.5093  1.3848
 6497TIP3   OH219496   5.632   4.543   2.738 -0.8324  0.0109 -0.3771
 6497TIP3    H119497   5.594   4.626   2.768  0.2985  0.3274  0.2376
 6497TIP3    H219498   5.561   4.480   2.744 -1.8011  0.9989 -1.1536
 6498TIP3   OH219499   3.945   0.479   1.297 -0.4251 -0.4508 -0.3424
 6498TIP3    H119500   3.894   0.473   1.216 -0.4950 -1.5694 -0.2256
 6498TIP3    H219501   4.007   0.406   1.292  0.5629  0.3448 -0.0627
 6499TIP3   OH219502   3.383   5.472   2.670 -0.4930  0.3797 -0.4214
 6499TIP3    H119503   3.422   5.463   2.757  1.0806  2.3806 -0.8544
 6499TIP3    H219504   3.294   5.502   2.687 -0.5260 -0.2040  0.5106
 6500TIP3   OH219505   1.953   3.501   4.895  0.1649 -0.6024  0.5482
 6500TIP3    H119506   1.971   3.594   4.888 -0.4581 -0.4249  1.1813
 6500TIP3    H219507   1.875   3.487   4.841 -0.8427 -0.3979  1.8933
 6501TIP3   OH219508   1.212   2.527   2.446  0.3886  0.2370 -0.3615
 6501TIP3    H119509   1.158   2.604   2.424  0.1175 -0.0543 -0.7277
 6501TIP3    H219510   1.301   2.561   2.447  0.1886  0.7979  0.5630
 6502TIP3   OH219511   3.552   1.726   4.736  0.2709  0.2390  0.2214
 6502TIP3    H119512   3.586   1.640   4.761  0.1046  0.1262  0.0634
 6502TIP3    H219513   3.526   1.716   4.644 -1.6787 -0.1555  0.7658
 6503TIP3   OH219514   1.176   5.630   5.025  0.0210  0.5721  0.3362
 6503TIP3    H119515   1.175   5.711   4.974  1.3928  0.0078 -0.6532
 6503TIP3    H219516   1.197   5.561   4.961 -1.5418 -0.6627  1.0620
 6504TIP3   OH219517   0.128   1.878   4.118 -0.5411  0.0098 -0.5412
 6504TIP3    H119518   0.052   1.823   4.098 -0.2705 -0.8313  0.6273
 6504TIP3    H219519   0.203   1.828   4.084 -0.3524 -0.0530 -0.0415
 6505TIP3   OH219520   6.263   0.342   0.703 -0.1703  0.0106  0.3112
 6505TIP3    H119521   6.230   0.253   0.712  0.9761 -0.3124  1.6114
 6505TIP3    H219522   6.346   0.343   0.751  0.9693  1.2068 -1.5420
 6506TIP3   OH219523   3.317   1.905   1.294  0.2828  0.0418  0.4957
 6506TIP3    H119524   3.357   1.956   1.364 -0.0552 -0.9572  1.4306
 6506TIP3    H219525   3.386   1.897   1.228  1.7428 -1.8269  2.1515
 6507TIP3   OH219526   5.261   2.980   1.137  0.2756  0.0198  0.4617
 6507TIP3    H119527   5.353   3.000   1.119 -0.6525  2.1970 -2.5103
 6507TIP3    H219528   5.235   3.044   1.203  0.1436  1.5797 -1.0392
 6508TIP3   OH219529   3.490   3.379   5.090  0.0834 -0.2485  0.4251
 6508TIP3    H119530   3.534   3.426   5.019  0.8091 -0.1152  0.9465
 6508TIP3    H219531   3.562   3.344   5.143 -0.4490 -0.5045  0.9916
 6509TIP3   OH219532   0.028   1.720   3.489 -0.3327 -0.1981  0.5802
 6509TIP3    H119533  -0.054   1.749   3.449  0.0233  0.0202  0.0001
 6509TIP3    H219534   0.096   1.763   3.437  0.1702 -1.0283  0.5507
 6510TIP3   OH219535   3.085   1.867   0.033  0.1471  0.0902  0.2493
 6510TIP3    H119536   2.992   1.887   0.027  0.0270 -0.4430  0.2357
 6510TIP3    H219537   3.123   1.902  -0.048  0.0653  0.8421  0.5302
 6511TIP3   OH219538   4.199   5.756   1.342  0.8162  0.0582  0.3064
 6511TIP3    H119539   4.280   5.713   1.314  0.4272 -1.1004  0.9169
 6511TIP3    H219540   4.131   5.689   1.333 -0.6180  1.6943 -2.6247
 6512TIP3   OH219541   3.479   0.226   4.535 -0.1347  0.1153 -0.0058
 6512TIP3    H119542   3.534   0.147   4.537  0.5097  0.5439 -0.2670
 6512TIP3    H219543   3.402   0.200   4.485 -0.8607 -0.9153  1.5391
 6513TIP3   OH219544   0.049   0.285   0.337  0.2798 -0.7045 -0.5377
 6513TIP3    H119545   0.115   0.224   0.369  0.4893 -0.7281 -1.0086
 6513TIP3    H219546   0.054   0.359   0.398  0.8758 -0.6211 -0.6779
 6514TIP3   OH219547   3.105   0.400   4.874  0.0099 -0.2303  0.9504
 6514TIP3    H119548   3.010   0.398   4.869 -0.0768  2.3416 -2.7912
 6514TIP3    H219549   3.125   0.424   4.964 -2.9756  0.8437  1.4131
 6515TIP3   OH219550   6.131   1.843   4.488 -0.4302 -0.5896  0.2275
 6515TIP3    H119551   6.099   1.932   4.505  0.0616 -0.1816 -0.8861
 6515TIP3    H219552   6.058   1.786   4.513  0.2658 -0.1163  3.7967
 6516TIP3   OH219553   0.442   2.135   1.111  0.1187  0.1464 -0.4677
 6516TIP3    H119554   0.534   2.134   1.139 -0.0373 -1.3842  0.1149
 6516TIP3    H219555   0.394   2.166   1.188 -0.0544 -1.4842  0.1317
 6517TIP3   OH219556   3.483   1.480   2.161 -0.5194 -0.2833 -0.0564
 6517TIP3    H119557   3.542   1.407   2.180 -0.7443 -0.1477  1.3151
 6517TIP3    H219558   3.403   1.459   2.209 -0.2892  1.2499  1.0914
 6518TIP3   OH219559   6.295   2.616   2.424 -0.5445 -0.4098 -0.0077
 6518TIP3    H119560   6.249   2.573   2.497 -0.1607 -1.4507 -0.3533
 6518TIP3    H219561   6.387   2.601   2.442 -0.2320  2.2337  1.0267
 6519TIP3   OH219562   1.936   1.596   2.624  0.5557 -0.2980 -0.0144
 6519TIP3    H119563   1.841   1.604   2.634  0.4587 -2.2329  1.3080
 6519TIP3    H219564   1.970   1.599   2.714  1.6454 -0.5090 -0.3985
 6520TIP3   OH219565   3.978   1.946   5.081 -0.0972 -0.2872 -0.2842
 6520TIP3    H119566   4.028   1.865   5.076  2.5355  1.2078  0.0653
 6520TIP3    H219567   3.957   1.967   4.990  0.6948 -0.5133 -0.5311
 6521TIP3   OH219568   6.205   2.925   1.918  0.1850 -0.7149  0.0742
 6521TIP3    H119569   6.181   2.837   1.948  0.2543 -0.7604 -0.0049
 6521TIP3    H219570   6.121   2.968   1.905  0.1200 -1.1384 -0.9862
 6522TIP3   OH219571   4.769   4.465   2.483 -0.2286  0.3150  0.1289
 6522TIP3    H119572   4.702   4.440   2.419 -1.4956 -2.0566  2.1918
 6522TIP3    H219573   4.836   4.396   2.476 -1.5392 -1.3882  2.8205
 6523TIP3   OH219574   3.115   2.725   2.272  0.3707 -0.4420 -0.0993
 6523TIP3    H119575   3.052   2.654   2.260  1.1044 -1.2467  0.5863
 6523TIP3    H219576   3.186   2.703   2.212 -0.0335  0.5119 -0.9417
 6524TIP3   OH219577   6.129   3.986   1.347  0.6467  0.7229  0.3868
 6524TIP3    H119578   6.070   3.913   1.369  1.8225 -0.2240  0.4988
 6524TIP3    H219579   6.089   4.026   1.269  1.1648 -1.5340 -1.1489
 6525TIP3   OH219580   0.498   4.814   4.084 -0.1183  0.1445 -0.2826
 6525TIP3    H119581   0.478   4.727   4.049  0.9225 -0.2818  0.1286
 6525TIP3    H219582   0.413   4.853   4.102 -0.6041 -0.7397 -0.5917
 6526TIP3   OH219583   2.192   0.687   2.680  0.8921  0.3044 -0.6421
 6526TIP3    H119584   2.211   0.780   2.676  0.5436  0.3455 -1.8263
 6526TIP3    H219585   2.180   0.661   2.589  0.6845 -0.8394 -0.3120
 6527TIP3   OH219586   3.361   2.606   5.031  0.0753  0.5826 -0.5302
 6527TIP3    H119587   3.295   2.567   5.089  0.5752  0.3802 -0.0913
 6527TIP3    H219588   3.375   2.693   5.067  0.0267  0.6364 -0.6415
 6528TIP3   OH219589   0.390   5.345   3.539 -0.1808 -0.0432  0.2128
 6528TIP3    H119590   0.354   5.259   3.559 -1.2515 -0.0179 -1.4475
 6528TIP3    H219591   0.449   5.331   3.465 -0.9458  0.7445 -0.5723
 6529TIP3   OH219592   4.572   0.845   3.406 -0.0451 -0.3135  0.0978
 6529TIP3    H119593   4.599   0.813   3.320 -1.5764 -1.3362 -0.0494
 6529TIP3    H219594   4.530   0.929   3.388 -1.0440 -0.8730 -0.2902
 6530TIP3   OH219595   3.079   1.250   1.385  0.3920  0.3540 -0.0363
 6530TIP3    H119596   3.113   1.173   1.431 -0.4809 -0.8411 -1.3112
 6530TIP3    H219597   3.005   1.217   1.334 -1.0564  2.3575  0.6373
 6531TIP3   OH219598   1.505   4.634   2.130  0.2494 -0.0664 -0.1052
 6531TIP3    H119599   1.480   4.649   2.221  2.0656 -0.8333  0.5843
 6531TIP3    H219600   1.460   4.703   2.080 -0.4523  0.6221  1.4190
 6532TIP3   OH219601   1.921   3.464   0.044  1.0173 -0.6436 -0.1212
 6532TIP3    H119602   1.904   3.471  -0.050 -0.4238 -0.4656  0.1255
 6532TIP3    H219603   1.968   3.545   0.065 -0.7336  0.4675 -0.2923
 6533TIP3   OH219604   3.087   1.077   4.567 -0.4309  0.2003 -0.4170
 6533TIP3    H119605   2.999   1.050   4.592  0.3652 -1.6736  0.5883
 6533TIP3    H219606   3.132   0.995   4.545  0.4617  1.2792 -3.1328
 6534TIP3   OH219607   2.565   1.585   2.932 -0.2172  0.5895  0.2865
 6534TIP3    H119608   2.521   1.549   3.008  0.1974  2.2374  1.3367
 6534TIP3    H219609   2.560   1.680   2.942  0.5511  0.8486 -1.3247
 6535TIP3   OH219610   5.487   2.616   2.748  0.3147  0.1564 -0.4763
 6535TIP3    H119611   5.434   2.567   2.811 -3.7017  1.5155 -2.5046
 6535TIP3    H219612   5.515   2.694   2.797  2.1460 -1.3722  1.1240
 6536TIP3   OH219613   4.249   5.947   4.422 -0.4929  0.6027 -0.2929
 6536TIP3    H119614   4.233   5.994   4.340 -2.3240  2.8312  1.2100
 6536TIP3    H219615   4.161   5.930   4.457  0.2405 -0.4578  1.1246
 6537TIP3   OH219616   4.842   2.527   4.579  0.0841  0.0821 -0.3376
 6537TIP3    H119617   4.859   2.455   4.640  0.0035  1.0795  0.9096
 6537TIP3    H219618   4.751   2.516   4.554  0.4004 -0.9324 -1.1205
 6538TIP3   OH219619   1.692   1.697   4.598  0.1638  0.2952 -0.2994
 6538TIP3    H119620   1.652   1.622   4.554  1.6881  0.3995 -2.0027
 6538TIP3    H219621   1.620   1.738   4.647 -1.8683  0.5262 -3.2333
 6539TIP3   OH219622   0.660   0.696   3.741 -0.1007 -0.1859 -0.0716
 6539TIP3    H119623   0.627   0.620   3.789  0.2768 -0.2532  0.0918
 6539TIP3    H219624   0.745   0.667   3.707  1.0673  0.8247  1.7885
 6540TIP3   OH219625   5.501   4.161   3.780  0.3418  0.4804  0.7425
 6540TIP3    H119626   5.451   4.243   3.773 -0.4192  0.2152  2.4791
 6540TIP3    H219627   5.460   4.115   3.854  1.3924 -1.0263  0.4206
 6541TIP3   OH219628   6.019   1.186   3.121 -0.3410 -0.5270 -0.1370
 6541TIP3    H119629   6.031   1.207   3.214  0.3147 -0.3555 -0.2565
 6541TIP3    H219630   6.105   1.201   3.082 -0.7677  0.0334 -0.8941
 6542TIP3   OH219631   4.313   0.074   0.180  0.8338 -0.0610  0.0997
 6542TIP3    H119632   4.263   0.076   0.262 -0.2151 -0.8763 -0.4943
 6542TIP3    H219633   4.404   0.091   0.207  0.3636  0.6858  1.2972
 6543TIP3   OH219634   6.138   4.516   3.824  0.6960  0.4405 -0.0596
 6543TIP3    H119635   6.199   4.485   3.891  0.9330 -1.2791 -1.0181
 6543TIP3    H219636   6.052   4.501   3.862  0.8306  0.9421  0.4647
 6544TIP3   OH219637   0.468   5.223   2.451 -0.6988  0.7693 -0.2521
 6544TIP3    H119638   0.486   5.185   2.537  0.2684  1.2972 -0.2026
 6544TIP3    H219639   0.395   5.283   2.466 -0.8335  0.5164  0.1044
 6545TIP3   OH219640   1.563   0.217   2.379  0.4504  0.0283 -0.1971
 6545TIP3    H119641   1.532   0.147   2.321 -1.3803  2.1987 -2.0195
 6545TIP3    H219642   1.609   0.278   2.321  1.7328  0.5461  1.2981
 6546TIP3   OH219643   2.611   0.797   3.321 -0.1296  0.3633  0.0044
 6546TIP3    H119644   2.575   0.737   3.387  0.1827  0.6219  0.4165
 6546TIP3    H219645   2.656   0.864   3.372  1.2554 -0.1372 -0.4909
 6547TIP3   OH219646   0.279   4.529   4.613  0.2082 -0.2236 -0.2172
 6547TIP3    H119647   0.306   4.438   4.599 -2.2627 -0.8584 -1.5298
 6547TIP3    H219648   0.311   4.575   4.535 -1.9989 -0.9253 -1.6549
 6548TIP3   OH219649   0.527   2.413   1.355 -0.2814 -0.4745 -0.1451
 6548TIP3    H119650   0.448   2.425   1.302  0.4337 -0.3550 -1.1944
 6548TIP3    H219651   0.598   2.445   1.300  0.6242 -1.4761  0.4147
 6549TIP3   OH219652   2.148   5.553   4.937  0.0099  0.6108 -0.3057
 6549TIP3    H119653   2.088   5.623   4.911 -0.0562  0.1730 -1.3945
 6549TIP3    H219654   2.187   5.584   5.019 -0.4378  1.6673 -0.4726
 6550TIP3   OH219655   3.459   1.418   3.948  0.0771 -0.4113 -0.1641
 6550TIP3    H119656   3.402   1.487   3.914 -0.3622 -1.5994 -1.9930
 6550TIP3    H219657   3.548   1.449   3.931 -0.0808  0.3389  0.3694
 6551TIP3   OH219658   6.023   0.496   2.154  0.4839  0.1010 -0.0997
 6551TIP3    H119659   5.939   0.537   2.174  0.1253 -0.8824  0.4691
 6551TIP3    H219660   6.048   0.452   2.234 -0.4485 -3.0054 -1.3691
 6552TIP3   OH219661   2.146   4.815   2.864 -0.5548 -0.3888 -0.2148
 6552TIP3    H119662   2.063   4.772   2.885  0.7438 -2.8688  0.2491
 6552TIP3    H219663   2.157   4.802   2.770 -0.2014 -1.0586 -0.0886
 6553TIP3   OH219664   1.088   0.944   0.841 -0.1654 -0.2747 -0.9090
 6553TIP3    H119665   1.085   1.039   0.829  2.2427  0.2820  1.7971
 6553TIP3    H219666   1.011   0.925   0.896 -0.7837  0.0332 -1.6461
 6554TIP3   OH219667   1.609   4.400   4.719  0.3773 -0.8613 -0.3715
 6554TIP3    H119668   1.658   4.385   4.638 -0.8106 -3.4398 -0.7093
 6554TIP3    H219669   1.653   4.346   4.784 -0.6170 -1.3898 -0.1222
 6555TIP3   OH219670   3.681   1.527   5.096  0.3182  0.0698 -0.2124
 6555TIP3    H119671   3.705   1.617   5.074  1.3603 -0.1585 -0.0358
 6555TIP3    H219672   3.703   1.476   5.018 -2.6292  0.3020 -1.3166
 6556TIP3   OH219673   0.464   0.654   1.538 -0.2860 -0.2200  0.2901
 6556TIP3    H119674   0.399   0.707   1.585 -0.3223 -0.0736  0.0760
 6556TIP3    H219675   0.510   0.717   1.482 -1.2135 -0.6071 -0.9595
 6557TIP3   OH219676   1.039   4.200   4.199 -0.1020  0.4503 -0.0779
 6557TIP3    H119677   1.085   4.117   4.213  0.6524  0.6088 -1.4774
 6557TIP3    H219678   1.070   4.231   4.114 -2.5529  0.7682 -0.9120
 6558TIP3   OH219679   3.908   4.284   4.570  0.1604 -0.1307  0.6917
 6558TIP3    H119680   3.903   4.271   4.664  0.6900  1.7572  1.0399
 6558TIP3    H219681   3.998   4.312   4.554 -0.0048 -0.1181 -0.3186
 6559TIP3   OH219682   3.430   4.967   0.723  0.2900 -0.1931  0.0223
 6559TIP3    H119683   3.389   5.036   0.775  1.4230  1.0287 -0.6374
 6559TIP3    H219684   3.405   4.986   0.633  3.0000  1.2091 -0.5341
 6560TIP3   OH219685   1.293   2.903   1.577 -0.2543  0.3298 -0.1660
 6560TIP3    H119686   1.323   2.869   1.661 -2.3878  0.4681  0.7223
 6560TIP3    H219687   1.203   2.930   1.593 -0.5904  0.7525 -2.4117
 6561TIP3   OH219688   6.228   3.645   2.827  0.0493  0.4936 -0.0173
 6561TIP3    H119689   6.309   3.603   2.798  0.2841  0.5091  0.5952
 6561TIP3    H219690   6.242   3.738   2.808  0.1872  0.4985  0.1005
 6562TIP3   OH219691   4.151   0.394   1.069 -0.1832  0.2422 -0.8954
 6562TIP3    H119692   4.235   0.417   1.030 -0.2901  0.9637 -0.7088
 6562TIP3    H219693   4.106   0.477   1.082 -0.2642  0.0101  0.4951
 6563TIP3   OH219694   2.964   2.370   1.874  0.2266  0.7693  0.2039
 6563TIP3    H119695   2.959   2.278   1.847 -0.1828  1.0409 -0.6806
 6563TIP3    H219696   3.017   2.413   1.807 -0.7736  1.4475 -0.1784
 6564TIP3   OH219697   4.480   5.299   0.379 -0.2966  0.4989  0.1334
 6564TIP3    H119698   4.412   5.233   0.393  0.3058 -0.2195 -0.2785
 6564TIP3    H219699   4.517   5.314   0.467 -0.7480  0.6398  0.3017
 6565TIP3   OH219700   4.828   3.857   1.705 -0.3943  0.0633 -0.0457
 6565TIP3    H119701   4.856   3.945   1.681  0.2472 -0.1683 -0.1700
 6565TIP3    H219702   4.781   3.825   1.628 -1.5637  0.6786  0.3860
 6566TIP3   OH219703   0.928   0.994   2.763  0.1549  0.3176  0.0351
 6566TIP3    H119704   0.911   0.900   2.756  0.1471  0.3294 -0.1125
 6566TIP3    H219705   0.874   1.023   2.835  0.8680  0.0329  0.7025
 6567TIP3   OH219706   1.470   0.268   1.531  0.3003  0.4391  0.2360
 6567TIP3    H119707   1.544   0.272   1.472  1.4128  2.0394  1.6402
 6567TIP3    H219708   1.477   0.182   1.573 -0.0568 -0.3840 -1.3308
 6568TIP3   OH219709   1.132   0.843   2.054  0.6360 -0.4867 -0.1804
 6568TIP3    H119710   1.217   0.842   2.096  0.5789  1.6186  0.1247
 6568TIP3    H219711   1.083   0.772   2.095  1.7125 -0.6740  0.8206
 6569TIP3   OH219712   0.546   0.504   3.898  0.6049 -0.3306  0.0415
 6569TIP3    H119713   0.600   0.513   3.976  1.7732  0.6852 -0.8481
 6569TIP3    H219714   0.543   0.410   3.881  3.1255 -0.3616 -0.5524
 6570TIP3   OH219715   0.195   3.299   3.304 -0.1415  0.0101  0.0446
 6570TIP3    H119716   0.233   3.215   3.278 -0.3297 -0.1637  0.3377
 6570TIP3    H219717   0.101   3.283   3.309 -0.0226 -0.3281  2.1534
 6571TIP3   OH219718   2.873   4.135   0.577 -0.0798  0.1271  0.3614
 6571TIP3    H119719   2.966   4.148   0.558  0.2951 -0.4258  1.6423
 6571TIP3    H219720   2.857   4.191   0.653 -1.2971  1.6905 -0.9971
 6572TIP3   OH219721   4.796   5.768   4.219 -0.2629  0.0594  0.0535
 6572TIP3    H119722   4.728   5.748   4.284  0.2033 -0.9777  0.2435
 6572TIP3    H219723   4.856   5.826   4.264 -0.9775  0.9348 -0.0942
 6573TIP3   OH219724   4.050   3.627   4.371  0.4057 -0.0759 -0.0659
 6573TIP3    H119725   4.144   3.618   4.358  0.3051  0.6928 -1.5800
 6573TIP3    H219726   4.023   3.693   4.307 -1.2124 -0.4907  0.1357
 6574TIP3   OH219727   5.329   2.635   0.612  0.0398 -0.2864  0.3101
 6574TIP3    H119728   5.242   2.629   0.574  0.3113 -0.8087 -0.2603
 6574TIP3    H219729   5.379   2.567   0.566  0.1125 -1.7053  2.3771
 6575TIP3   OH219730   3.162   2.856   0.078  0.4192  0.1401  0.2832
 6575TIP3    H119731   3.205   2.908   0.145  0.2174  0.8340 -0.1172
 6575TIP3    H219732   3.068   2.870   0.093  0.3763  0.8283 -0.5340
 6576TIP3   OH219733   2.692   3.967   1.853  0.3515 -0.0916  0.2655
 6576TIP3    H119734   2.732   3.986   1.768  0.4990  1.8971  0.7273
 6576TIP3    H219735   2.608   3.926   1.832  1.3499 -1.7841 -0.7619
 6577TIP3   OH219736   1.009   0.434   4.585 -0.3604 -0.0419 -0.2092
 6577TIP3    H119737   1.012   0.354   4.533 -1.9490 -1.0284  1.1100
 6577TIP3    H219738   0.916   0.451   4.599 -0.1245  2.7113 -1.3623
 6578TIP3   OH219739   4.450   1.537   0.501  0.2974 -0.1277 -0.2485
 6578TIP3    H119740   4.537   1.564   0.529  0.7162 -0.8307 -0.8128
 6578TIP3    H219741   4.467   1.467   0.437 -0.6635  0.1889 -0.8653
 6579TIP3   OH219742   5.920   0.543   0.299 -0.1703  0.2271  0.2243
 6579TIP3    H119743   5.989   0.505   0.354 -1.4864 -0.2739  1.6277
 6579TIP3    H219744   5.966   0.583   0.226  1.7210  1.2831  1.8928
 6580TIP3   OH219745   5.528   5.515   1.642 -0.8823  0.2823 -0.3223
 6580TIP3    H119746   5.545   5.440   1.585 -3.1626 -0.7934  0.3293
 6580TIP3    H219747   5.468   5.570   1.592 -1.3947  0.2728  0.2690
 6581TIP3   OH219748   1.300   0.668   0.496  0.4559 -0.2756 -0.1388
 6581TIP3    H119749   1.262   0.586   0.465 -1.3428  1.6194 -3.3987
 6581TIP3    H219750   1.243   0.696   0.567  1.4708 -2.0401  1.4718
 6582TIP3   OH219751   5.930   3.511   1.763 -0.2618 -0.1238 -0.0983
 6582TIP3    H119752   5.863   3.567   1.802  1.1150  0.7686  1.0954
 6582TIP3    H219753   5.983   3.571   1.710  0.3543 -0.5636  0.0082
 6583TIP3   OH219754   2.246   4.213   3.368 -0.1950  0.3943 -0.2662
 6583TIP3    H119755   2.336   4.201   3.337 -0.7683 -2.6234 -1.1537
 6583TIP3    H219756   2.215   4.292   3.324  1.4136  0.3600 -1.5375
 6584TIP3   OH219757   5.047   2.252   1.535 -0.2630  0.4846  0.7041
 6584TIP3    H119758   5.002   2.193   1.474 -0.8202 -0.4741  2.0011
 6584TIP3    H219759   5.116   2.292   1.482  0.0562 -1.2428 -0.2846
 6585TIP3   OH219760   1.858   5.409   3.579 -0.5608  0.1052  0.2405
 6585TIP3    H119761   1.886   5.373   3.664  0.2511 -1.9409 -0.8127
 6585TIP3    H219762   1.900   5.494   3.574  0.1903 -0.1620  1.4859
 6586TIP3   OH219763   4.085   0.891   1.915  0.5136  0.0185 -0.0816
 6586TIP3    H119764   4.078   0.984   1.894 -0.3511 -0.4383 -2.0151
 6586TIP3    H219765   4.178   0.870   1.905  0.9785  0.9514  1.8440
 6587TIP3   OH219766   1.530   0.863   0.534  0.0873  0.7019 -0.7377
 6587TIP3    H119767   1.438   0.887   0.531  0.3367  1.6787 -0.9525
 6587TIP3    H219768   1.577   0.944   0.512  1.0152  0.3823 -0.0076
 6588TIP3   OH219769   2.354   0.147   1.070  0.0035  0.4015  0.0068
 6588TIP3    H119770   2.266   0.144   1.034  0.0116 -2.1669  0.0278
 6588TIP3    H219771   2.344   0.119   1.161  0.6004  2.1843  0.6557
 6589TIP3   OH219772   3.568   0.518   3.838 -0.5392  0.0844 -0.0617
 6589TIP3    H119773   3.589   0.431   3.805 -1.0757  0.5590 -1.7710
 6589TIP3    H219774   3.492   0.545   3.787 -0.2935  1.5999  0.3284
 6590TIP3   OH219775   3.024   5.099   1.139 -0.0635  0.6594 -0.0953
 6590TIP3    H119776   2.966   5.133   1.208 -1.5690 -2.8635  0.5935
 6590TIP3    H219777   3.089   5.167   1.127 -0.3590  1.9598  4.0711
 6591TIP3   OH219778   0.396   5.038   3.626 -0.1874  0.1205  0.3483
 6591TIP3    H119779   0.488   5.017   3.609 -0.5841 -2.8106  1.2148
 6591TIP3    H219780   0.393   5.057   3.720 -0.5198 -0.1879  0.4015
 6592TIP3   OH219781   2.704   0.731   2.015 -0.1415 -0.3056 -0.1444
 6592TIP3    H119782   2.688   0.762   2.104 -1.7197 -0.2037 -0.4313
 6592TIP3    H219783   2.626   0.757   1.966  1.7731  2.0096 -2.2270
 6593TIP3   OH219784   0.891   4.418   0.432 -0.0116  0.1037  0.0669
 6593TIP3    H119785   0.854   4.506   0.443 -0.7549  0.0401 -1.5866
 6593TIP3    H219786   0.815   4.362   0.415  0.6977 -0.1344 -2.8725
 6594TIP3   OH219787   2.865   3.068   2.938  0.1604 -0.6595 -0.4065
 6594TIP3    H119788   2.820   2.995   2.896  1.3797 -2.8119  1.7896
 6594TIP3    H219789   2.932   3.095   2.875 -0.4654 -1.2589 -1.3547
 6595TIP3   OH219790   1.404   4.647   1.165  0.0296  0.2090  0.3078
 6595TIP3    H119791   1.368   4.577   1.219  2.0261 -1.0291  0.1118
 6595TIP3    H219792   1.424   4.718   1.226  1.4834 -0.8534  1.0950
 6596TIP3   OH219793   0.340   1.872   1.285  0.0171  0.1008  0.1359
 6596TIP3    H119794   0.420   1.909   1.322  0.9431  0.1878 -1.8569
 6596TIP3    H219795   0.272   1.937   1.307  1.1490  1.8072 -1.1420
 6597TIP3   OH219796   3.281   3.952   0.401  0.3326 -0.1528  0.2586
 6597TIP3    H119797   3.201   3.951   0.348  1.2126  2.3701 -1.3456
 6597TIP3    H219798   3.326   3.871   0.377  0.5474  0.7330 -2.8092
 6598TIP3   OH219799   2.702   5.745   4.261 -0.8524  0.6446  0.0821
 6598TIP3    H119800   2.658   5.783   4.186 -1.8234  0.2507  0.4374
 6598TIP3    H219801   2.650   5.774   4.336  0.1418  1.0944  0.6139
 6599TIP3   OH219802   4.725   2.908   5.142 -0.4667 -1.0267  0.0066
 6599TIP3    H119803   4.800   2.919   5.200  0.1675  1.1595 -1.1105
 6599TIP3    H219804   4.761   2.874   5.061 -0.9834 -1.7299  0.0595
 6600TIP3   OH219805   4.569   4.467   4.460  0.4410 -0.2212  0.6165
 6600TIP3    H119806   4.501   4.535   4.460 -1.8452 -2.3443 -0.5973
 6600TIP3    H219807   4.590   4.455   4.552  0.1339  1.3762  0.9318
 6601TIP3   OH219808   1.722   5.567   0.428 -0.0939  0.2532  0.2128
 6601TIP3    H119809   1.665   5.501   0.388  1.4985 -1.1406  0.1328
 6601TIP3    H219810   1.677   5.592   0.508 -0.6830 -1.0599  0.3188
 6602TIP3   OH219811   3.478   5.510   3.750 -0.5924 -0.0387  0.1351
 6602TIP3    H119812   3.397   5.463   3.731 -0.0266 -1.2018  0.4845
 6602TIP3    H219813   3.535   5.490   3.676 -0.9223  1.5201 -0.5586
 6603TIP3   OH219814   0.662   3.605   5.132 -0.0332 -0.5185 -0.1333
 6603TIP3    H119815   0.754   3.608   5.106  0.3585 -2.4624  0.8656
 6603TIP3    H219816   0.663   3.581   5.224 -1.5354  0.1399  0.0826
 6604TIP3   OH219817   1.448   2.698   2.448 -0.0824 -0.6376 -0.0884
 6604TIP3    H119818   1.441   2.777   2.394  1.2552 -0.6248 -0.2920
 6604TIP3    H219819   1.526   2.653   2.414  0.0684 -1.2604  1.0220
 6605TIP3   OH219820   1.425   2.192   0.756 -0.2357  0.3474 -0.3983
 6605TIP3    H119821   1.479   2.249   0.702 -1.5756  1.1708 -0.9007
 6605TIP3    H219822   1.439   2.223   0.845 -0.4180  1.0210 -0.6012
 6606TIP3   OH219823   0.930   5.367   2.713 -0.5688 -1.0674 -0.4411
 6606TIP3    H119824   0.941   5.273   2.696  0.6146 -1.1307  0.5056
 6606TIP3    H219825   0.836   5.379   2.718 -0.7317 -2.3179 -0.0582
 6607TIP3   OH219826   5.227   4.021   2.031  0.4592 -0.1284 -0.6082
 6607TIP3    H119827   5.313   4.002   2.068  0.1208 -0.5348  0.0008
 6607TIP3    H219828   5.195   3.937   1.999 -0.7025 -0.5201  1.3564
 6608TIP3   OH219829   0.566   0.350   2.758 -0.3365  0.3010 -0.1700
 6608TIP3    H119830   0.637   0.400   2.797 -1.7049  1.5194  0.8720
 6608TIP3    H219831   0.509   0.327   2.832 -1.1381 -0.4790 -0.9947
 6609TIP3   OH219832   1.402   4.300   1.849 -0.6332  0.3155  0.1653
 6609TIP3    H119833   1.483   4.339   1.881 -0.5691  0.4270 -0.1299
 6609TIP3    H219834   1.336   4.325   1.913 -0.8977  2.1627 -0.7656
 6610TIP3   OH219835   0.397   4.128   0.357 -0.0340  0.6850 -0.4310
 6610TIP3    H119836   0.431   4.043   0.385  0.9010  1.4287  0.8539
 6610TIP3    H219837   0.303   4.124   0.375 -0.0389 -0.1530 -0.6116
 6611TIP3   OH219838   4.126   0.663   0.119 -0.3273  0.2012  0.3990
 6611TIP3    H119839   4.196   0.597   0.109  0.4805  0.7268  2.1074
 6611TIP3    H219840   4.126   0.711   0.036  1.6987  0.4860  0.5008
 6612TIP3   OH219841   5.920   1.048   5.157  0.1238  0.2510 -0.4137
 6612TIP3    H119842   6.009   1.047   5.192  2.3765 -0.6444 -5.2847
 6612TIP3    H219843   5.904   0.958   5.128 -2.6725  0.2846  0.6348
 6613TIP3   OH219844   2.924   1.240   1.766  0.5320 -0.1103  0.1710
 6613TIP3    H119845   2.972   1.167   1.725  2.3989  1.3931 -0.4600
 6613TIP3    H219846   2.930   1.223   1.860 -0.5429 -1.6209  0.0091
 6614TIP3   OH219847   1.839   1.433   2.014 -0.0925  0.5183  0.0528
 6614TIP3    H119848   1.875   1.452   1.928  0.3188 -1.4478 -0.2639
 6614TIP3    H219849   1.818   1.339   2.011  0.7785  0.1723  2.3670
 6615TIP3   OH219850   4.841   3.872   0.044 -0.2781 -0.2375  0.3920
 6615TIP3    H119851   4.806   3.901  -0.040  0.9765 -0.1252 -0.1227
 6615TIP3    H219852   4.778   3.808   0.076  0.0633 -1.6015 -1.4807
 6616TIP3   OH219853   1.480   1.489   2.022  0.0515 -0.7432  0.1335
 6616TIP3    H119854   1.493   1.442   2.104  1.6456 -3.6435 -1.5955
 6616TIP3    H219855   1.567   1.518   1.996 -0.4385  0.2381 -0.5018
 6617TIP3   OH219856   0.366   0.176   0.192 -0.3602  0.0538 -0.4533
 6617TIP3    H119857   0.425   0.128   0.135  0.0501  1.2118 -1.0476
 6617TIP3    H219858   0.285   0.126   0.191  0.3700 -1.1896 -0.1745
 6618TIP3   OH219859   6.193   5.485   1.856  0.0394  0.0220 -0.1029
 6618TIP3    H119860   6.230   5.436   1.929 -1.0997  0.3922  0.7492
 6618TIP3    H219861   6.255   5.557   1.841  1.5404 -1.4277 -1.1409
 6619TIP3   OH219862   4.549   4.170   4.498  0.6914 -0.1395 -0.7318
 6619TIP3    H119863   4.542   4.159   4.593 -0.8358 -0.8918 -0.8944
 6619TIP3    H219864   4.548   4.264   4.484  0.0287 -0.0317 -0.0315
 6620TIP3   OH219865   3.472   2.975   2.570  0.2040 -0.4241  0.2340
 6620TIP3    H119866   3.429   2.924   2.501 -0.1880  1.1099 -0.7132
 6620TIP3    H219867   3.403   3.032   2.603  0.5628 -0.6797  1.4662
 6621TIP3   OH219868   2.622   5.350   3.983  0.0585 -0.2677 -0.3376
 6621TIP3    H119869   2.660   5.382   3.901  1.4711  1.0965  0.7906
 6621TIP3    H219870   2.535   5.391   3.986  0.1398 -0.0348 -0.9850
 6622TIP3   OH219871   4.200   0.549   0.363  0.0015 -0.1220  0.2929
 6622TIP3    H119872   4.132   0.594   0.313 -0.5522  0.9206  1.8912
 6622TIP3    H219873   4.228   0.477   0.307 -1.2367  0.4324 -1.0960
 6623TIP3   OH219874   5.390   5.737   0.816  0.3983 -0.6592  0.2870
 6623TIP3    H119875   5.473   5.760   0.774 -1.2257 -0.9342 -3.5100
 6623TIP3    H219876   5.382   5.643   0.803 -0.0634 -0.8340  1.6307
 6624TIP3   OH219877   2.252   0.581   3.531  0.0494  0.0012 -0.1281
 6624TIP3    H119878   2.215   0.494   3.540  0.2729 -0.0054  0.8779
 6624TIP3    H219879   2.200   0.636   3.589 -0.0677  0.5368 -0.7244
 6625TIP3   OH219880   0.989   2.864   1.579  0.1048 -0.0149 -0.5890
 6625TIP3    H119881   0.962   2.898   1.493 -0.2044  2.2644  0.3392
 6625TIP3    H219882   0.950   2.925   1.642  1.3167 -0.9480  1.1359
 6626TIP3   OH219883   3.215   0.388   3.970  0.2771 -0.3525  0.4991
 6626TIP3    H119884   3.120   0.385   3.968  0.1790  1.3839 -0.9433
 6626TIP3    H219885   3.237   0.468   3.921  2.5017 -1.4582 -0.4676
 6627TIP3   OH219886   2.183   4.262   0.834 -0.8917  0.0289  0.0164
 6627TIP3    H119887   2.201   4.249   0.741  2.1424  0.8824  0.3968
 6627TIP3    H219888   2.237   4.197   0.879  0.2863  1.7621  1.2465
 6628TIP3   OH219889   6.203   5.004   3.325  0.3338 -0.2280 -0.0812
 6628TIP3    H119890   6.113   4.973   3.328  0.2471  0.0802  0.8830
 6628TIP3    H219891   6.227   5.017   3.417  0.7233  1.4963 -0.3989
 6629TIP3   OH219892   2.145   4.099   1.646 -0.0990 -0.0040  0.6694
 6629TIP3    H119893   2.189   4.151   1.713  0.9854  0.2430 -0.2007
 6629TIP3    H219894   2.060   4.140   1.634  0.5085  1.2244  0.4182
 6630TIP3   OH219895   4.938   5.908   2.600  0.0558 -0.4767  0.5542
 6630TIP3    H119896   4.954   5.930   2.692  0.9224 -1.0441  0.5524
 6630TIP3    H219897   4.930   5.813   2.599 -2.4534 -0.3227  0.3801
 6631TIP3   OH219898   2.510   2.074   4.268  0.2126  0.4310 -0.4148
 6631TIP3    H119899   2.541   2.137   4.202  1.1217  0.7534  0.2884
 6631TIP3    H219900   2.441   2.025   4.224  0.6083  0.8213 -1.5188
 6632TIP3   OH219901   3.907   3.205   3.638 -0.1230 -0.4082  0.2942
 6632TIP3    H119902   3.835   3.180   3.696 -1.0422  1.0048 -0.1754
 6632TIP3    H219903   3.883   3.292   3.606  0.3793 -1.0785 -2.1569
 6633TIP3   OH219904   1.352   3.341   4.515 -0.4284  0.6220  0.9660
 6633TIP3    H119905   1.310   3.405   4.572  0.3812  2.1718 -0.1053
 6633TIP3    H219906   1.398   3.282   4.575 -3.6653 -0.9437  2.1699
 6634TIP3   OH219907   0.737   2.631   3.812  0.4284  0.6053  0.0908
 6634TIP3    H119908   0.824   2.610   3.846 -0.1848 -1.8266  0.3832
 6634TIP3    H219909   0.692   2.674   3.885  0.5800 -0.4840  0.8492
 6635TIP3   OH219910   3.294   2.219   0.734 -0.4238 -0.6343 -0.2937
 6635TIP3    H119911   3.309   2.133   0.775 -1.1105 -0.2434  0.7891
 6635TIP3    H219912   3.300   2.282   0.805 -1.7101  0.0612 -0.7694
 6636TIP3   OH219913   4.148   0.507   2.281  0.3458 -0.1815  0.0343
 6636TIP3    H119914   4.163   0.421   2.320  0.3475  0.1141  0.6984
 6636TIP3    H219915   4.211   0.565   2.324 -0.9802  0.5636  1.0647
 6637TIP3   OH219916   4.648   0.470   1.401  0.3277  0.4261  0.4380
 6637TIP3    H119917   4.652   0.528   1.478  0.7060  0.7899  0.1492
 6637TIP3    H219918   4.669   0.384   1.435  0.6525  0.6132  0.7190
 6638TIP3   OH219919   6.270   3.345   2.148  0.2520 -0.1678  0.2423
 6638TIP3    H119920   6.288   3.409   2.216 -0.6766  1.8555 -1.3023
 6638TIP3    H219921   6.177   3.326   2.157  0.2802 -0.4281 -0.0083
 6639TIP3   OH219922   3.871   5.762   0.103 -0.4263 -0.1322  0.3922
 6639TIP3    H119923   3.889   5.689   0.044 -1.2035 -1.3911  1.6577
 6639TIP3    H219924   3.909   5.735   0.187  0.8792  1.7232  0.4788
 6640TIP3   OH219925   3.159   0.329   1.114 -0.2460 -0.0265 -0.3291
 6640TIP3    H119926   3.180   0.420   1.135  0.4429 -0.0206 -1.0099
 6640TIP3    H219927   3.241   0.293   1.078 -0.8039 -0.6194 -1.0295
   6.32383   5.96217   5.16339   0.00000   0.00000  -2.10794   0.00000  -2.10794  -2.98109
