Title t=  68.00000 step= 34000
44463
    1GLY      N    1   2.828   3.313   3.899
    1GLY    HT1    2   2.862   3.390   3.838
    1GLY    HT2    3   2.915   3.261   3.924
    1GLY    HT3    4   2.787   3.346   3.988
    1GLY     CA    5   2.730   3.215   3.835
    1GLY    HA1    6   2.775   3.169   3.748
    1GLY    HA2    7   2.644   3.279   3.820
    1GLY      C    8   2.699   3.100   3.930
    1GLY      O    9   2.744   3.100   4.042
    2PRO      N   10   2.613   3.014   3.894
    2PRO     CD   11   2.518   3.032   3.782
    2PRO    HD1   12   2.566   3.008   3.684
    2PRO    HD2   13   2.476   3.135   3.789
    2PRO     CA   14   2.587   2.891   3.970
    2PRO     HA   15   2.538   2.925   4.061
    2PRO     CB   16   2.481   2.812   3.891
    2PRO    HB1   17   2.411   2.756   3.957
    2PRO    HB2   18   2.534   2.736   3.830
    2PRO     CG   19   2.411   2.924   3.806
    2PRO    HG1   20   2.372   2.885   3.709
    2PRO    HG2   21   2.333   2.961   3.876
    2PRO      C   22   2.709   2.806   4.016
    2PRO      O   23   2.800   2.783   3.935
    3GLY      N   24   2.724   2.762   4.141
    3GLY     HN   25   2.643   2.786   4.195
    3GLY     CA   26   2.841   2.690   4.203
    3GLY    HA1   27   2.822   2.668   4.307
    3GLY    HA2   28   2.930   2.745   4.176
    3GLY      C   29   2.882   2.559   4.134
    3GLY      O   30   2.813   2.504   4.052
    4ASP      N   31   3.001   2.504   4.162
    4ASP     HN   32   3.040   2.541   4.246
    4ASP     CA   33   3.057   2.385   4.112
    4ASP     HA   34   3.024   2.375   4.010
    4ASP     CB   35   3.214   2.387   4.125
    4ASP    HB1   36   3.247   2.282   4.111
    4ASP    HB2   37   3.240   2.415   4.229
    4ASP     CG   38   3.290   2.472   4.027
    4ASP    OD1   39   3.410   2.507   4.049
    4ASP    OD2   40   3.239   2.497   3.919
    4ASP      C   41   2.998   2.272   4.197
    4ASP      O   42   3.008   2.277   4.319
    5PRO      N   43   2.958   2.155   4.150
    5PRO     CD   44   2.924   2.144   4.016
    5PRO    HD1   45   3.023   2.135   3.965
    5PRO    HD2   46   2.876   2.236   3.979
    5PRO     CA   47   2.928   2.031   4.221
    5PRO     HA   48   2.840   2.048   4.282
    5PRO     CB   49   2.896   1.930   4.113
    5PRO    HB1   50   2.824   1.856   4.153
    5PRO    HB2   51   2.987   1.886   4.066
    5PRO     CG   52   2.837   2.021   4.009
    5PRO    HG1   53   2.836   1.977   3.907
    5PRO    HG2   54   2.733   2.047   4.039
    5PRO      C   55   3.034   1.990   4.317
    5PRO      O   56   3.148   1.997   4.275
    6GLY      N   57   3.002   1.946   4.443
    6GLY     HN   58   2.907   1.963   4.470
    6GLY     CA   59   3.092   1.914   4.554
    6GLY    HA1   60   3.041   1.909   4.649
    6GLY    HA2   61   3.161   1.997   4.550
    6GLY      C   62   3.180   1.791   4.531
    6GLY      O   63   3.177   1.724   4.428
    7PRO      N   64   3.249   1.761   4.636
    7PRO     CD   65   3.290   1.860   4.746
    7PRO    HD1   66   3.198   1.867   4.808
    7PRO    HD2   67   3.311   1.961   4.705
    7PRO     CA   68   3.320   1.632   4.654
    7PRO     HA   69   3.396   1.640   4.577
    7PRO     CB   70   3.374   1.647   4.792
    7PRO    HB1   71   3.455   1.573   4.811
    7PRO    HB2   72   3.285   1.635   4.857
    7PRO     CG   73   3.409   1.793   4.806
    7PRO    HG1   74   3.428   1.812   4.914
    7PRO    HG2   75   3.501   1.813   4.747
    7PRO      C   76   3.230   1.508   4.627
    7PRO      O   77   3.119   1.506   4.674
    8GLY      N   78   3.285   1.404   4.558
    8GLY     HN   79   3.379   1.407   4.527
    8GLY     CA   80   3.208   1.285   4.510
    8GLY    HA1   81   3.144   1.230   4.577
    8GLY    HA2   82   3.283   1.213   4.483
    8GLY      C   83   3.113   1.313   4.392
    8GLY      O   84   3.088   1.430   4.363
    9ASP      N   85   3.072   1.211   4.313
    9ASP     HN   86   3.090   1.116   4.336
    9ASP     CA   87   2.983   1.216   4.198
    9ASP     HA   88   3.042   1.257   4.118
    9ASP     CB   89   2.957   1.068   4.160
    9ASP    HB1   90   2.881   1.070   4.079
    9ASP    HB2   91   2.914   1.015   4.248
    9ASP     CG   92   3.077   0.991   4.107
    9ASP    OD1   93   3.184   1.056   4.075
    9ASP    OD2   94   3.069   0.865   4.090
    9ASP      C   95   2.858   1.298   4.208
    9ASP      O   96   2.812   1.312   4.322
   10PRO      N   97   2.790   1.359   4.106
   10PRO     CD   98   2.830   1.346   3.967
   10PRO    HD1   99   2.842   1.242   3.931
   10PRO    HD2  100   2.921   1.409   3.955
   10PRO     CA  101   2.676   1.449   4.125
   10PRO     HA  102   2.694   1.511   4.212
   10PRO     CB  103   2.674   1.522   3.985
   10PRO    HB1  104   2.756   1.597   3.985
   10PRO    HB2  105   2.574   1.562   3.957
   10PRO     CG  106   2.723   1.418   3.890
   10PRO    HG1  107   2.647   1.350   3.845
   10PRO    HG2  108   2.775   1.461   3.801
   10PRO      C  109   2.535   1.380   4.137
   10PRO      O  110   2.434   1.449   4.158
   11GLY      N  111   2.527   1.247   4.115
   11GLY     HN  112   2.610   1.202   4.083
   11GLY     CA  113   2.401   1.166   4.146
   11GLY    HA1  114   2.419   1.062   4.122
   11GLY    HA2  115   2.329   1.219   4.085
   11GLY      C  116   2.352   1.170   4.288
   11GLY      O  117   2.432   1.215   4.370
   12PRO      N  118   2.229   1.134   4.315
   12PRO     CD  119   2.151   1.038   4.233
   12PRO    HD1  120   2.195   0.938   4.251
   12PRO    HD2  121   2.134   1.060   4.126
   12PRO     CA  122   2.156   1.154   4.447
   12PRO     HA  123   2.111   1.252   4.455
   12PRO     CB  124   2.033   1.061   4.450
   12PRO    HB1  125   1.950   1.107   4.507
   12PRO    HB2  126   2.067   0.963   4.492
   12PRO     CG  127   2.008   1.039   4.297
   12PRO    HG1  128   1.954   0.941   4.288
   12PRO    HG2  129   1.944   1.117   4.252
   12PRO      C  130   2.238   1.145   4.577
   12PRO      O  131   2.296   1.040   4.605
   13GLY      N  132   2.251   1.254   4.660
   13GLY     HN  133   2.214   1.341   4.629
   13GLY     CA  134   2.294   1.256   4.802
   13GLY    HA1  135   2.248   1.338   4.855
   13GLY    HA2  136   2.402   1.258   4.795
   13GLY      C  137   2.269   1.130   4.883
   13GLY      O  138   2.160   1.074   4.881
   14ASP      N  139   2.367   1.090   4.965
   14ASP     HN  140   2.446   1.150   4.975
   14ASP     CA  141   2.354   0.967   5.042
   14ASP     HA  142   2.299   0.896   4.982
   14ASP     CB  143   2.496   0.913   5.072
   14ASP    HB1  144   2.493   0.816   5.126
   14ASP    HB2  145   2.549   0.986   5.137
   14ASP     CG  146   2.570   0.901   4.939
   14ASP    OD1  147   2.692   0.937   4.932
   14ASP    OD2  148   2.517   0.844   4.843
   14ASP      C  149   2.283   0.988   5.181
   14ASP      O  150   2.321   1.080   5.257
   15PRO      N  151   2.183   0.910   5.224
   15PRO     CD  152   2.123   0.812   5.135
   15PRO    HD1  153   2.203   0.752   5.086
   15PRO    HD2  154   2.057   0.851   5.055
   15PRO     CA  155   2.136   0.919   5.357
   15PRO     HA  156   2.119   1.021   5.387
   15PRO     CB  157   2.010   0.833   5.345
   15PRO    HB1  158   1.927   0.904   5.326
   15PRO    HB2  159   2.009   0.776   5.441
   15PRO     CG  160   2.028   0.738   5.227
   15PRO    HG1  161   2.060   0.638   5.261
   15PRO    HG2  162   1.925   0.721   5.191
   15PRO      C  163   2.239   0.861   5.453
   15PRO    OT1  164   2.308   0.763   5.416
   15PRO    OT2  165   2.265   0.914   5.563
   16LIT    LIT  166   2.436   0.818   5.541
   17LIT    LIT  167   1.482   2.519   5.907
   18LIT    LIT  168   2.927   7.257   2.474
   19LIT    LIT  169   6.061   4.547   1.054
   20LIT    LIT  170   1.805   5.959   3.105
   21LIT    LIT  171   7.318   2.899   2.800
   22LIT    LIT  172   8.257   2.311   5.093
   23LIT    LIT  173   1.776   1.531   3.857
   24LIT    LIT  174   1.597   0.336   4.906
   25LIT    LIT  175   1.599   6.544   4.949
   26LIT    LIT  176   6.667   2.287   2.993
   27LIT    LIT  177   6.088   0.070   0.273
   28LIT    LIT  178   5.272   0.733   5.960
   29LIT    LIT  179   2.270   5.413   1.138
   30LIT    LIT  180   4.406   1.753   0.136
   31LIT    LIT  181   6.419   5.282   6.051
   32LIT    LIT  182   7.197   7.779   6.483
   33LIT    LIT  183   7.464   2.079   0.638
   34LIT    LIT  184   7.912   0.169   2.857
   35LIT    LIT  185   0.827   3.278   0.878
   36LIT    LIT  186   3.242   0.853   4.031
   37LIT    LIT  187   0.474   5.398   2.155
   38LIT    LIT  188   4.133   7.554   4.192
   39LIT    LIT  189   2.861   0.561   2.950
   40LIT    LIT  190   6.964   6.717   0.806
   41LIT    LIT  191   2.165   5.923   2.826
   42LIT    LIT  192   0.000   4.302   5.855
   43LIT    LIT  193   6.514   2.701   0.591
   44LIT    LIT  194   6.783   2.614   5.959
   45LIT    LIT  195   6.996   5.479   3.641
   46LIT    LIT  196   6.920   5.191   2.189
   47LIT    LIT  197   1.860   4.793   3.570
   48LIT    LIT  198   7.126   4.300   4.912
   49LIT    LIT  199   2.779   6.032   1.262
   50LIT    LIT  200   0.133   0.232   4.760
   51LIT    LIT  201   2.351   0.309   4.070
   52LIT    LIT  202   6.809   5.501   0.814
   53LIT    LIT  203   0.159   2.495   3.094
   54LIT    LIT  204   1.241   2.462   1.339
   55LIT    LIT  205   1.374   1.610   2.532
   56LIT    LIT  206   5.675   6.944   2.527
   57LIT    LIT  207   5.507   4.047   3.154
   58LIT    LIT  208   2.707   0.911   4.750
   59LIT    LIT  209   1.829   5.423   4.662
   60LIT    LIT  210   3.151   4.782   5.047
   61CLA    CLA  211   7.984   6.508   4.217
   62CLA    CLA  212   1.532   5.020   4.487
   63CLA    CLA  213   2.638   0.672   1.025
   64CLA    CLA  214   4.313   3.223   0.568
   65CLA    CLA  215   5.869   7.051   2.940
   66CLA    CLA  216   0.842   0.610   3.331
   67CLA    CLA  217   2.578   0.701   5.985
   68CLA    CLA  218   3.477   6.870   4.347
   69CLA    CLA  219   2.188   2.645   5.602
   70CLA    CLA  220   5.306   6.533   5.566
   71CLA    CLA  221   0.424   4.920   5.213
   72CLA    CLA  222   2.527   5.064   1.411
   73CLA    CLA  223   1.302   7.484   5.279
   74CLA    CLA  224   2.205   0.572   2.727
   75CLA    CLA  225   7.697   2.426   5.409
   76CLA    CLA  226   1.466   7.423   0.305
   77CLA    CLA  227   3.672   4.346   4.370
   78CLA    CLA  228   5.301   4.395   0.239
   79CLA    CLA  229   7.926   5.092   0.305
   80CLA    CLA  230   7.777   3.990   2.421
   81CLA    CLA  231   4.849   6.791   5.085
   82CLA    CLA  232   0.684   0.940   5.947
   83CLA    CLA  233   1.925   4.825   1.826
   84CLA    CLA  234   0.830   7.039   0.961
   85CLA    CLA  235   4.014   7.481   6.584
   86CLA    CLA  236   7.673   4.701   5.720
   87CLA    CLA  237   3.241   6.364   1.801
   88CLA    CLA  238   6.274   4.863   0.845
   89CLA    CLA  239   7.220   4.731   4.425
   90CLA    CLA  240   6.009   3.463   0.366
   91CLA    CLA  241   3.095   3.160   3.866
   92CLA    CLA  242   2.633   0.604   4.152
   93CLA    CLA  243   3.711   2.004   4.520
   94CLA    CLA  244   4.434   6.642   0.950
   95CLA    CLA  245   3.754   5.756   4.887
   96CLA    CLA  246   0.711   0.748   1.608
   97CLA    CLA  247   6.859   0.724   4.274
   98CLA    CLA  248   0.883   6.030   2.706
   99CLA    CLA  249   7.650   2.098   0.481
  100CLA    CLA  250   0.360   3.942   3.294
  101CLA    CLA  251   7.982   2.952   3.168
  102CLA    CLA  252   0.223   3.052   4.370
  103TIP3   OH2  253   2.292   5.000   2.563
  103TIP3    H1  254   2.241   5.031   2.488
  103TIP3    H2  255   2.228   4.993   2.634
  104TIP3   OH2  256   5.644   5.720   6.722
  104TIP3    H1  257   5.593   5.655   6.770
  104TIP3    H2  258   5.666   5.677   6.639
  105TIP3   OH2  259   6.245   3.701   2.782
  105TIP3    H1  260   6.306   3.658   2.842
  105TIP3    H2  261   6.282   3.685   2.695
  106TIP3   OH2  262   5.894   4.066   2.680
  106TIP3    H1  263   5.921   4.035   2.593
  106TIP3    H2  264   5.975   4.065   2.731
  107TIP3   OH2  265   3.590   4.459   2.759
  107TIP3    H1  266   3.606   4.534   2.816
  107TIP3    H2  267   3.546   4.497   2.682
  108TIP3   OH2  268   0.374   3.069   1.592
  108TIP3    H1  269   0.450   3.023   1.626
  108TIP3    H2  270   0.391   3.162   1.611
  109TIP3   OH2  271   1.639   4.125   2.368
  109TIP3    H1  272   1.596   4.063   2.310
  109TIP3    H2  273   1.570   4.156   2.427
  110TIP3   OH2  274   5.645   5.199   3.888
  110TIP3    H1  275   5.674   5.265   3.950
  110TIP3    H2  276   5.665   5.115   3.931
  111TIP3   OH2  277   4.115   6.091   5.080
  111TIP3    H1  278   4.201   6.117   5.047
  111TIP3    H2  279   4.094   6.011   5.032
  112TIP3   OH2  280   1.260   5.562   3.231
  112TIP3    H1  281   1.168   5.561   3.259
  112TIP3    H2  282   1.298   5.485   3.273
  113TIP3   OH2  283   8.201   1.676   4.615
  113TIP3    H1  284   8.257   1.733   4.562
  113TIP3    H2  285   8.156   1.620   4.551
  114TIP3   OH2  286   0.255   1.146   0.370
  114TIP3    H1  287   0.298   1.187   0.295
  114TIP3    H2  288   0.188   1.208   0.396
  115TIP3   OH2  289   6.767   5.102   2.497
  115TIP3    H1  290   6.788   5.017   2.535
  115TIP3    H2  291   6.680   5.090   2.459
  116TIP3   OH2  292   1.417   1.348   6.486
  116TIP3    H1  293   1.390   1.316   6.400
  116TIP3    H2  294   1.374   1.289   6.548
  117TIP3   OH2  295   4.739   6.093   4.834
  117TIP3    H1  296   4.730   5.999   4.850
  117TIP3    H2  297   4.698   6.134   4.910
  118TIP3   OH2  298   2.231   5.323   0.388
  118TIP3    H1  299   2.147   5.348   0.350
  118TIP3    H2  300   2.213   5.245   0.440
  119TIP3   OH2  301   7.430   3.369   3.169
  119TIP3    H1  302   7.479   3.304   3.220
  119TIP3    H2  303   7.486   3.388   3.094
  120TIP3   OH2  304   5.081   4.691   1.923
  120TIP3    H1  305   5.061   4.703   1.830
  120TIP3    H2  306   5.128   4.771   1.948
  121TIP3   OH2  307   1.754   3.554   6.286
  121TIP3    H1  308   1.695   3.570   6.213
  121TIP3    H2  309   1.834   3.601   6.263
  122TIP3   OH2  310   4.205   4.643   5.883
  122TIP3    H1  311   4.151   4.566   5.867
  122TIP3    H2  312   4.175   4.708   5.820
  123TIP3   OH2  313   5.873   5.768   1.277
  123TIP3    H1  314   5.859   5.818   1.358
  123TIP3    H2  315   5.799   5.793   1.221
  124TIP3   OH2  316   2.301   0.465   4.170
  124TIP3    H1  317   2.214   0.484   4.204
  124TIP3    H2  318   2.356   0.536   4.203
  125TIP3   OH2  319   1.577   4.442   2.665
  125TIP3    H1  320   1.619   4.528   2.672
  125TIP3    H2  321   1.597   4.413   2.576
  126TIP3   OH2  322   2.055   0.497   0.748
  126TIP3    H1  323   2.148   0.505   0.729
  126TIP3    H2  324   2.051   0.436   0.822
  127TIP3   OH2  325   1.672   3.144   5.913
  127TIP3    H1  326   1.638   3.204   5.847
  127TIP3    H2  327   1.687   3.199   5.990
  128TIP3   OH2  328   6.525   7.128   5.499
  128TIP3    H1  329   6.469   7.180   5.442
  128TIP3    H2  330   6.467   7.102   5.571
  129TIP3   OH2  331   7.963   4.926   3.001
  129TIP3    H1  332   8.037   4.871   2.977
  129TIP3    H2  333   7.944   4.902   3.092
  130TIP3   OH2  334   1.325   0.739   2.886
  130TIP3    H1  335   1.314   0.823   2.843
  130TIP3    H2  336   1.356   0.680   2.817
  131TIP3   OH2  337   3.492   0.517   1.578
  131TIP3    H1  338   3.528   0.582   1.518
  131TIP3    H2  339   3.436   0.462   1.523
  132TIP3   OH2  340   2.586   4.857   6.183
  132TIP3    H1  341   2.643   4.922   6.141
  132TIP3    H2  342   2.601   4.870   6.277
  133TIP3   OH2  343   7.489   7.049   4.607
  133TIP3    H1  344   7.407   7.096   4.592
  133TIP3    H2  345   7.557   7.110   4.582
  134TIP3   OH2  346   4.437   1.379   6.372
  134TIP3    H1  347   4.442   1.412   6.283
  134TIP3    H2  348   4.490   1.439   6.423
  135TIP3   OH2  349   6.287   7.492   4.875
  135TIP3    H1  350   6.316   7.579   4.903
  135TIP3    H2  351   6.199   7.482   4.913
  136TIP3   OH2  352   1.957   3.719   1.625
  136TIP3    H1  353   1.925   3.667   1.699
  136TIP3    H2  354   1.942   3.810   1.652
  137TIP3   OH2  355   1.050   4.796   1.371
  137TIP3    H1  356   0.992   4.869   1.348
  137TIP3    H2  357   1.124   4.838   1.415
  138TIP3   OH2  358   1.613   5.515   5.651
  138TIP3    H1  359   1.651   5.465   5.723
  138TIP3    H2  360   1.604   5.604   5.685
  139TIP3   OH2  361   3.902   2.294   3.626
  139TIP3    H1  362   3.950   2.376   3.636
  139TIP3    H2  363   3.940   2.253   3.549
  140TIP3   OH2  364   3.169   0.282   0.776
  140TIP3    H1  365   3.208   0.360   0.736
  140TIP3    H2  366   3.117   0.317   0.848
  141TIP3   OH2  367   3.217   1.279   2.085
  141TIP3    H1  368   3.210   1.183   2.080
  141TIP3    H2  369   3.186   1.300   2.173
  142TIP3   OH2  370   6.064   5.481   3.924
  142TIP3    H1  371   6.156   5.479   3.952
  142TIP3    H2  372   6.035   5.570   3.943
  143TIP3   OH2  373   5.889   3.713   4.228
  143TIP3    H1  374   5.824   3.655   4.187
  143TIP3    H2  375   5.970   3.694   4.182
  144TIP3   OH2  376   0.918   7.476   2.808
  144TIP3    H1  377   0.944   7.441   2.893
  144TIP3    H2  378   0.823   7.474   2.809
  145TIP3   OH2  379   4.823   4.849   4.801
  145TIP3    H1  380   4.912   4.831   4.772
  145TIP3    H2  381   4.834   4.891   4.886
  146TIP3   OH2  382   6.313   3.951   2.245
  146TIP3    H1  383   6.383   4.010   2.216
  146TIP3    H2  384   6.329   3.940   2.339
  147TIP3   OH2  385   1.100   2.720   3.450
  147TIP3    H1  386   1.113   2.678   3.366
  147TIP3    H2  387   1.057   2.803   3.429
  148TIP3   OH2  388   6.064   0.816   2.235
  148TIP3    H1  389   5.977   0.855   2.245
  148TIP3    H2  390   6.056   0.758   2.160
  149TIP3   OH2  391   6.372   2.301   6.675
  149TIP3    H1  392   6.278   2.317   6.686
  149TIP3    H2  393   6.403   2.375   6.622
  150TIP3   OH2  394   4.605   5.718   1.002
  150TIP3    H1  395   4.627   5.630   0.974
  150TIP3    H2  396   4.634   5.723   1.093
  151TIP3   OH2  397   0.286   4.092   5.204
  151TIP3    H1  398   0.236   4.162   5.246
  151TIP3    H2  399   0.375   4.128   5.196
  152TIP3   OH2  400   1.189   7.183   5.340
  152TIP3    H1  401   1.224   7.269   5.364
  152TIP3    H2  402   1.096   7.188   5.362
  153TIP3   OH2  403   5.961   6.387   3.381
  153TIP3    H1  404   6.016   6.439   3.439
  153TIP3    H2  405   5.961   6.436   3.298
  154TIP3   OH2  406   4.479   7.473   4.719
  154TIP3    H1  407   4.438   7.451   4.803
  154TIP3    H2  408   4.554   7.414   4.713
  155TIP3   OH2  409   1.330   0.000   0.858
  155TIP3    H1  410   1.300   0.089   0.835
  155TIP3    H2  411   1.351  -0.040   0.774
  156TIP3   OH2  412   2.953   3.922   4.020
  156TIP3    H1  413   2.924   3.849   4.074
  156TIP3    H2  414   2.912   3.999   4.059
  157TIP3   OH2  415   2.578   0.900   2.177
  157TIP3    H1  416   2.579   0.809   2.207
  157TIP3    H2  417   2.666   0.932   2.195
  158TIP3   OH2  418   3.823   0.601   1.186
  158TIP3    H1  419   3.787   0.590   1.274
  158TIP3    H2  420   3.875   0.521   1.172
  159TIP3   OH2  421   0.619   3.925   5.391
  159TIP3    H1  422   0.709   3.952   5.411
  159TIP3    H2  423   0.585   3.995   5.336
  160TIP3   OH2  424   1.263   3.188   3.189
  160TIP3    H1  425   1.215   3.108   3.165
  160TIP3    H2  426   1.195   3.254   3.201
  161TIP3   OH2  427   3.619   3.794   0.334
  161TIP3    H1  428   3.710   3.773   0.352
  161TIP3    H2  429   3.614   3.889   0.343
  162TIP3   OH2  430   4.322   0.111   5.281
  162TIP3    H1  431   4.358   0.165   5.211
  162TIP3    H2  432   4.302   0.027   5.239
  163TIP3   OH2  433   6.675   1.631   1.288
  163TIP3    H1  434   6.714   1.549   1.257
  163TIP3    H2  435   6.596   1.605   1.335
  164TIP3   OH2  436   3.577   1.403   6.197
  164TIP3    H1  437   3.603   1.450   6.117
  164TIP3    H2  438   3.599   1.312   6.179
  165TIP3   OH2  439   5.602   1.747   5.066
  165TIP3    H1  440   5.643   1.794   4.993
  165TIP3    H2  441   5.509   1.767   5.059
  166TIP3   OH2  442   6.830   5.771   2.032
  166TIP3    H1  443   6.890   5.701   2.008
  166TIP3    H2  444   6.748   5.727   2.055
  167TIP3   OH2  445   5.827   3.366   5.756
  167TIP3    H1  446   5.829   3.454   5.718
  167TIP3    H2  447   5.828   3.307   5.680
  168TIP3   OH2  448   7.924   2.603   2.729
  168TIP3    H1  449   7.939   2.508   2.726
  168TIP3    H2  450   7.950   2.634   2.642
  169TIP3   OH2  451   6.692   4.572   1.175
  169TIP3    H1  452   6.744   4.574   1.256
  169TIP3    H2  453   6.603   4.555   1.205
  170TIP3   OH2  454   0.874   4.165   6.205
  170TIP3    H1  455   0.883   4.086   6.153
  170TIP3    H2  456   0.962   4.183   6.238
  171TIP3   OH2  457   3.149   4.159   6.137
  171TIP3    H1  458   3.210   4.088   6.115
  171TIP3    H2  459   3.111   4.185   6.054
  172TIP3   OH2  460   5.526   3.836   2.454
  172TIP3    H1  461   5.551   3.848   2.362
  172TIP3    H2  462   5.497   3.922   2.482
  173TIP3   OH2  463   5.295   6.336   4.206
  173TIP3    H1  464   5.337   6.251   4.194
  173TIP3    H2  465   5.269   6.363   4.118
  174TIP3   OH2  466   0.112   5.970   3.599
  174TIP3    H1  467   0.117   5.968   3.695
  174TIP3    H2  468   0.035   6.024   3.580
  175TIP3   OH2  469   5.261   0.469   4.804
  175TIP3    H1  470   5.238   0.492   4.894
  175TIP3    H2  471   5.305   0.547   4.770
  176TIP3   OH2  472   4.880   6.177   4.538
  176TIP3    H1  473   4.868   6.085   4.516
  176TIP3    H2  474   4.938   6.211   4.470
  177TIP3   OH2  475   8.037   7.014   3.743
  177TIP3    H1  476   8.101   7.056   3.800
  177TIP3    H2  477   7.976   7.084   3.718
  178TIP3   OH2  478   1.021   0.803   5.732
  178TIP3    H1  479   1.037   0.853   5.812
  178TIP3    H2  480   1.006   0.869   5.665
  179TIP3   OH2  481   3.925   0.206   2.742
  179TIP3    H1  482   3.888   0.118   2.746
  179TIP3    H2  483   4.000   0.198   2.684
  180TIP3   OH2  484   4.927   6.445   4.098
  180TIP3    H1  485   4.906   6.434   4.006
  180TIP3    H2  486   4.916   6.358   4.137
  181TIP3   OH2  487   7.854   4.427   2.329
  181TIP3    H1  488   7.790   4.407   2.261
  181TIP3    H2  489   7.806   4.482   2.392
  182TIP3   OH2  490   0.304   6.847   0.383
  182TIP3    H1  491   0.337   6.759   0.404
  182TIP3    H2  492   0.382   6.901   0.376
  183TIP3   OH2  493   0.551   4.903   6.729
  183TIP3    H1  494   0.634   4.941   6.699
  183TIP3    H2  495   0.504   4.882   6.649
  184TIP3   OH2  496   1.684   0.594   3.825
  184TIP3    H1  497   1.660   0.665   3.885
  184TIP3    H2  498   1.614   0.592   3.761
  185TIP3   OH2  499   3.484   4.914   1.964
  185TIP3    H1  500   3.564   4.965   1.978
  185TIP3    H2  501   3.438   4.961   1.894
  186TIP3   OH2  502   0.376   2.114   4.842
  186TIP3    H1  503   0.395   2.089   4.933
  186TIP3    H2  504   0.436   2.062   4.790
  187TIP3   OH2  505   5.238   7.322   3.744
  187TIP3    H1  506   5.323   7.305   3.704
  187TIP3    H2  507   5.238   7.267   3.823
  188TIP3   OH2  508   0.430   5.002   0.035
  188TIP3    H1  509   0.490   5.064   0.078
  188TIP3    H2  510   0.475   4.917   0.043
  189TIP3   OH2  511   3.048   4.518   2.389
  189TIP3    H1  512   3.068   4.427   2.368
  189TIP3    H2  513   3.020   4.516   2.480
  190TIP3   OH2  514   7.941   3.453   6.477
  190TIP3    H1  515   7.955   3.387   6.544
  190TIP3    H2  516   7.876   3.512   6.515
  191TIP3   OH2  517   8.268   3.923   0.627
  191TIP3    H1  518   8.311   3.876   0.555
  191TIP3    H2  519   8.220   3.855   0.675
  192TIP3   OH2  520   4.426   5.433   6.564
  192TIP3    H1  521   4.482   5.381   6.506
  192TIP3    H2  522   4.382   5.369   6.620
  193TIP3   OH2  523   1.246   0.100   1.351
  193TIP3    H1  524   1.195   0.167   1.306
  193TIP3    H2  525   1.304   0.150   1.409
  194TIP3   OH2  526   6.428   5.036   4.031
  194TIP3    H1  527   6.493   4.975   4.065
  194TIP3    H2  528   6.388   4.990   3.957
  195TIP3   OH2  529   6.186   6.862   0.054
  195TIP3    H1  530   6.191   6.895   0.143
  195TIP3    H2  531   6.121   6.917   0.011
  196TIP3   OH2  532   2.673   2.315   0.638
  196TIP3    H1  533   2.766   2.338   0.642
  196TIP3    H2  534   2.627   2.399   0.643
  197TIP3   OH2  535   7.039   6.434   0.336
  197TIP3    H1  536   6.949   6.411   0.360
  197TIP3    H2  537   7.034   6.451   0.242
  198TIP3   OH2  538   5.906   6.393   1.941
  198TIP3    H1  539   5.896   6.440   1.858
  198TIP3    H2  540   5.936   6.460   2.003
  199TIP3   OH2  541   2.309   1.673   0.298
  199TIP3    H1  542   2.275   1.744   0.243
  199TIP3    H2  543   2.348   1.718   0.373
  200TIP3   OH2  544   3.553   7.139   4.703
  200TIP3    H1  545   3.476   7.165   4.652
  200TIP3    H2  546   3.564   7.208   4.768
  201TIP3   OH2  547   6.734   6.872   5.738
  201TIP3    H1  548   6.748   6.932   5.665
  201TIP3    H2  549   6.692   6.795   5.698
  202TIP3   OH2  550   6.326   6.324   6.157
  202TIP3    H1  551   6.416   6.294   6.172
  202TIP3    H2  552   6.302   6.370   6.237
  203TIP3   OH2  553   8.097   6.452   2.930
  203TIP3    H1  554   8.147   6.524   2.890
  203TIP3    H2  555   8.099   6.383   2.864
  204TIP3   OH2  556   3.644   5.308   4.696
  204TIP3    H1  557   3.656   5.287   4.788
  204TIP3    H2  558   3.677   5.398   4.687
  205TIP3   OH2  559   0.717   6.236   2.329
  205TIP3    H1  560   0.795   6.223   2.275
  205TIP3    H2  561   0.725   6.326   2.361
  206TIP3   OH2  562   1.828   0.349   0.146
  206TIP3    H1  563   1.915   0.370   0.178
  206TIP3    H2  564   1.826   0.384   0.057
  207TIP3   OH2  565   4.455   6.091   5.602
  207TIP3    H1  566   4.500   6.096   5.518
  207TIP3    H2  567   4.487   6.009   5.641
  208TIP3   OH2  568   7.313   2.756   4.047
  208TIP3    H1  569   7.296   2.785   3.957
  208TIP3    H2  570   7.309   2.660   4.043
  209TIP3   OH2  571   1.953   2.999   3.089
  209TIP3    H1  572   1.892   3.004   3.162
  209TIP3    H2  573   1.989   2.911   3.094
  210TIP3   OH2  574   0.945   5.790   5.757
  210TIP3    H1  575   0.857   5.764   5.785
  210TIP3    H2  576   0.984   5.708   5.724
  211TIP3   OH2  577   6.268   4.045   1.316
  211TIP3    H1  578   6.254   4.087   1.231
  211TIP3    H2  579   6.192   3.988   1.327
  212TIP3   OH2  580   1.755   6.049   0.961
  212TIP3    H1  581   1.672   6.095   0.954
  212TIP3    H2  582   1.804   6.076   0.883
  213TIP3   OH2  583   0.683   0.344   2.854
  213TIP3    H1  584   0.690   0.283   2.781
  213TIP3    H2  585   0.713   0.428   2.819
  214TIP3   OH2  586   8.011   2.572   6.142
  214TIP3    H1  587   8.052   2.539   6.222
  214TIP3    H2  588   8.061   2.532   6.071
  215TIP3   OH2  589   1.425   5.397   1.132
  215TIP3    H1  590   1.492   5.461   1.109
  215TIP3    H2  591   1.368   5.393   1.055
  216TIP3   OH2  592   0.930   1.141   3.471
  216TIP3    H1  593   0.894   1.053   3.461
  216TIP3    H2  594   0.858   1.192   3.508
  217TIP3   OH2  595   7.865   7.192   3.658
  217TIP3    H1  596   7.830   7.276   3.628
  217TIP3    H2  597   7.787   7.139   3.674
  218TIP3   OH2  598   1.440   2.374   3.263
  218TIP3    H1  599   1.423   2.355   3.355
  218TIP3    H2  600   1.533   2.359   3.252
  219TIP3   OH2  601   3.897   3.534   2.881
  219TIP3    H1  602   3.990   3.513   2.877
  219TIP3    H2  603   3.894   3.628   2.896
  220TIP3   OH2  604   3.403   4.128   2.480
  220TIP3    H1  605   3.439   4.142   2.568
  220TIP3    H2  606   3.478   4.097   2.429
  221TIP3   OH2  607   8.255   3.383   1.609
  221TIP3    H1  608   8.216   3.438   1.542
  221TIP3    H2  609   8.348   3.381   1.588
  222TIP3   OH2  610   5.275   6.856   6.074
  222TIP3    H1  611   5.365   6.856   6.107
  222TIP3    H2  612   5.283   6.819   5.986
  223TIP3   OH2  613   5.499   7.445   2.949
  223TIP3    H1  614   5.507   7.390   3.027
  223TIP3    H2  615   5.566   7.512   2.961
  224TIP3   OH2  616   2.753   4.357   3.715
  224TIP3    H1  617   2.827   4.340   3.774
  224TIP3    H2  618   2.793   4.373   3.630
  225TIP3   OH2  619   5.579   1.068   4.157
  225TIP3    H1  620   5.595   1.086   4.064
  225TIP3    H2  621   5.666   1.059   4.195
  226TIP3   OH2  622   1.000   5.799   5.040
  226TIP3    H1  623   0.982   5.784   5.132
  226TIP3    H2  624   1.006   5.895   5.032
  227TIP3   OH2  625   2.199   3.286   0.444
  227TIP3    H1  626   2.171   3.372   0.412
  227TIP3    H2  627   2.280   3.303   0.492
  228TIP3   OH2  628   0.321   5.315   3.190
  228TIP3    H1  629   0.370   5.370   3.252
  228TIP3    H2  630   0.319   5.229   3.232
  229TIP3   OH2  631   0.253   1.651   2.054
  229TIP3    H1  632   0.201   1.598   2.115
  229TIP3    H2  633   0.339   1.608   2.053
  230TIP3   OH2  634   0.103   1.775   2.736
  230TIP3    H1  635   0.059   1.860   2.722
  230TIP3    H2  636   0.052   1.733   2.805
  231TIP3   OH2  637   3.979   3.164   5.537
  231TIP3    H1  638   4.006   3.143   5.447
  231TIP3    H2  639   3.928   3.087   5.565
  232TIP3   OH2  640   2.009   4.422   2.965
  232TIP3    H1  641   1.967   4.337   2.954
  232TIP3    H2  642   1.943   4.477   3.007
  233TIP3   OH2  643   7.307   6.574   0.192
  233TIP3    H1  644   7.276   6.497   0.238
  233TIP3    H2  645   7.303   6.551   0.099
  234TIP3   OH2  646   0.360   2.815   5.397
  234TIP3    H1  647   0.288   2.757   5.372
  234TIP3    H2  648   0.439   2.762   5.388
  235TIP3   OH2  649   3.488   0.568   0.538
  235TIP3    H1  650   3.499   0.513   0.615
  235TIP3    H2  651   3.536   0.523   0.469
  236TIP3   OH2  652   5.138   2.228   2.854
  236TIP3    H1  653   5.153   2.191   2.767
  236TIP3    H2  654   5.146   2.322   2.842
  237TIP3   OH2  655   0.288   4.348   4.994
  237TIP3    H1  656   0.227   4.416   5.021
  237TIP3    H2  657   0.329   4.318   5.075
  238TIP3   OH2  658   0.462   2.671   3.395
  238TIP3    H1  659   0.419   2.738   3.447
  238TIP3    H2  660   0.402   2.597   3.395
  239TIP3   OH2  661   6.042   6.129   1.961
  239TIP3    H1  662   5.989   6.057   1.994
  239TIP3    H2  663   6.010   6.206   2.008
  240TIP3   OH2  664   6.436   4.142   5.883
  240TIP3    H1  665   6.349   4.176   5.902
  240TIP3    H2  666   6.457   4.085   5.957
  241TIP3   OH2  667   7.934   5.985   1.013
  241TIP3    H1  668   7.984   6.059   1.048
  241TIP3    H2  669   7.921   6.006   0.921
  242TIP3   OH2  670   5.526   6.931   5.375
  242TIP3    H1  671   5.501   6.939   5.283
  242TIP3    H2  672   5.452   6.888   5.416
  243TIP3   OH2  673   2.667   6.512   1.426
  243TIP3    H1  674   2.724   6.438   1.449
  243TIP3    H2  675   2.687   6.529   1.334
  244TIP3   OH2  676   8.069   1.508   0.657
  244TIP3    H1  677   8.018   1.509   0.575
  244TIP3    H2  678   8.096   1.599   0.669
  245TIP3   OH2  679   1.938   2.271   5.789
  245TIP3    H1  680   1.874   2.287   5.721
  245TIP3    H2  681   1.952   2.357   5.830
  246TIP3   OH2  682   6.793   0.355   0.008
  246TIP3    H1  683   6.721   0.418   0.011
  246TIP3    H2  684   6.752   0.271   0.028
  247TIP3   OH2  685   0.311   1.508   1.338
  247TIP3    H1  686   0.301   1.595   1.297
  247TIP3    H2  687   0.345   1.527   1.425
  248TIP3   OH2  688   2.638   1.644   2.601
  248TIP3    H1  689   2.554   1.668   2.640
  248TIP3    H2  690   2.673   1.726   2.567
  249TIP3   OH2  691   2.795   1.570   5.961
  249TIP3    H1  692   2.765   1.496   5.909
  249TIP3    H2  693   2.723   1.590   6.021
  250TIP3   OH2  694   4.534   2.489   5.649
  250TIP3    H1  695   4.555   2.433   5.723
  250TIP3    H2  696   4.447   2.462   5.622
  251TIP3   OH2  697   5.506   6.760   0.835
  251TIP3    H1  698   5.479   6.713   0.913
  251TIP3    H2  699   5.576   6.707   0.797
  252TIP3   OH2  700   8.016   3.498   3.261
  252TIP3    H1  701   7.949   3.518   3.327
  252TIP3    H2  702   8.097   3.529   3.299
  253TIP3   OH2  703   2.248   0.694   1.615
  253TIP3    H1  704   2.213   0.670   1.700
  253TIP3    H2  705   2.301   0.771   1.631
  254TIP3   OH2  706   4.577   6.815   6.071
  254TIP3    H1  707   4.554   6.780   5.985
  254TIP3    H2  708   4.637   6.750   6.108
  255TIP3   OH2  709   4.583   0.845   2.209
  255TIP3    H1  710   4.645   0.772   2.221
  255TIP3    H2  711   4.636   0.923   2.224
  256TIP3   OH2  712   7.021   5.632   1.674
  256TIP3    H1  713   6.987   5.565   1.615
  256TIP3    H2  714   6.978   5.713   1.646
  257TIP3   OH2  715   8.243   1.107   3.742
  257TIP3    H1  716   8.272   1.175   3.682
  257TIP3    H2  717   8.301   1.116   3.817
  258TIP3   OH2  718   6.773   7.496   5.977
  258TIP3    H1  719   6.719   7.437   6.029
  258TIP3    H2  720   6.714   7.568   5.954
  259TIP3   OH2  721   4.148   6.565   6.760
  259TIP3    H1  722   4.240   6.586   6.747
  259TIP3    H2  723   4.136   6.482   6.714
  260TIP3   OH2  724   4.187   2.600   5.563
  260TIP3    H1  725   4.172   2.669   5.628
  260TIP3    H2  726   4.265   2.629   5.516
  261TIP3   OH2  727   5.927   1.905   5.127
  261TIP3    H1  728   5.995   1.839   5.115
  261TIP3    H2  729   5.847   1.862   5.096
  262TIP3   OH2  730   2.963   4.428   1.973
  262TIP3    H1  731   3.011   4.494   1.922
  262TIP3    H2  732   2.898   4.479   2.022
  263TIP3   OH2  733   3.250   2.609   1.939
  263TIP3    H1  734   3.308   2.602   2.014
  263TIP3    H2  735   3.174   2.555   1.961
  264TIP3   OH2  736   5.793   1.115   5.558
  264TIP3    H1  737   5.769   1.049   5.493
  264TIP3    H2  738   5.732   1.188   5.543
  265TIP3   OH2  739   0.822   6.888   6.284
  265TIP3    H1  740   0.728   6.874   6.283
  265TIP3    H2  741   0.855   6.822   6.346
  266TIP3   OH2  742   6.027   3.828   1.581
  266TIP3    H1  743   6.114   3.867   1.581
  266TIP3    H2  744   6.001   3.827   1.489
  267TIP3   OH2  745   0.851   0.876   3.514
  267TIP3    H1  746   0.851   0.799   3.456
  267TIP3    H2  747   0.846   0.839   3.602
  268TIP3   OH2  748   6.595   3.254   4.620
  268TIP3    H1  749   6.650   3.225   4.693
  268TIP3    H2  750   6.572   3.344   4.642
  269TIP3   OH2  751   5.819   5.899   3.237
  269TIP3    H1  752   5.783   5.973   3.188
  269TIP3    H2  753   5.743   5.857   3.277
  270TIP3   OH2  754   8.037   3.855   3.344
  270TIP3    H1  755   8.070   3.920   3.283
  270TIP3    H2  756   8.002   3.785   3.289
  271TIP3   OH2  757   1.630   6.638   3.113
  271TIP3    H1  758   1.667   6.622   3.199
  271TIP3    H2  759   1.609   6.551   3.079
  272TIP3   OH2  760   1.945   7.470   5.229
  272TIP3    H1  761   1.856   7.454   5.263
  272TIP3    H2  762   1.953   7.409   5.155
  273TIP3   OH2  763   2.037   7.715   5.637
  273TIP3    H1  764   1.971   7.781   5.656
  273TIP3    H2  765   2.034   7.705   5.542
  274TIP3   OH2  766   7.371   0.667   5.400
  274TIP3    H1  767   7.398   0.613   5.326
  274TIP3    H2  768   7.276   0.677   5.390
  275TIP3   OH2  769   4.611   5.655   5.942
  275TIP3    H1  770   4.679   5.686   6.002
  275TIP3    H2  771   4.532   5.702   5.969
  276TIP3   OH2  772   3.906   4.075   3.221
  276TIP3    H1  773   3.843   4.100   3.288
  276TIP3    H2  774   3.901   4.145   3.156
  277TIP3   OH2  775   7.345   5.859   1.582
  277TIP3    H1  776   7.338   5.771   1.619
  277TIP3    H2  777   7.399   5.907   1.645
  278TIP3   OH2  778   6.487   6.749   3.500
  278TIP3    H1  779   6.503   6.748   3.594
  278TIP3    H2  780   6.398   6.783   3.491
  279TIP3   OH2  781   3.212   2.297   0.800
  279TIP3    H1  782   3.159   2.234   0.848
  279TIP3    H2  783   3.295   2.300   0.847
  280TIP3   OH2  784   6.041   0.287   1.405
  280TIP3    H1  785   6.087   0.205   1.420
  280TIP3    H2  786   6.024   0.288   1.310
  281TIP3   OH2  787   4.761   0.467   5.428
  281TIP3    H1  788   4.796   0.392   5.476
  281TIP3    H2  789   4.829   0.534   5.436
  282TIP3   OH2  790   0.691   2.219   0.256
  282TIP3    H1  791   0.622   2.282   0.279
  282TIP3    H2  792   0.710   2.237   0.164
  283TIP3   OH2  793   5.103   3.531   0.972
  283TIP3    H1  794   5.122   3.472   0.899
  283TIP3    H2  795   5.176   3.594   0.971
  284TIP3   OH2  796   1.909   1.758   3.506
  284TIP3    H1  797   1.970   1.742   3.434
  284TIP3    H2  798   1.919   1.851   3.527
  285TIP3   OH2  799   4.869   6.836   5.761
  285TIP3    H1  800   4.940   6.878   5.711
  285TIP3    H2  801   4.799   6.901   5.762
  286TIP3   OH2  802   3.331   2.692   4.722
  286TIP3    H1  803   3.406   2.653   4.678
  286TIP3    H2  804   3.293   2.621   4.773
  287TIP3   OH2  805   0.400   0.898   5.818
  287TIP3    H1  806   0.318   0.876   5.863
  287TIP3    H2  807   0.456   0.935   5.886
  288TIP3   OH2  808   5.565   7.233   0.461
  288TIP3    H1  809   5.560   7.193   0.548
  288TIP3    H2  810   5.495   7.191   0.411
  289TIP3   OH2  811   0.739   6.328   5.765
  289TIP3    H1  812   0.652   6.352   5.795
  289TIP3    H2  813   0.772   6.406   5.720
  290TIP3   OH2  814   1.638   1.461   1.579
  290TIP3    H1  815   1.715   1.434   1.630
  290TIP3    H2  816   1.617   1.549   1.611
  291TIP3   OH2  817   8.111   4.949   4.887
  291TIP3    H1  818   8.079   4.883   4.825
  291TIP3    H2  819   8.204   4.958   4.866
  292TIP3   OH2  820   7.817   6.372   0.468
  292TIP3    H1  821   7.895   6.331   0.431
  292TIP3    H2  822   7.850   6.428   0.538
  293TIP3   OH2  823   0.859   2.460   5.356
  293TIP3    H1  824   0.932   2.465   5.294
  293TIP3    H2  825   0.886   2.516   5.429
  294TIP3   OH2  826   4.881   0.328   2.085
  294TIP3    H1  827   4.955   0.269   2.073
  294TIP3    H2  828   4.807   0.282   2.046
  295TIP3   OH2  829   4.572   6.701   5.253
  295TIP3    H1  830   4.518   6.780   5.246
  295TIP3    H2  831   4.649   6.721   5.200
  296TIP3   OH2  832   4.166   2.523   0.584
  296TIP3    H1  833   4.138   2.604   0.541
  296TIP3    H2  834   4.261   2.530   0.589
  297TIP3   OH2  835   7.447   4.979   0.982
  297TIP3    H1  836   7.483   4.988   0.894
  297TIP3    H2  837   7.512   4.927   1.029
  298TIP3   OH2  838   7.879   0.476   0.792
  298TIP3    H1  839   7.975   0.473   0.797
  298TIP3    H2  840   7.850   0.465   0.882
  299TIP3   OH2  841   7.233   6.581   4.024
  299TIP3    H1  842   7.211   6.582   3.931
  299TIP3    H2  843   7.278   6.498   4.039
  300TIP3   OH2  844   5.691   7.132   5.879
  300TIP3    H1  845   5.677   7.138   5.973
  300TIP3    H2  846   5.615   7.175   5.841
  301TIP3   OH2  847   5.651   5.065   5.579
  301TIP3    H1  848   5.681   5.052   5.489
  301TIP3    H2  849   5.675   5.156   5.599
  302TIP3   OH2  850   3.704   3.575   3.282
  302TIP3    H1  851   3.709   3.544   3.192
  302TIP3    H2  852   3.789   3.615   3.299
  303TIP3   OH2  853   5.999   2.113   3.190
  303TIP3    H1  854   5.905   2.112   3.208
  303TIP3    H2  855   6.020   2.205   3.177
  304TIP3   OH2  856   2.571   2.563   0.627
  304TIP3    H1  857   2.555   2.554   0.721
  304TIP3    H2  858   2.483   2.573   0.589
  305TIP3   OH2  859   1.655   6.130   3.713
  305TIP3    H1  860   1.567   6.092   3.714
  305TIP3    H2  861   1.672   6.156   3.803
  306TIP3   OH2  862   3.256   3.351   3.195
  306TIP3    H1  863   3.317   3.280   3.213
  306TIP3    H2  864   3.170   3.316   3.219
  307TIP3   OH2  865   2.372   4.890   5.031
  307TIP3    H1  866   2.366   4.810   5.083
  307TIP3    H2  867   2.393   4.959   5.094
  308TIP3   OH2  868   4.459   7.011   5.837
  308TIP3    H1  869   4.400   6.953   5.789
  308TIP3    H2  870   4.412   7.035   5.917
  309TIP3   OH2  871   3.120   5.105   1.501
  309TIP3    H1  872   3.155   5.193   1.511
  309TIP3    H2  873   3.026   5.114   1.515
  310TIP3   OH2  874   2.777   1.592   3.209
  310TIP3    H1  875   2.705   1.622   3.263
  310TIP3    H2  876   2.756   1.622   3.120
  311TIP3   OH2  877   5.669   3.183   6.363
  311TIP3    H1  878   5.593   3.223   6.320
  311TIP3    H2  879   5.744   3.209   6.308
  312TIP3   OH2  880   7.791   3.990   2.718
  312TIP3    H1  881   7.801   3.987   2.623
  312TIP3    H2  882   7.863   4.046   2.747
  313TIP3   OH2  883   2.452   1.132   2.385
  313TIP3    H1  884   2.469   1.166   2.297
  313TIP3    H2  885   2.537   1.102   2.416
  314TIP3   OH2  886   3.347   1.588   2.219
  314TIP3    H1  887   3.394   1.510   2.246
  314TIP3    H2  888   3.255   1.569   2.237
  315TIP3   OH2  889   0.470   0.271   5.771
  315TIP3    H1  890   0.562   0.271   5.744
  315TIP3    H2  891   0.465   0.339   5.838
  316TIP3   OH2  892   6.528   4.494   3.530
  316TIP3    H1  893   6.584   4.448   3.469
  316TIP3    H2  894   6.556   4.586   3.524
  317TIP3   OH2  895   0.966   7.279   4.446
  317TIP3    H1  896   0.920   7.352   4.406
  317TIP3    H2  897   0.966   7.299   4.540
  318TIP3   OH2  898   2.704   4.193   6.346
  318TIP3    H1  899   2.706   4.154   6.433
  318TIP3    H2  900   2.663   4.279   6.360
  319TIP3   OH2  901   2.236   3.977   0.603
  319TIP3    H1  902   2.201   4.057   0.563
  319TIP3    H2  903   2.158   3.929   0.631
  320TIP3   OH2  904   5.834   5.871   6.146
  320TIP3    H1  905   5.754   5.834   6.183
  320TIP3    H2  906   5.809   5.960   6.120
  321TIP3   OH2  907   4.953   0.018   3.392
  321TIP3    H1  908   4.951   0.045   3.484
  321TIP3    H2  909   5.044   0.032   3.366
  322TIP3   OH2  910   2.194   7.021   1.816
  322TIP3    H1  911   2.152   7.053   1.736
  322TIP3    H2  912   2.276   6.983   1.787
  323TIP3   OH2  913   1.209   7.667   0.610
  323TIP3    H1  914   1.231   7.702   0.524
  323TIP3    H2  915   1.224   7.573   0.601
  324TIP3   OH2  916   5.385   2.542   1.133
  324TIP3    H1  917   5.291   2.520   1.128
  324TIP3    H2  918   5.391   2.602   1.208
  325TIP3   OH2  919   0.071   0.926   6.558
  325TIP3    H1  920   0.054   1.005   6.507
  325TIP3    H2  921   0.156   0.941   6.600
  326TIP3   OH2  922   6.391   7.781   4.258
  326TIP3    H1  923   6.400   7.769   4.353
  326TIP3    H2  924   6.322   7.848   4.249
  327TIP3   OH2  925   3.952   4.568   6.307
  327TIP3    H1  926   4.046   4.555   6.296
  327TIP3    H2  927   3.941   4.581   6.401
  328TIP3   OH2  928   1.484   0.880   0.433
  328TIP3    H1  929   1.431   0.959   0.418
  328TIP3    H2  930   1.574   0.910   0.422
  329TIP3   OH2  931   3.394   3.778   1.021
  329TIP3    H1  932   3.346   3.761   1.102
  329TIP3    H2  933   3.431   3.694   0.996
  330TIP3   OH2  934   4.584   5.163   6.186
  330TIP3    H1  935   4.554   5.233   6.129
  330TIP3    H2  936   4.563   5.082   6.139
  331TIP3   OH2  937   1.729   4.845   4.085
  331TIP3    H1  938   1.772   4.918   4.039
  331TIP3    H2  939   1.800   4.804   4.135
  332TIP3   OH2  940   2.705   0.394   3.522
  332TIP3    H1  941   2.695   0.365   3.612
  332TIP3    H2  942   2.617   0.393   3.486
  333TIP3   OH2  943   7.239   0.869   3.235
  333TIP3    H1  944   7.196   0.947   3.270
  333TIP3    H2  945   7.191   0.795   3.272
  334TIP3   OH2  946   2.500   5.850   1.486
  334TIP3    H1  947   2.500   5.759   1.515
  334TIP3    H2  948   2.509   5.901   1.567
  335TIP3   OH2  949   8.228   0.812   0.611
  335TIP3    H1  950   8.307   0.791   0.560
  335TIP3    H2  951   8.261   0.852   0.691
  336TIP3   OH2  952   0.276   6.965   2.161
  336TIP3    H1  953   0.337   7.034   2.186
  336TIP3    H2  954   0.201   7.012   2.124
  337TIP3   OH2  955   1.737   7.127   3.830
  337TIP3    H1  956   1.696   7.153   3.913
  337TIP3    H2  957   1.730   7.204   3.774
  338TIP3   OH2  958   6.891   4.927   6.029
  338TIP3    H1  959   6.955   4.868   5.987
  338TIP3    H2  960   6.943   4.983   6.086
  339TIP3   OH2  961   0.824   7.025   0.514
  339TIP3    H1  962   0.823   7.101   0.456
  339TIP3    H2  963   0.780   7.055   0.594
  340TIP3   OH2  964   3.100   0.762   5.125
  340TIP3    H1  965   3.136   0.785   5.211
  340TIP3    H2  966   3.006   0.754   5.140
  341TIP3   OH2  967   3.665   1.986   3.478
  341TIP3    H1  968   3.752   1.951   3.496
  341TIP3    H2  969   3.677   2.081   3.478
  342TIP3   OH2  970   4.761   6.266   1.001
  342TIP3    H1  971   4.804   6.308   1.076
  342TIP3    H2  972   4.670   6.295   1.007
  343TIP3   OH2  973   3.040   1.234   0.519
  343TIP3    H1  974   3.003   1.249   0.606
  343TIP3    H2  975   2.974   1.183   0.473
  344TIP3   OH2  976   0.817   3.565   2.825
  344TIP3    H1  977   0.859   3.568   2.910
  344TIP3    H2  978   0.805   3.657   2.800
  345TIP3   OH2  979   0.791   7.786   6.142
  345TIP3    H1  980   0.840   7.725   6.087
  345TIP3    H2  981   0.804   7.872   6.102
  346TIP3   OH2  982   7.582   7.757   6.206
  346TIP3    H1  983   7.579   7.774   6.112
  346TIP3    H2  984   7.598   7.663   6.213
  347TIP3   OH2  985  -0.033   5.172   6.323
  347TIP3    H1  986   0.042   5.139   6.273
  347TIP3    H2  987   0.006   5.229   6.390
  348TIP3   OH2  988   3.839   5.133   3.720
  348TIP3    H1  989   3.906   5.100   3.660
  348TIP3    H2  990   3.840   5.071   3.793
  349TIP3   OH2  991   5.710   2.666   3.564
  349TIP3    H1  992   5.642   2.686   3.500
  349TIP3    H2  993   5.782   2.725   3.542
  350TIP3   OH2  994   6.901   4.315   3.572
  350TIP3    H1  995   6.930   4.369   3.498
  350TIP3    H2  996   6.821   4.358   3.603
  351TIP3   OH2  997   6.753   6.661   2.115
  351TIP3    H1  998   6.794   6.644   2.200
  351TIP3    H2  999   6.818   6.711   2.067
  352TIP3   OH2 1000   3.082   0.883   0.659
  352TIP3    H1 1001   3.076   0.899   0.565
  352TIP3    H2 1002   3.013   0.936   0.697
  353TIP3   OH2 1003   6.505   7.387   5.373
  353TIP3    H1 1004   6.468   7.413   5.457
  353TIP3    H2 1005   6.429   7.370   5.317
  354TIP3   OH2 1006   8.016   3.833   5.366
  354TIP3    H1 1007   8.052   3.772   5.431
  354TIP3    H2 1008   7.962   3.893   5.417
  355TIP3   OH2 1009   2.412   7.036   5.525
  355TIP3    H1 1010   2.345   7.009   5.589
  355TIP3    H2 1011   2.495   7.025   5.572
  356TIP3   OH2 1012   8.208   1.304   0.079
  356TIP3    H1 1013   8.292   1.301   0.032
  356TIP3    H2 1014   8.203   1.394   0.112
  357TIP3   OH2 1015   0.960   6.234   2.181
  357TIP3    H1 1016   0.919   6.179   2.114
  357TIP3    H2 1017   0.990   6.312   2.134
  358TIP3   OH2 1018   6.346   0.569   2.089
  358TIP3    H1 1019   6.352   0.587   2.183
  358TIP3    H2 1020   6.368   0.476   2.081
  359TIP3   OH2 1021   6.816   7.396   2.454
  359TIP3    H1 1022   6.792   7.455   2.382
  359TIP3    H2 1023   6.831   7.454   2.528
  360TIP3   OH2 1024   3.158   7.169   2.762
  360TIP3    H1 1025   3.187   7.256   2.789
  360TIP3    H2 1026   3.163   7.117   2.843
  361TIP3   OH2 1027   3.586   4.787   4.099
  361TIP3    H1 1028   3.675   4.752   4.089
  361TIP3    H2 1029   3.588   4.837   4.180
  362TIP3   OH2 1030   2.763   2.861   2.939
  362TIP3    H1 1031   2.722   2.947   2.935
  362TIP3    H2 1032   2.735   2.817   2.858
  363TIP3   OH2 1033   1.944   2.269   3.272
  363TIP3    H1 1034   1.869   2.329   3.269
  363TIP3    H2 1035   1.983   2.275   3.185
  364TIP3   OH2 1036   5.962   6.254   3.826
  364TIP3    H1 1037   5.885   6.226   3.778
  364TIP3    H2 1038   6.035   6.235   3.767
  365TIP3   OH2 1039   8.121   6.073   3.382
  365TIP3    H1 1040   8.152   6.128   3.455
  365TIP3    H2 1041   8.041   6.117   3.353
  366TIP3   OH2 1042   4.502   7.380   5.969
  366TIP3    H1 1043   4.467   7.361   5.882
  366TIP3    H2 1044   4.596   7.391   5.955
  367TIP3   OH2 1045   4.774   7.469   6.010
  367TIP3    H1 1046   4.844   7.489   6.073
  367TIP3    H2 1047   4.812   7.488   5.925
  368TIP3   OH2 1048   0.776   3.444   0.952
  368TIP3    H1 1049   0.736   3.519   0.907
  368TIP3    H2 1050   0.756   3.459   1.045
  369TIP3   OH2 1051   5.774   2.610   1.349
  369TIP3    H1 1052   5.849   2.615   1.290
  369TIP3    H2 1053   5.739   2.699   1.353
  370TIP3   OH2 1054   1.589   5.536   6.036
  370TIP3    H1 1055   1.497   5.515   6.020
  370TIP3    H2 1056   1.588   5.620   6.081
  371TIP3   OH2 1057   8.199   3.491   0.751
  371TIP3    H1 1058   8.256   3.548   0.700
  371TIP3    H2 1059   8.128   3.468   0.690
  372TIP3   OH2 1060   3.016   0.298   5.046
  372TIP3    H1 1061   3.012   0.229   4.980
  372TIP3    H2 1062   2.949   0.361   5.018
  373TIP3   OH2 1063   7.536   6.318   0.140
  373TIP3    H1 1064   7.456   6.321   0.193
  373TIP3    H2 1065   7.588   6.392   0.171
  374TIP3   OH2 1066   0.183   7.560   1.138
  374TIP3    H1 1067   0.174   7.509   1.058
  374TIP3    H2 1068   0.111   7.529   1.194
  375TIP3   OH2 1069   4.799   1.146   4.997
  375TIP3    H1 1070   4.713   1.144   4.957
  375TIP3    H2 1071   4.811   1.058   5.033
  376TIP3   OH2 1072   7.938   2.313   3.936
  376TIP3    H1 1073   7.898   2.356   4.012
  376TIP3    H2 1074   8.028   2.295   3.963
  377TIP3   OH2 1075   2.663   6.940   2.137
  377TIP3    H1 1076   2.679   6.859   2.089
  377TIP3    H2 1077   2.750   6.973   2.158
  378TIP3   OH2 1078   3.898   1.308   2.051
  378TIP3    H1 1079   3.934   1.388   2.012
  378TIP3    H2 1080   3.938   1.304   2.138
  379TIP3   OH2 1081   6.459   1.052   0.676
  379TIP3    H1 1082   6.441   1.143   0.699
  379TIP3    H2 1083   6.378   1.005   0.698
  380TIP3   OH2 1084   1.799   6.906   4.384
  380TIP3    H1 1085   1.879   6.864   4.353
  380TIP3    H2 1086   1.828   6.994   4.410
  381TIP3   OH2 1087   7.875   3.592   3.481
  381TIP3    H1 1088   7.812   3.647   3.434
  381TIP3    H2 1089   7.920   3.653   3.539
  382TIP3   OH2 1090   5.879   2.972   1.673
  382TIP3    H1 1091   5.892   3.022   1.593
  382TIP3    H2 1092   5.954   2.913   1.678
  383TIP3   OH2 1093   3.480   4.035   5.090
  383TIP3    H1 1094   3.529   3.983   5.027
  383TIP3    H2 1095   3.452   3.972   5.157
  384TIP3   OH2 1096   5.922   6.852   3.656
  384TIP3    H1 1097   5.958   6.782   3.711
  384TIP3    H2 1098   5.980   6.926   3.671
  385TIP3   OH2 1099   0.322   4.832   0.683
  385TIP3    H1 1100   0.378   4.830   0.760
  385TIP3    H2 1101   0.379   4.862   0.612
  386TIP3   OH2 1102   3.839   2.055   0.894
  386TIP3    H1 1103   3.821   1.975   0.942
  386TIP3    H2 1104   3.754   2.081   0.857
  387TIP3   OH2 1105   4.124   7.542   1.735
  387TIP3    H1 1106   4.144   7.535   1.828
  387TIP3    H2 1107   4.121   7.451   1.704
  388TIP3   OH2 1108   5.937   7.016   2.246
  388TIP3    H1 1109   5.852   7.053   2.269
  388TIP3    H2 1110   5.995   7.041   2.318
  389TIP3   OH2 1111   3.996   2.675   5.381
  389TIP3    H1 1112   4.049   2.629   5.446
  389TIP3    H2 1113   3.917   2.622   5.373
  390TIP3   OH2 1114   7.919   5.996   3.639
  390TIP3    H1 1115   7.952   5.998   3.549
  390TIP3    H2 1116   7.995   6.018   3.692
  391TIP3   OH2 1117   6.112   2.387   5.531
  391TIP3    H1 1118   6.030   2.342   5.512
  391TIP3    H2 1119   6.180   2.321   5.516
  392TIP3   OH2 1120   0.363   3.950   0.396
  392TIP3    H1 1121   0.445   3.954   0.347
  392TIP3    H2 1122   0.314   3.880   0.354
  393TIP3   OH2 1123   2.553   1.776   4.103
  393TIP3    H1 1124   2.530   1.684   4.092
  393TIP3    H2 1125   2.577   1.806   4.015
  394TIP3   OH2 1126   0.773   0.097   4.728
  394TIP3    H1 1127   0.750   0.166   4.665
  394TIP3    H2 1128   0.689   0.070   4.765
  395TIP3   OH2 1129   2.672   4.852   1.622
  395TIP3    H1 1130   2.626   4.915   1.567
  395TIP3    H2 1131   2.627   4.856   1.707
  396TIP3   OH2 1132   7.198   0.385   1.920
  396TIP3    H1 1133   7.239   0.467   1.947
  396TIP3    H2 1134   7.107   0.393   1.948
  397TIP3   OH2 1135   2.100   5.364   5.242
  397TIP3    H1 1136   2.072   5.285   5.288
  397TIP3    H2 1137   2.130   5.333   5.157
  398TIP3   OH2 1138   7.521   1.513   0.821
  398TIP3    H1 1139   7.443   1.505   0.766
  398TIP3    H2 1140   7.533   1.426   0.859
  399TIP3   OH2 1141   1.575   6.797   1.483
  399TIP3    H1 1142   1.621   6.789   1.566
  399TIP3    H2 1143   1.639   6.837   1.424
  400TIP3   OH2 1144   4.632   3.956   0.902
  400TIP3    H1 1145   4.653   3.957   0.808
  400TIP3    H2 1146   4.625   4.048   0.926
  401TIP3   OH2 1147   3.558   0.163   5.725
  401TIP3    H1 1148   3.614   0.094   5.689
  401TIP3    H2 1149   3.562   0.150   5.820
  402TIP3   OH2 1150   4.749   5.839   6.676
  402TIP3    H1 1151   4.796   5.773   6.625
  402TIP3    H2 1152   4.663   5.799   6.692
  403TIP3   OH2 1153   1.673   7.338   3.587
  403TIP3    H1 1154   1.635   7.283   3.519
  403TIP3    H2 1155   1.615   7.414   3.593
  404TIP3   OH2 1156   6.811   5.774   3.795
  404TIP3    H1 1157   6.801   5.856   3.747
  404TIP3    H2 1158   6.871   5.795   3.867
  405TIP3   OH2 1159   0.086   6.316   4.778
  405TIP3    H1 1160   0.168   6.324   4.729
  405TIP3    H2 1161   0.112   6.305   4.869
  406TIP3   OH2 1162   1.792   4.177   4.017
  406TIP3    H1 1163   1.708   4.220   4.033
  406TIP3    H2 1164   1.808   4.126   4.096
  407TIP3   OH2 1165   2.773   5.145   3.838
  407TIP3    H1 1166   2.823   5.074   3.798
  407TIP3    H2 1167   2.814   5.157   3.924
  408TIP3   OH2 1168   2.223   1.054   2.202
  408TIP3    H1 1169   2.284   1.051   2.276
  408TIP3    H2 1170   2.146   1.098   2.238
  409TIP3   OH2 1171   0.995   3.296   0.014
  409TIP3    H1 1172   0.974   3.277   0.105
  409TIP3    H2 1173   0.953   3.225  -0.035
  410TIP3   OH2 1174   3.990   7.188   2.775
  410TIP3    H1 1175   3.925   7.214   2.710
  410TIP3    H2 1176   3.940   7.174   2.856
  411TIP3   OH2 1177   2.296   3.319   2.783
  411TIP3    H1 1178   2.367   3.371   2.745
  411TIP3    H2 1179   2.256   3.275   2.708
  412TIP3   OH2 1180   2.029   3.541   1.161
  412TIP3    H1 1181   2.085   3.600   1.213
  412TIP3    H2 1182   1.958   3.518   1.221
  413TIP3   OH2 1183   4.263   2.136   1.945
  413TIP3    H1 1184   4.227   2.065   1.893
  413TIP3    H2 1185   4.296   2.199   1.881
  414TIP3   OH2 1186   2.786   4.221   1.002
  414TIP3    H1 1187   2.852   4.275   0.958
  414TIP3    H2 1188   2.703   4.248   0.963
  415TIP3   OH2 1189   7.980   3.252   5.963
  415TIP3    H1 1190   7.975   3.294   6.049
  415TIP3    H2 1191   8.049   3.187   5.972
  416TIP3   OH2 1192   6.322   1.940   6.249
  416TIP3    H1 1193   6.246   1.899   6.208
  416TIP3    H2 1194   6.323   2.029   6.214
  417TIP3   OH2 1195   5.333   5.466   4.251
  417TIP3    H1 1196   5.249   5.431   4.279
  417TIP3    H2 1197   5.359   5.527   4.320
  418TIP3   OH2 1198   5.286   4.732   5.005
  418TIP3    H1 1199   5.331   4.656   5.043
  418TIP3    H2 1200   5.197   4.725   5.037
  419TIP3   OH2 1201   6.273   6.203   2.474
  419TIP3    H1 1202   6.351   6.258   2.482
  419TIP3    H2 1203   6.207   6.246   2.528
  420TIP3   OH2 1204   6.183   2.179   1.006
  420TIP3    H1 1205   6.247   2.208   1.071
  420TIP3    H2 1206   6.139   2.259   0.977
  421TIP3   OH2 1207   2.191   2.436   0.961
  421TIP3    H1 1208   2.218   2.400   1.045
  421TIP3    H2 1209   2.122   2.499   0.984
  422TIP3   OH2 1210   0.459   7.289   6.267
  422TIP3    H1 1211   0.388   7.344   6.233
  422TIP3    H2 1212   0.502   7.344   6.333
  423TIP3   OH2 1213   1.278   0.203   6.428
  423TIP3    H1 1214   1.309   0.291   6.448
  423TIP3    H2 1215   1.226   0.213   6.349
  424TIP3   OH2 1216   7.057   7.546   5.568
  424TIP3    H1 1217   7.114   7.571   5.641
  424TIP3    H2 1218   6.982   7.606   5.575
  425TIP3   OH2 1219   2.085   6.557   0.272
  425TIP3    H1 1220   2.081   6.480   0.329
  425TIP3    H2 1221   2.011   6.546   0.213
  426TIP3   OH2 1222   6.833   4.205   2.283
  426TIP3    H1 1223   6.775   4.158   2.223
  426TIP3    H2 1224   6.921   4.190   2.246
  427TIP3   OH2 1225   2.161   5.597   4.014
  427TIP3    H1 1226   2.131   5.661   4.079
  427TIP3    H2 1227   2.252   5.622   3.996
  428TIP3   OH2 1228   2.336   0.751   6.376
  428TIP3    H1 1229   2.355   0.808   6.301
  428TIP3    H2 1230   2.376   0.667   6.353
  429TIP3   OH2 1231   5.753   7.092   1.404
  429TIP3    H1 1232   5.830   7.148   1.416
  429TIP3    H2 1233   5.679   7.151   1.416
  430TIP3   OH2 1234   1.556   3.582   4.025
  430TIP3    H1 1235   1.461   3.582   4.013
  430TIP3    H2 1236   1.581   3.675   4.022
  431TIP3   OH2 1237   7.918   4.834   0.136
  431TIP3    H1 1238   7.896   4.905   0.197
  431TIP3    H2 1239   7.961   4.768   0.191
  432TIP3   OH2 1240   6.186   4.559   5.524
  432TIP3    H1 1241   6.117   4.503   5.562
  432TIP3    H2 1242   6.174   4.550   5.429
  433TIP3   OH2 1243   4.335   2.390   3.614
  433TIP3    H1 1244   4.405   2.452   3.635
  433TIP3    H2 1245   4.345   2.373   3.520
  434TIP3   OH2 1246   8.031   6.770   3.411
  434TIP3    H1 1247   8.068   6.757   3.324
  434TIP3    H2 1248   8.082   6.841   3.449
  435TIP3   OH2 1249   2.133   4.375   5.003
  435TIP3    H1 1250   2.154   4.348   5.092
  435TIP3    H2 1251   2.047   4.336   4.986
  436TIP3   OH2 1252   1.571   6.016   5.532
  436TIP3    H1 1253   1.632   6.080   5.494
  436TIP3    H2 1254   1.489   6.031   5.486
  437TIP3   OH2 1255   0.271   5.391   4.917
  437TIP3    H1 1256   0.253   5.457   4.983
  437TIP3    H2 1257   0.364   5.371   4.927
  438TIP3   OH2 1258   4.116   4.710   2.324
  438TIP3    H1 1259   4.146   4.720   2.414
  438TIP3    H2 1260   4.191   4.673   2.277
  439TIP3   OH2 1261   4.734   7.358   5.686
  439TIP3    H1 1262   4.677   7.392   5.617
  439TIP3    H2 1263   4.815   7.334   5.641
  440TIP3   OH2 1264   1.010   6.812   3.317
  440TIP3    H1 1265   0.965   6.894   3.336
  440TIP3    H2 1266   1.103   6.831   3.332
  441TIP3   OH2 1267   3.753   2.230   4.963
  441TIP3    H1 1268   3.791   2.297   4.906
  441TIP3    H2 1269   3.685   2.190   4.910
  442TIP3   OH2 1270   6.001   4.223   6.483
  442TIP3    H1 1271   5.998   4.231   6.387
  442TIP3    H2 1272   6.001   4.313   6.515
  443TIP3   OH2 1273   8.072   3.605   3.997
  443TIP3    H1 1274   8.117   3.539   4.050
  443TIP3    H2 1275   8.143   3.652   3.953
  444TIP3   OH2 1276   7.619   1.289   2.951
  444TIP3    H1 1277   7.647   1.199   2.968
  444TIP3    H2 1278   7.580   1.286   2.863
  445TIP3   OH2 1279   2.773   6.032   1.066
  445TIP3    H1 1280   2.758   6.090   0.991
  445TIP3    H2 1281   2.801   5.949   1.027
  446TIP3   OH2 1282   7.625   4.955   0.390
  446TIP3    H1 1283   7.714   4.983   0.368
  446TIP3    H2 1284   7.637   4.870   0.434
  447TIP3   OH2 1285   4.094   5.745   1.192
  447TIP3    H1 1286   4.149   5.670   1.217
  447TIP3    H2 1287   4.155   5.818   1.189
  448TIP3   OH2 1288   1.596   3.028   1.314
  448TIP3    H1 1289   1.581   2.975   1.392
  448TIP3    H2 1290   1.544   2.985   1.245
  449TIP3   OH2 1291   7.659   0.835   3.847
  449TIP3    H1 1292   7.613   0.887   3.781
  449TIP3    H2 1293   7.705   0.768   3.797
  450TIP3   OH2 1294   6.328   6.643   6.026
  450TIP3    H1 1295   6.405   6.647   6.084
  450TIP3    H2 1296   6.276   6.719   6.051
  451TIP3   OH2 1297   0.620   4.524   3.607
  451TIP3    H1 1298   0.693   4.571   3.566
  451TIP3    H2 1299   0.643   4.520   3.700
  452TIP3   OH2 1300   7.725   3.713   1.200
  452TIP3    H1 1301   7.768   3.782   1.250
  452TIP3    H2 1302   7.713   3.642   1.263
  453TIP3   OH2 1303   0.406   3.781   0.602
  453TIP3    H1 1304   0.393   3.851   0.538
  453TIP3    H2 1305   0.488   3.738   0.575
  454TIP3   OH2 1306   3.636   6.209   1.221
  454TIP3    H1 1307   3.579   6.274   1.263
  454TIP3    H2 1308   3.725   6.236   1.245
  455TIP3   OH2 1309   2.548   6.701   5.454
  455TIP3    H1 1310   2.537   6.607   5.438
  455TIP3    H2 1311   2.501   6.718   5.535
  456TIP3   OH2 1312   1.126   1.549   0.378
  456TIP3    H1 1313   1.213   1.586   0.362
  456TIP3    H2 1314   1.073   1.580   0.305
  457TIP3   OH2 1315   4.924   7.696   4.061
  457TIP3    H1 1316   4.962   7.615   4.028
  457TIP3    H2 1317   4.865   7.668   4.131
  458TIP3   OH2 1318   3.384   4.274   6.246
  458TIP3    H1 1319   3.299   4.288   6.203
  458TIP3    H2 1320   3.371   4.193   6.297
  459TIP3   OH2 1321   6.609   4.581   1.680
  459TIP3    H1 1322   6.703   4.566   1.690
  459TIP3    H2 1323   6.604   4.669   1.641
  460TIP3   OH2 1324   5.908   4.731   0.714
  460TIP3    H1 1325   5.847   4.692   0.651
  460TIP3    H2 1326   5.991   4.687   0.697
  461TIP3   OH2 1327   6.477   6.036   0.971
  461TIP3    H1 1328   6.423   6.105   0.931
  461TIP3    H2 1329   6.446   6.032   1.061
  462TIP3   OH2 1330   0.014   4.008   1.238
  462TIP3    H1 1331   0.086   3.946   1.230
  462TIP3    H2 1332   0.054   4.088   1.271
  463TIP3   OH2 1333   3.012   3.523   1.509
  463TIP3    H1 1334   2.968   3.607   1.503
  463TIP3    H2 1335   2.941   3.459   1.515
  464TIP3   OH2 1336   0.860   4.357   4.998
  464TIP3    H1 1337   0.772   4.342   4.961
  464TIP3    H2 1338   0.874   4.451   4.987
  465TIP3   OH2 1339   0.244   2.654   6.328
  465TIP3    H1 1340   0.337   2.628   6.329
  465TIP3    H2 1341   0.209   2.614   6.249
  466TIP3   OH2 1342   1.896   5.951   6.715
  466TIP3    H1 1343   1.885   6.018   6.648
  466TIP3    H2 1344   1.970   5.983   6.768
  467TIP3   OH2 1345   1.743   2.820   1.723
  467TIP3    H1 1346   1.773   2.894   1.671
  467TIP3    H2 1347   1.725   2.857   1.810
  468TIP3   OH2 1348   2.297   3.855   3.582
  468TIP3    H1 1349   2.274   3.818   3.497
  468TIP3    H2 1350   2.230   3.822   3.642
  469TIP3   OH2 1351   2.671   6.799   2.486
  469TIP3    H1 1352   2.693   6.888   2.457
  469TIP3    H2 1353   2.624   6.812   2.568
  470TIP3   OH2 1354   0.464   2.169   6.169
  470TIP3    H1 1355   0.392   2.175   6.106
  470TIP3    H2 1356   0.533   2.224   6.132
  471TIP3   OH2 1357   7.078   3.083   0.262
  471TIP3    H1 1358   7.053   3.136   0.186
  471TIP3    H2 1359   6.996   3.045   0.293
  472TIP3   OH2 1360   4.788   0.914   5.150
  472TIP3    H1 1361   4.725   0.939   5.217
  472TIP3    H2 1362   4.861   0.875   5.198
  473TIP3   OH2 1363   6.976   2.906   5.257
  473TIP3    H1 1364   6.971   3.001   5.252
  473TIP3    H2 1365   6.954   2.876   5.169
  474TIP3   OH2 1366   5.215   1.979   3.254
  474TIP3    H1 1367   5.255   1.892   3.260
  474TIP3    H2 1368   5.235   2.009   3.165
  475TIP3   OH2 1369   1.612   5.831  -0.007
  475TIP3    H1 1370   1.556   5.773   0.044
  475TIP3    H2 1371   1.561   5.912  -0.016
  476TIP3   OH2 1372   3.452   2.328   1.514
  476TIP3    H1 1373   3.439   2.240   1.549
  476TIP3    H2 1374   3.520   2.318   1.447
  477TIP3   OH2 1375   5.426   3.003   5.374
  477TIP3    H1 1376   5.362   3.068   5.400
  477TIP3    H2 1377   5.507   3.031   5.417
  478TIP3   OH2 1378   1.653   6.892   3.001
  478TIP3    H1 1379   1.579   6.934   3.045
  478TIP3    H2 1380   1.657   6.804   3.039
  479TIP3   OH2 1381   6.821   7.380   3.802
  479TIP3    H1 1382   6.900   7.332   3.826
  479TIP3    H2 1383   6.799   7.348   3.715
  480TIP3   OH2 1384   5.047   6.381   4.396
  480TIP3    H1 1385   5.017   6.386   4.305
  480TIP3    H2 1386   5.127   6.329   4.392
  481TIP3   OH2 1387   7.330   3.609   3.769
  481TIP3    H1 1388   7.287   3.642   3.691
  481TIP3    H2 1389   7.421   3.594   3.743
  482TIP3   OH2 1390   4.385   7.595   2.758
  482TIP3    H1 1391   4.313   7.539   2.729
  482TIP3    H2 1392   4.368   7.607   2.852
  483TIP3   OH2 1393   0.909   0.359   3.019
  483TIP3    H1 1394   0.818   0.333   3.003
  483TIP3    H2 1395   0.934   0.311   3.099
  484TIP3   OH2 1396   3.036   6.074   3.288
  484TIP3    H1 1397   2.998   6.110   3.208
  484TIP3    H2 1398   2.961   6.038   3.336
  485TIP3   OH2 1399   1.270   5.661   6.006
  485TIP3    H1 1400   1.311   5.673   5.920
  485TIP3    H2 1401   1.224   5.743   6.022
  486TIP3   OH2 1402   1.056   1.625   0.626
  486TIP3    H1 1403   0.966   1.604   0.650
  486TIP3    H2 1404   1.066   1.590   0.537
  487TIP3   OH2 1405   4.159   2.478   1.064
  487TIP3    H1 1406   4.125   2.392   1.041
  487TIP3    H2 1407   4.138   2.487   1.157
  488TIP3   OH2 1408   7.654   1.802   2.773
  488TIP3    H1 1409   7.652   1.722   2.825
  488TIP3    H2 1410   7.606   1.866   2.826
  489TIP3   OH2 1411   0.395   6.785   3.222
  489TIP3    H1 1412   0.369   6.694   3.209
  489TIP3    H2 1413   0.490   6.784   3.214
  490TIP3   OH2 1414   2.636   0.243   3.763
  490TIP3    H1 1415   2.562   0.253   3.823
  490TIP3    H2 1416   2.713   0.244   3.819
  491TIP3   OH2 1417   1.296   1.804   5.860
  491TIP3    H1 1418   1.218   1.833   5.813
  491TIP3    H2 1419   1.334   1.737   5.803
  492TIP3   OH2 1420   8.213   0.915   3.982
  492TIP3    H1 1421   8.133   0.867   4.002
  492TIP3    H2 1422   8.208   0.931   3.888
  493TIP3   OH2 1423   1.705   2.667   1.346
  493TIP3    H1 1424   1.731   2.739   1.288
  493TIP3    H2 1425   1.633   2.703   1.397
  494TIP3   OH2 1426   4.679   4.133   3.214
  494TIP3    H1 1427   4.622   4.056   3.207
  494TIP3    H2 1428   4.633   4.201   3.166
  495TIP3   OH2 1429   3.798   6.092   3.255
  495TIP3    H1 1430   3.760   6.180   3.246
  495TIP3    H2 1431   3.723   6.035   3.267
  496TIP3   OH2 1432   0.698   3.757   1.461
  496TIP3    H1 1433   0.642   3.834   1.476
  496TIP3    H2 1434   0.764   3.787   1.399
  497TIP3   OH2 1435   1.828   3.579   1.871
  497TIP3    H1 1436   1.859   3.498   1.831
  497TIP3    H2 1437   1.732   3.571   1.870
  498TIP3   OH2 1438   3.123   7.349   0.497
  498TIP3    H1 1439   3.143   7.283   0.564
  498TIP3    H2 1440   3.076   7.301   0.429
  499TIP3   OH2 1441   3.791   3.493   6.096
  499TIP3    H1 1442   3.747   3.534   6.171
  499TIP3    H2 1443   3.736   3.419   6.073
  500TIP3   OH2 1444   3.540   4.670   2.558
  500TIP3    H1 1445   3.511   4.753   2.521
  500TIP3    H2 1446   3.548   4.611   2.483
  501TIP3   OH2 1447   2.906   4.082   5.612
  501TIP3    H1 1448   2.828   4.094   5.558
  501TIP3    H2 1449   2.954   4.164   5.603
  502TIP3   OH2 1450   5.896   4.872   3.356
  502TIP3    H1 1451   5.914   4.864   3.450
  502TIP3    H2 1452   5.818   4.819   3.342
  503TIP3   OH2 1453   7.339   0.771   4.343
  503TIP3    H1 1454   7.300   0.837   4.401
  503TIP3    H2 1455   7.420   0.812   4.313
  504TIP3   OH2 1456   3.224   6.960   3.601
  504TIP3    H1 1457   3.286   6.939   3.671
  504TIP3    H2 1458   3.221   7.056   3.600
  505TIP3   OH2 1459   1.883   1.564   3.121
  505TIP3    H1 1460   1.807   1.608   3.158
  505TIP3    H2 1461   1.953   1.580   3.184
  506TIP3   OH2 1462   4.137   0.235   5.672
  506TIP3    H1 1463   4.090   0.262   5.751
  506TIP3    H2 1464   4.068   0.209   5.611
  507TIP3   OH2 1465   3.538   5.970   2.308
  507TIP3    H1 1466   3.452   6.010   2.319
  507TIP3    H2 1467   3.585   6.032   2.252
  508TIP3   OH2 1468   6.613   3.664   3.090
  508TIP3    H1 1469   6.648   3.726   3.026
  508TIP3    H2 1470   6.557   3.717   3.147
  509TIP3   OH2 1471   3.856   3.960   0.691
  509TIP3    H1 1472   3.803   3.930   0.765
  509TIP3    H2 1473   3.946   3.959   0.724
  510TIP3   OH2 1474   2.920   3.368   2.568
  510TIP3    H1 1475   2.980   3.293   2.575
  510TIP3    H2 1476   2.949   3.416   2.491
  511TIP3   OH2 1477   6.221   6.084   4.371
  511TIP3    H1 1478   6.131   6.117   4.377
  511TIP3    H2 1479   6.264   6.142   4.308
  512TIP3   OH2 1480   6.372   0.255   1.464
  512TIP3    H1 1481   6.381   0.350   1.451
  512TIP3    H2 1482   6.448   0.218   1.418
  513TIP3   OH2 1483   0.901   2.517   3.057
  513TIP3    H1 1484   0.896   2.442   3.116
  513TIP3    H2 1485   0.811   2.532   3.029
  514TIP3   OH2 1486   5.770   5.537   0.605
  514TIP3    H1 1487   5.840   5.474   0.589
  514TIP3    H2 1488   5.774   5.597   0.531
  515TIP3   OH2 1489   4.901   7.588   2.271
  515TIP3    H1 1490   4.941   7.670   2.241
  515TIP3    H2 1491   4.875   7.607   2.361
  516TIP3   OH2 1492   4.734   5.034   5.366
  516TIP3    H1 1493   4.715   4.949   5.405
  516TIP3    H2 1494   4.670   5.093   5.406
  517TIP3   OH2 1495   7.826   7.420   6.708
  517TIP3    H1 1496   7.856   7.352   6.770
  517TIP3    H2 1497   7.907   7.458   6.674
  518TIP3   OH2 1498   5.040   5.434   6.695
  518TIP3    H1 1499   4.958   5.469   6.730
  518TIP3    H2 1500   5.013   5.359   6.642
  519TIP3   OH2 1501   4.742   1.577   6.732
  519TIP3    H1 1502   4.661   1.627   6.747
  519TIP3    H2 1503   4.721   1.520   6.658
  520TIP3   OH2 1504   7.998   0.122   5.288
  520TIP3    H1 1505   8.073   0.143   5.233
  520TIP3    H2 1506   7.923   0.123   5.228
  521TIP3   OH2 1507   2.450   5.813   2.076
  521TIP3    H1 1508   2.357   5.791   2.086
  521TIP3    H2 1509   2.467   5.800   1.983
  522TIP3   OH2 1510   0.095   4.843   3.521
  522TIP3    H1 1511   0.124   4.905   3.588
  522TIP3    H2 1512   0.072   4.764   3.569
  523TIP3   OH2 1513   5.116   6.827   4.510
  523TIP3    H1 1514   5.136   6.767   4.581
  523TIP3    H2 1515   5.196   6.829   4.457
  524TIP3   OH2 1516   4.650   2.862   5.916
  524TIP3    H1 1517   4.601   2.852   5.834
  524TIP3    H2 1518   4.698   2.943   5.905
  525TIP3   OH2 1519   0.425   0.448   3.319
  525TIP3    H1 1520   0.464   0.527   3.280
  525TIP3    H2 1521   0.347   0.431   3.266
  526TIP3   OH2 1522   2.524   2.288   1.367
  526TIP3    H1 1523   2.549   2.379   1.351
  526TIP3    H2 1524   2.604   2.247   1.401
  527TIP3   OH2 1525   3.812   3.699   2.113
  527TIP3    H1 1526   3.763   3.668   2.189
  527TIP3    H2 1527   3.901   3.714   2.145
  528TIP3   OH2 1528   2.221   2.997   4.998
  528TIP3    H1 1529   2.221   3.086   5.033
  528TIP3    H2 1530   2.249   3.008   4.907
  529TIP3   OH2 1531   1.646   4.093   2.017
  529TIP3    H1 1532   1.656   4.014   1.964
  529TIP3    H2 1533   1.600   4.064   2.096
  530TIP3   OH2 1534   7.398   2.556   4.528
  530TIP3    H1 1535   7.318   2.511   4.501
  530TIP3    H2 1536   7.408   2.536   4.621
  531TIP3   OH2 1537   2.507   5.914   3.901
  531TIP3    H1 1538   2.584   5.952   3.859
  531TIP3    H2 1539   2.456   5.878   3.828
  532TIP3   OH2 1540   2.071   6.877   4.322
  532TIP3    H1 1541   2.094   6.841   4.236
  532TIP3    H2 1542   2.120   6.959   4.328
  533TIP3   OH2 1543   5.738   6.752   2.460
  533TIP3    H1 1544   5.678   6.679   2.445
  533TIP3    H2 1545   5.823   6.710   2.472
  534TIP3   OH2 1546   8.033   1.289   1.307
  534TIP3    H1 1547   8.061   1.346   1.235
  534TIP3    H2 1548   8.029   1.348   1.383
  535TIP3   OH2 1549   4.858   3.996   3.679
  535TIP3    H1 1550   4.853   4.044   3.762
  535TIP3    H2 1551   4.809   3.916   3.694
  536TIP3   OH2 1552   0.573   1.697   1.021
  536TIP3    H1 1553   0.481   1.678   1.005
  536TIP3    H2 1554   0.600   1.751   0.948
  537TIP3   OH2 1555   6.691   6.992   1.527
  537TIP3    H1 1556   6.672   7.032   1.442
  537TIP3    H2 1557   6.674   6.899   1.514
  538TIP3   OH2 1558   1.417   1.381   6.145
  538TIP3    H1 1559   1.386   1.471   6.136
  538TIP3    H2 1560   1.512   1.388   6.146
  539TIP3   OH2 1561   5.104   6.510   2.841
  539TIP3    H1 1562   5.009   6.502   2.835
  539TIP3    H2 1563   5.137   6.473   2.760
  540TIP3   OH2 1564   7.763   4.885   5.130
  540TIP3    H1 1565   7.797   4.935   5.204
  540TIP3    H2 1566   7.693   4.832   5.167
  541TIP3   OH2 1567   8.033   3.668   1.835
  541TIP3    H1 1568   8.005   3.630   1.919
  541TIP3    H2 1569   8.114   3.621   1.814
  542TIP3   OH2 1570   4.353   0.017   6.548
  542TIP3    H1 1571   4.384   0.088   6.491
  542TIP3    H2 1572   4.267   0.047   6.579
  543TIP3   OH2 1573   2.638   7.740   3.158
  543TIP3    H1 1574   2.556   7.711   3.198
  543TIP3    H2 1575   2.684   7.659   3.135
  544TIP3   OH2 1576   2.862   1.916   6.397
  544TIP3    H1 1577   2.838   1.845   6.458
  544TIP3    H2 1578   2.864   1.874   6.311
  545TIP3   OH2 1579   2.517   7.702   0.515
  545TIP3    H1 1580   2.570   7.685   0.437
  545TIP3    H2 1581   2.427   7.701   0.484
  546TIP3   OH2 1582   1.528   0.800   3.969
  546TIP3    H1 1583   1.549   0.855   4.045
  546TIP3    H2 1584   1.516   0.863   3.897
  547TIP3   OH2 1585   2.127   5.033   2.930
  547TIP3    H1 1586   2.220   5.049   2.945
  547TIP3    H2 1587   2.119   5.024   2.835
  548TIP3   OH2 1588   0.103   6.799   5.574
  548TIP3    H1 1589   0.031   6.735   5.570
  548TIP3    H2 1590   0.137   6.803   5.485
  549TIP3   OH2 1591   4.186   2.969   3.642
  549TIP3    H1 1592   4.201   3.013   3.558
  549TIP3    H2 1593   4.199   2.876   3.623
  550TIP3   OH2 1594   3.829   6.883   6.545
  550TIP3    H1 1595   3.804   6.846   6.460
  550TIP3    H2 1596   3.922   6.905   6.534
  551TIP3   OH2 1597   6.116   7.503   3.742
  551TIP3    H1 1598   6.089   7.416   3.773
  551TIP3    H2 1599   6.034   7.549   3.725
  552TIP3   OH2 1600   0.708   0.630   2.324
  552TIP3    H1 1601   0.643   0.690   2.291
  552TIP3    H2 1602   0.703   0.554   2.266
  553TIP3   OH2 1603   5.983   6.404   6.476
  553TIP3    H1 1604   6.060   6.427   6.527
  553TIP3    H2 1605   5.918   6.471   6.500
  554TIP3   OH2 1606   6.455   0.723   6.242
  554TIP3    H1 1607   6.455   0.660   6.315
  554TIP3    H2 1608   6.475   0.807   6.283
  555TIP3   OH2 1609   4.288   3.400   1.132
  555TIP3    H1 1610   4.298   3.348   1.212
  555TIP3    H2 1611   4.377   3.430   1.111
  556TIP3   OH2 1612   4.430   0.177   4.803
  556TIP3    H1 1613   4.371   0.251   4.799
  556TIP3    H2 1614   4.442   0.160   4.896
  557TIP3   OH2 1615   1.057   7.311   0.818
  557TIP3    H1 1616   1.043   7.240   0.755
  557TIP3    H2 1617   1.074   7.267   0.901
  558TIP3   OH2 1618   8.143   4.386   5.749
  558TIP3    H1 1619   8.105   4.474   5.739
  558TIP3    H2 1620   8.082   4.329   5.703
  559TIP3   OH2 1621   5.219   6.548   0.395
  559TIP3    H1 1622   5.158   6.614   0.363
  559TIP3    H2 1623   5.162   6.479   0.430
  560TIP3   OH2 1624   6.382   0.807   2.639
  560TIP3    H1 1625   6.461   0.782   2.685
  560TIP3    H2 1626   6.315   0.747   2.672
  561TIP3   OH2 1627   4.805   6.548   2.575
  561TIP3    H1 1628   4.856   6.603   2.516
  561TIP3    H2 1629   4.725   6.528   2.526
  562TIP3   OH2 1630   4.826   3.868   4.877
  562TIP3    H1 1631   4.873   3.823   4.947
  562TIP3    H2 1632   4.891   3.923   4.835
  563TIP3   OH2 1633   1.306   0.075   2.321
  563TIP3    H1 1634   1.245   0.148   2.311
  563TIP3    H2 1635   1.343   0.086   2.408
  564TIP3   OH2 1636   6.348   2.040   0.449
  564TIP3    H1 1637   6.411   2.111   0.454
  564TIP3    H2 1638   6.374   1.991   0.371
  565TIP3   OH2 1639   4.486   7.634   4.272
  565TIP3    H1 1640   4.447   7.704   4.325
  565TIP3    H2 1641   4.537   7.583   4.335
  566TIP3   OH2 1642   3.216   3.598   0.365
  566TIP3    H1 1643   3.147   3.656   0.398
  566TIP3    H2 1644   3.219   3.616   0.271
  567TIP3   OH2 1645   6.216   6.434   2.798
  567TIP3    H1 1646   6.252   6.484   2.872
  567TIP3    H2 1647   6.272   6.357   2.792
  568TIP3   OH2 1648   4.125   3.770   5.463
  568TIP3    H1 1649   4.180   3.719   5.404
  568TIP3    H2 1650   4.111   3.712   5.538
  569TIP3   OH2 1651   4.053   1.527   1.924
  569TIP3    H1 1652   4.091   1.606   1.960
  569TIP3    H2 1653   4.128   1.471   1.903
  570TIP3   OH2 1654   1.971   2.149   1.732
  570TIP3    H1 1655   1.954   2.207   1.806
  570TIP3    H2 1656   1.899   2.087   1.732
  571TIP3   OH2 1657   5.887   7.803   6.125
  571TIP3    H1 1658   5.965   7.808   6.181
  571TIP3    H2 1659   5.821   7.760   6.179
  572TIP3   OH2 1660   7.274   2.357   5.171
  572TIP3    H1 1661   7.353   2.305   5.179
  572TIP3    H2 1662   7.252   2.352   5.078
  573TIP3   OH2 1663   0.406   3.331   1.634
  573TIP3    H1 1664   0.445   3.392   1.696
  573TIP3    H2 1665   0.352   3.386   1.577
  574TIP3   OH2 1666   0.459   3.429   3.053
  574TIP3    H1 1667   0.509   3.350   3.034
  574TIP3    H2 1668   0.367   3.404   3.038
  575TIP3   OH2 1669   5.435   4.842   2.019
  575TIP3    H1 1670   5.431   4.782   1.945
  575TIP3    H2 1671   5.520   4.824   2.060
  576TIP3   OH2 1672   0.194   5.618   1.205
  576TIP3    H1 1673   0.204   5.564   1.127
  576TIP3    H2 1674   0.238   5.700   1.184
  577TIP3   OH2 1675   3.406   5.961   4.802
  577TIP3    H1 1676   3.363   5.955   4.717
  577TIP3    H2 1677   3.498   5.981   4.782
  578TIP3   OH2 1678   5.626   2.681   2.258
  578TIP3    H1 1679   5.717   2.691   2.230
  578TIP3    H2 1680   5.609   2.587   2.250
  579TIP3   OH2 1681   6.759   5.345   0.719
  579TIP3    H1 1682   6.788   5.272   0.774
  579TIP3    H2 1683   6.746   5.305   0.632
  580TIP3   OH2 1684   2.566   1.641   3.372
  580TIP3    H1 1685   2.486   1.597   3.398
  580TIP3    H2 1686   2.554   1.732   3.401
  581TIP3   OH2 1687   1.332   6.427   3.219
  581TIP3    H1 1688   1.250   6.400   3.260
  581TIP3    H2 1689   1.399   6.369   3.258
  582TIP3   OH2 1690   2.084   4.017   6.239
  582TIP3    H1 1691   2.082   4.112   6.228
  582TIP3    H2 1692   2.102   3.983   6.151
  583TIP3   OH2 1693   5.622   5.501   0.914
  583TIP3    H1 1694   5.615   5.406   0.909
  583TIP3    H2 1695   5.588   5.531   0.829
  584TIP3   OH2 1696   2.203   7.392   1.796
  584TIP3    H1 1697   2.215   7.471   1.850
  584TIP3    H2 1698   2.145   7.420   1.725
  585TIP3   OH2 1699   1.383   2.083   5.211
  585TIP3    H1 1700   1.293   2.100   5.184
  585TIP3    H2 1701   1.386   1.989   5.226
  586TIP3   OH2 1702   7.479   6.071   6.385
  586TIP3    H1 1703   7.446   6.070   6.475
  586TIP3    H2 1704   7.574   6.079   6.395
  587TIP3   OH2 1705   2.474   3.062   5.662
  587TIP3    H1 1706   2.526   3.010   5.601
  587TIP3    H2 1707   2.537   3.118   5.707
  588TIP3   OH2 1708   1.415   7.722   3.936
  588TIP3    H1 1709   1.337   7.734   3.882
  588TIP3    H2 1710   1.453   7.810   3.943
  589TIP3   OH2 1711   1.721   2.791   6.708
  589TIP3    H1 1712   1.811   2.812   6.734
  589TIP3    H2 1713   1.730   2.755   6.620
  590TIP3   OH2 1714   5.276   3.164   3.226
  590TIP3    H1 1715   5.224   3.192   3.301
  590TIP3    H2 1716   5.304   3.075   3.248
  591TIP3   OH2 1717   7.530   0.539   0.184
  591TIP3    H1 1718   7.500   0.609   0.242
  591TIP3    H2 1719   7.570   0.475   0.243
  592TIP3   OH2 1720   3.873   7.164   5.200
  592TIP3    H1 1721   3.950   7.213   5.230
  592TIP3    H2 1722   3.904   7.074   5.190
  593TIP3   OH2 1723   3.585   6.289   5.834
  593TIP3    H1 1724   3.646   6.292   5.761
  593TIP3    H2 1725   3.599   6.203   5.874
  594TIP3   OH2 1726   3.337   6.657   2.668
  594TIP3    H1 1727   3.420   6.660   2.619
  594TIP3    H2 1728   3.361   6.617   2.751
  595TIP3   OH2 1729   6.380   3.072   1.286
  595TIP3    H1 1730   6.439   3.029   1.348
  595TIP3    H2 1731   6.341   3.144   1.336
  596TIP3   OH2 1732   0.670   3.241   4.054
  596TIP3    H1 1733   0.615   3.234   4.133
  596TIP3    H2 1734   0.731   3.312   4.074
  597TIP3   OH2 1735   5.525   5.985   5.161
  597TIP3    H1 1736   5.446   5.933   5.152
  597TIP3    H2 1737   5.578   5.937   5.225
  598TIP3   OH2 1738   1.025   4.015   5.083
  598TIP3    H1 1739   0.939   3.979   5.065
  598TIP3    H2 1740   1.046   3.986   5.172
  599TIP3   OH2 1741   7.074   5.223   6.330
  599TIP3    H1 1742   7.059   5.280   6.405
  599TIP3    H2 1743   7.163   5.244   6.301
  600TIP3   OH2 1744   4.351   7.704   5.211
  600TIP3    H1 1745   4.334   7.613   5.190
  600TIP3    H2 1746   4.265   7.739   5.236
  601TIP3   OH2 1747   2.904   5.742   6.577
  601TIP3    H1 1748   2.861   5.727   6.493
  601TIP3    H2 1749   2.991   5.702   6.567
  602TIP3   OH2 1750   5.131   3.379   3.819
  602TIP3    H1 1751   5.154   3.393   3.727
  602TIP3    H2 1752   5.202   3.421   3.868
  603TIP3   OH2 1753   2.225   2.261   5.310
  603TIP3    H1 1754   2.248   2.259   5.217
  603TIP3    H2 1755   2.261   2.344   5.342
  604TIP3   OH2 1756   1.676   7.284   4.938
  604TIP3    H1 1757   1.747   7.314   4.995
  604TIP3    H2 1758   1.614   7.356   4.935
  605TIP3   OH2 1759   3.950   5.573   6.353
  605TIP3    H1 1760   3.991   5.659   6.365
  605TIP3    H2 1761   3.947   5.562   6.258
  606TIP3   OH2 1762   4.216   4.945   0.599
  606TIP3    H1 1763   4.196   4.993   0.679
  606TIP3    H2 1764   4.244   4.859   0.628
  607TIP3   OH2 1765   5.529   0.124   0.722
  607TIP3    H1 1766   5.521   0.029   0.709
  607TIP3    H2 1767   5.489   0.162   0.644
  608TIP3   OH2 1768   1.615   7.637   6.326
  608TIP3    H1 1769   1.551   7.566   6.334
  608TIP3    H2 1770   1.699   7.594   6.339
  609TIP3   OH2 1771   2.707   7.099   3.245
  609TIP3    H1 1772   2.787   7.137   3.209
  609TIP3    H2 1773   2.717   7.005   3.231
  610TIP3   OH2 1774   4.306   7.770   2.989
  610TIP3    H1 1775   4.401   7.759   2.979
  610TIP3    H2 1776   4.297   7.830   3.063
  611TIP3   OH2 1777   7.651   2.411   1.035
  611TIP3    H1 1778   7.573   2.363   1.010
  611TIP3    H2 1779   7.622   2.502   1.043
  612TIP3   OH2 1780   1.225   7.071   6.770
  612TIP3    H1 1781   1.279   7.025   6.706
  612TIP3    H2 1782   1.137   7.036   6.757
  613TIP3   OH2 1783   6.633   7.545   4.259
  613TIP3    H1 1784   6.725   7.555   4.236
  613TIP3    H2 1785   6.593   7.506   4.181
  614TIP3   OH2 1786   0.863   3.465   2.476
  614TIP3    H1 1787   0.954   3.437   2.474
  614TIP3    H2 1788   0.851   3.503   2.564
  615TIP3   OH2 1789   4.801   5.598   5.660
  615TIP3    H1 1790   4.845   5.632   5.582
  615TIP3    H2 1791   4.833   5.654   5.731
  616TIP3   OH2 1792   7.849   0.354   0.241
  616TIP3    H1 1793   7.847   0.440   0.283
  616TIP3    H2 1794   7.922   0.359   0.180
  617TIP3   OH2 1795   0.641   7.114   0.708
  617TIP3    H1 1796   0.703   7.097   0.779
  617TIP3    H2 1797   0.630   7.209   0.708
  618TIP3   OH2 1798   7.978   1.541   1.934
  618TIP3    H1 1799   8.061   1.583   1.909
  618TIP3    H2 1800   7.955   1.582   2.017
  619TIP3   OH2 1801   7.431   3.246   0.608
  619TIP3    H1 1802   7.387   3.210   0.685
  619TIP3    H2 1803   7.479   3.173   0.571
  620TIP3   OH2 1804   5.005   6.045   3.749
  620TIP3    H1 1805   4.921   6.011   3.718
  620TIP3    H2 1806   5.013   6.010   3.838
  621TIP3   OH2 1807   4.731   6.503   3.764
  621TIP3    H1 1808   4.733   6.538   3.675
  621TIP3    H2 1809   4.675   6.564   3.812
  622TIP3   OH2 1810   1.633   7.569   2.125
  622TIP3    H1 1811   1.715   7.571   2.173
  622TIP3    H2 1812   1.567   7.594   2.190
  623TIP3   OH2 1813   5.592   6.585   5.157
  623TIP3    H1 1814   5.516   6.531   5.133
  623TIP3    H2 1815   5.587   6.660   5.098
  624TIP3   OH2 1816   2.738   1.375   1.867
  624TIP3    H1 1817   2.808   1.357   1.930
  624TIP3    H2 1818   2.693   1.291   1.858
  625TIP3   OH2 1819   4.559   7.399   4.393
  625TIP3    H1 1820   4.643   7.362   4.421
  625TIP3    H2 1821   4.497   7.328   4.407
  626TIP3   OH2 1822   3.142   2.166   4.812
  626TIP3    H1 1823   3.226   2.200   4.780
  626TIP3    H2 1824   3.082   2.179   4.738
  627TIP3   OH2 1825   4.765   7.226   4.443
  627TIP3    H1 1826   4.855   7.194   4.442
  627TIP3    H2 1827   4.711   7.147   4.448
  628TIP3   OH2 1828   7.525   5.753   6.500
  628TIP3    H1 1829   7.435   5.722   6.510
  628TIP3    H2 1830   7.560   5.703   6.427
  629TIP3   OH2 1831   1.567   6.818   3.945
  629TIP3    H1 1832   1.563   6.888   4.010
  629TIP3    H2 1833   1.488   6.767   3.959
  630TIP3   OH2 1834   4.096   2.278   4.612
  630TIP3    H1 1835   4.004   2.300   4.625
  630TIP3    H2 1836   4.137   2.292   4.697
  631TIP3   OH2 1837   7.473   7.685   4.939
  631TIP3    H1 1838   7.513   7.610   4.985
  631TIP3    H2 1839   7.427   7.733   5.008
  632TIP3   OH2 1840   2.513   1.688   3.736
  632TIP3    H1 1841   2.460   1.753   3.690
  632TIP3    H2 1842   2.486   1.604   3.698
  633TIP3   OH2 1843   6.944   1.035   5.693
  633TIP3    H1 1844   6.886   0.962   5.673
  633TIP3    H2 1845   6.889   1.097   5.742
  634TIP3   OH2 1846   0.446   4.501   4.037
  634TIP3    H1 1847   0.392   4.579   4.044
  634TIP3    H2 1848   0.392   4.437   3.990
  635TIP3   OH2 1849   0.326   0.799   1.135
  635TIP3    H1 1850   0.325   0.713   1.177
  635TIP3    H2 1851   0.323   0.861   1.207
  636TIP3   OH2 1852   2.631   5.047   1.970
  636TIP3    H1 1853   2.665   4.993   2.041
  636TIP3    H2 1854   2.596   4.984   1.907
  637TIP3   OH2 1855   0.766   4.661   1.126
  637TIP3    H1 1856   0.781   4.748   1.090
  637TIP3    H2 1857   0.678   4.637   1.096
  638TIP3   OH2 1858   4.526   5.860   3.452
  638TIP3    H1 1859   4.448   5.808   3.469
  638TIP3    H2 1860   4.537   5.913   3.531
  639TIP3   OH2 1861   5.487   2.835   2.443
  639TIP3    H1 1862   5.521   2.776   2.376
  639TIP3    H2 1863   5.528   2.919   2.424
  640TIP3   OH2 1864   5.605   7.369   2.357
  640TIP3    H1 1865   5.528   7.365   2.300
  640TIP3    H2 1866   5.583   7.434   2.423
  641TIP3   OH2 1867   5.642   1.398   3.017
  641TIP3    H1 1868   5.615   1.441   2.936
  641TIP3    H2 1869   5.674   1.312   2.989
  642TIP3   OH2 1870   1.087   5.556   5.672
  642TIP3    H1 1871   1.180   5.534   5.680
  642TIP3    H2 1872   1.061   5.519   5.588
  643TIP3   OH2 1873   1.919   3.585   4.211
  643TIP3    H1 1874   1.948   3.676   4.203
  643TIP3    H2 1875   1.883   3.564   4.124
  644TIP3   OH2 1876   3.046   5.825   4.238
  644TIP3    H1 1877   3.058   5.917   4.258
  644TIP3    H2 1878   3.077   5.779   4.316
  645TIP3   OH2 1879   7.212   7.599   5.215
  645TIP3    H1 1880   7.220   7.568   5.125
  645TIP3    H2 1881   7.121   7.627   5.222
  646TIP3   OH2 1882   0.629   1.744   0.573
  646TIP3    H1 1883   0.702   1.725   0.514
  646TIP3    H2 1884   0.603   1.833   0.551
  647TIP3   OH2 1885   7.300   0.588   0.826
  647TIP3    H1 1886   7.267   0.667   0.784
  647TIP3    H2 1887   7.281   0.518   0.764
  648TIP3   OH2 1888   7.212   2.082   0.238
  648TIP3    H1 1889   7.303   2.098   0.213
  648TIP3    H2 1890   7.196   1.990   0.216
  649TIP3   OH2 1891   6.891   2.960   3.112
  649TIP3    H1 1892   6.945   2.908   3.172
  649TIP3    H2 1893   6.838   2.895   3.065
  650TIP3   OH2 1894   3.125   6.790   0.167
  650TIP3    H1 1895   3.134   6.769   0.260
  650TIP3    H2 1896   3.060   6.728   0.135
  651TIP3   OH2 1897   7.468   4.882   5.009
  651TIP3    H1 1898   7.498   4.827   5.081
  651TIP3    H2 1899   7.445   4.821   4.939
  652TIP3   OH2 1900   5.676   4.817   1.583
  652TIP3    H1 1901   5.633   4.900   1.562
  652TIP3    H2 1902   5.742   4.807   1.514
  653TIP3   OH2 1903   6.461   7.579   3.550
  653TIP3    H1 1904   6.479   7.611   3.462
  653TIP3    H2 1905   6.434   7.488   3.538
  654TIP3   OH2 1906   5.059   6.506   3.607
  654TIP3    H1 1907   5.041   6.413   3.621
  654TIP3    H2 1908   5.034   6.521   3.516
  655TIP3   OH2 1909   0.662   0.437   2.121
  655TIP3    H1 1910   0.652   0.476   2.034
  655TIP3    H2 1911   0.683   0.345   2.104
  656TIP3   OH2 1912   7.374   3.029   0.322
  656TIP3    H1 1913   7.283   3.027   0.294
  656TIP3    H2 1914   7.422   3.062   0.246
  657TIP3   OH2 1915   1.584   1.129   3.363
  657TIP3    H1 1916   1.576   1.220   3.336
  657TIP3    H2 1917   1.678   1.114   3.371
  658TIP3   OH2 1918   1.130   3.782   5.244
  658TIP3    H1 1919   1.117   3.705   5.299
  658TIP3    H2 1920   1.223   3.783   5.224
  659TIP3   OH2 1921   7.171   4.325   2.203
  659TIP3    H1 1922   7.208   4.341   2.290
  659TIP3    H2 1923   7.158   4.413   2.166
  660TIP3   OH2 1924   7.954   7.379   5.293
  660TIP3    H1 1925   7.905   7.361   5.373
  660TIP3    H2 1926   8.046   7.375   5.320
  661TIP3   OH2 1927   4.198   2.645   2.873
  661TIP3    H1 1928   4.130   2.630   2.938
  661TIP3    H2 1929   4.158   2.705   2.810
  662TIP3   OH2 1930   0.675   2.757   5.107
  662TIP3    H1 1931   0.643   2.765   5.196
  662TIP3    H2 1932   0.607   2.798   5.053
  663TIP3   OH2 1933   7.619   1.709   2.227
  663TIP3    H1 1934   7.557   1.667   2.168
  663TIP3    H2 1935   7.570   1.724   2.307
  664TIP3   OH2 1936   2.612   3.623   3.814
  664TIP3    H1 1937   2.631   3.692   3.751
  664TIP3    H2 1938   2.538   3.575   3.776
  665TIP3   OH2 1939   1.357   6.095   3.945
  665TIP3    H1 1940   1.277   6.147   3.944
  665TIP3    H2 1941   1.426   6.158   3.964
  666TIP3   OH2 1942   4.089   5.849   5.443
  666TIP3    H1 1943   4.049   5.766   5.416
  666TIP3    H2 1944   4.174   5.824   5.478
  667TIP3   OH2 1945   0.582   3.192   1.166
  667TIP3    H1 1946   0.517   3.203   1.097
  667TIP3    H2 1947   0.628   3.276   1.169
  668TIP3   OH2 1948   0.902   3.127   5.974
  668TIP3    H1 1949   0.989   3.107   5.939
  668TIP3    H2 1950   0.881   3.213   5.939
  669TIP3   OH2 1951   3.722   0.039   2.441
  669TIP3    H1 1952   3.754   0.122   2.477
  669TIP3    H2 1953   3.774   0.025   2.362
  670TIP3   OH2 1954   5.113   2.337   4.087
  670TIP3    H1 1955   5.103   2.287   4.007
  670TIP3    H2 1956   5.195   2.305   4.125
  671TIP3   OH2 1957   3.108   0.957   0.399
  671TIP3    H1 1958   3.177   1.009   0.358
  671TIP3    H2 1959   3.076   0.899   0.329
  672TIP3   OH2 1960   2.348   2.335   4.004
  672TIP3    H1 1961   2.430   2.378   3.977
  672TIP3    H2 1962   2.294   2.337   3.925
  673TIP3   OH2 1963   6.589   6.740   1.073
  673TIP3    H1 1964   6.523   6.702   1.015
  673TIP3    H2 1965   6.538   6.772   1.148
  674TIP3   OH2 1966   7.341   0.166   2.032
  674TIP3    H1 1967   7.293   0.242   2.000
  674TIP3    H2 1968   7.346   0.178   2.127
  675TIP3   OH2 1969   8.165   2.574   1.902
  675TIP3    H1 1970   8.240   2.547   1.849
  675TIP3    H2 1971   8.180   2.532   1.987
  676TIP3   OH2 1972   0.926   1.511   3.947
  676TIP3    H1 1973   0.891   1.583   3.999
  676TIP3    H2 1974   0.911   1.537   3.856
  677TIP3   OH2 1975   6.117   6.362   1.368
  677TIP3    H1 1976   6.201   6.330   1.335
  677TIP3    H2 1977   6.056   6.352   1.295
  678TIP3   OH2 1978   4.149   5.677   2.972
  678TIP3    H1 1979   4.205   5.728   2.914
  678TIP3    H2 1980   4.126   5.599   2.921
  679TIP3   OH2 1981   6.412   3.643   2.236
  679TIP3    H1 1982   6.321   3.615   2.227
  679TIP3    H2 1983   6.411   3.735   2.208
  680TIP3   OH2 1984   8.048   4.393   0.341
  680TIP3    H1 1985   8.009   4.466   0.293
  680TIP3    H2 1986   8.143   4.404   0.328
  681TIP3   OH2 1987   1.657   3.118   1.706
  681TIP3    H1 1988   1.747   3.100   1.734
  681TIP3    H2 1989   1.603   3.087   1.779
  682TIP3   OH2 1990   3.648   7.710   2.668
  682TIP3    H1 1991   3.649   7.617   2.691
  682TIP3    H2 1992   3.557   7.736   2.678
  683TIP3   OH2 1993   4.181   5.981   2.037
  683TIP3    H1 1994   4.168   6.014   2.126
  683TIP3    H2 1995   4.210   6.057   1.987
  684TIP3   OH2 1996   2.524   6.798   6.342
  684TIP3    H1 1997   2.437   6.812   6.380
  684TIP3    H2 1998   2.560   6.724   6.392
  685TIP3   OH2 1999   3.472   3.581   3.468
  685TIP3    H1 2000   3.455   3.676   3.473
  685TIP3    H2 2001   3.541   3.573   3.402
  686TIP3   OH2 2002   0.987   0.706   6.691
  686TIP3    H1 2003   0.967   0.675   6.602
  686TIP3    H2 2004   0.930   0.654   6.748
  687TIP3   OH2 2005   5.432   6.660   4.747
  687TIP3    H1 2006   5.506   6.633   4.692
  687TIP3    H2 2007   5.396   6.578   4.780
  688TIP3   OH2 2008   4.887   6.987   1.266
  688TIP3    H1 2009   4.803   7.030   1.284
  688TIP3    H2 2010   4.946   7.022   1.333
  689TIP3   OH2 2011   4.612   2.700   0.487
  689TIP3    H1 2012   4.610   2.776   0.429
  689TIP3    H2 2013   4.535   2.711   0.543
  690TIP3   OH2 2014   3.139   4.270   2.312
  690TIP3    H1 2015   3.087   4.211   2.256
  690TIP3    H2 2016   3.186   4.212   2.371
  691TIP3   OH2 2017   2.330   1.394   5.675
  691TIP3    H1 2018   2.358   1.332   5.743
  691TIP3    H2 2019   2.359   1.479   5.709
  692TIP3   OH2 2020   6.824   5.402   5.005
  692TIP3    H1 2021   6.875   5.461   4.950
  692TIP3    H2 2022   6.813   5.323   4.953
  693TIP3   OH2 2023   7.896   6.614   1.318
  693TIP3    H1 2024   7.872   6.522   1.313
  693TIP3    H2 2025   7.922   6.637   1.229
  694TIP3   OH2 2026   4.555   1.803   1.348
  694TIP3    H1 2027   4.643   1.830   1.375
  694TIP3    H2 2028   4.524   1.747   1.419
  695TIP3   OH2 2029   5.010   3.171   4.963
  695TIP3    H1 2030   5.075   3.220   5.014
  695TIP3    H2 2031   4.952   3.239   4.927
  696TIP3   OH2 2032   3.812   4.267   5.846
  696TIP3    H1 2033   3.813   4.172   5.856
  696TIP3    H2 2034   3.905   4.292   5.843
  697TIP3   OH2 2035   7.481   5.592   2.857
  697TIP3    H1 2036   7.480   5.650   2.933
  697TIP3    H2 2037   7.564   5.544   2.864
  698TIP3   OH2 2038   0.412   5.970   3.253
  698TIP3    H1 2039   0.358   6.003   3.182
  698TIP3    H2 2040   0.377   6.014   3.331
  699TIP3   OH2 2041   0.640   6.181   0.178
  699TIP3    H1 2042   0.616   6.194   0.086
  699TIP3    H2 2043   0.654   6.086   0.185
  700TIP3   OH2 2044   6.224   2.436   2.013
  700TIP3    H1 2045   6.269   2.353   2.030
  700TIP3    H2 2046   6.141   2.428   2.058
  701TIP3   OH2 2047   7.813   7.466   5.927
  701TIP3    H1 2048   7.822   7.490   6.019
  701TIP3    H2 2049   7.902   7.469   5.892
  702TIP3   OH2 2050   7.173   1.847   0.489
  702TIP3    H1 2051   7.199   1.824   0.400
  702TIP3    H2 2052   7.224   1.788   0.545
  703TIP3   OH2 2053   6.986   2.681   3.204
  703TIP3    H1 2054   7.019   2.616   3.266
  703TIP3    H2 2055   7.052   2.750   3.204
  704TIP3   OH2 2056   6.654   6.713   6.579
  704TIP3    H1 2057   6.672   6.654   6.652
  704TIP3    H2 2058   6.668   6.801   6.615
  705TIP3   OH2 2059   6.270   3.614   4.978
  705TIP3    H1 2060   6.186   3.615   5.024
  705TIP3    H2 2061   6.336   3.618   5.047
  706TIP3   OH2 2062   5.666   2.403   3.024
  706TIP3    H1 2063   5.692   2.438   3.109
  706TIP3    H2 2064   5.609   2.330   3.044
  707TIP3   OH2 2065   4.285   3.509   6.022
  707TIP3    H1 2066   4.190   3.496   6.020
  707TIP3    H2 2067   4.306   3.525   6.114
  708TIP3   OH2 2068   7.109   2.208   5.862
  708TIP3    H1 2069   7.183   2.196   5.802
  708TIP3    H2 2070   7.149   2.210   5.949
  709TIP3   OH2 2071   7.306   4.157   1.844
  709TIP3    H1 2072   7.347   4.237   1.810
  709TIP3    H2 2073   7.329   4.156   1.937
  710TIP3   OH2 2074   6.142   4.744   2.801
  710TIP3    H1 2075   6.070   4.695   2.841
  710TIP3    H2 2076   6.199   4.676   2.764
  711TIP3   OH2 2077   7.000   6.547   5.206
  711TIP3    H1 2078   7.046   6.584   5.131
  711TIP3    H2 2079   6.997   6.618   5.270
  712TIP3   OH2 2080   1.488   3.091   5.659
  712TIP3    H1 2081   1.566   3.089   5.603
  712TIP3    H2 2082   1.415   3.073   5.599
  713TIP3   OH2 2083   7.501   2.489   2.224
  713TIP3    H1 2084   7.585   2.449   2.246
  713TIP3    H2 2085   7.508   2.579   2.254
  714TIP3   OH2 2086   5.180   6.692   3.385
  714TIP3    H1 2087   5.212   6.733   3.465
  714TIP3    H2 2088   5.085   6.690   3.396
  715TIP3   OH2 2089   0.565   6.021   5.581
  715TIP3    H1 2090   0.639   6.033   5.642
  715TIP3    H2 2091   0.606   6.016   5.495
  716TIP3   OH2 2092   1.169   1.303   2.206
  716TIP3    H1 2093   1.153   1.295   2.300
  716TIP3    H2 2094   1.083   1.323   2.169
  717TIP3   OH2 2095   2.997   7.279   3.254
  717TIP3    H1 2096   2.921   7.328   3.286
  717TIP3    H2 2097   3.010   7.210   3.319
  718TIP3   OH2 2098   3.482   6.679   4.829
  718TIP3    H1 2099   3.529   6.606   4.869
  718TIP3    H2 2100   3.545   6.718   4.768
  719TIP3   OH2 2101   5.688   3.579   1.631
  719TIP3    H1 2102   5.734   3.658   1.662
  719TIP3    H2 2103   5.598   3.608   1.616
  720TIP3   OH2 2104   7.995   4.571   3.730
  720TIP3    H1 2105   8.037   4.489   3.755
  720TIP3    H2 2106   8.014   4.580   3.636
  721TIP3   OH2 2107   5.862   6.672   1.153
  721TIP3    H1 2108   5.835   6.748   1.101
  721TIP3    H2 2109   5.864   6.705   1.243
  722TIP3   OH2 2110   1.208   1.920   1.433
  722TIP3    H1 2111   1.174   1.841   1.390
  722TIP3    H2 2112   1.133   1.978   1.439
  723TIP3   OH2 2113   4.795   5.212   1.597
  723TIP3    H1 2114   4.831   5.153   1.664
  723TIP3    H2 2115   4.700   5.198   1.601
  724TIP3   OH2 2116   6.668   2.493   5.092
  724TIP3    H1 2117   6.747   2.512   5.042
  724TIP3    H2 2118   6.643   2.577   5.131
  725TIP3   OH2 2119   4.912   1.057   1.366
  725TIP3    H1 2120   4.884   0.966   1.358
  725TIP3    H2 2121   4.850   1.097   1.427
  726TIP3   OH2 2122   7.737   6.980   1.296
  726TIP3    H1 2123   7.728   6.911   1.231
  726TIP3    H2 2124   7.799   7.042   1.257
  727TIP3   OH2 2125   0.344   3.864   2.419
  727TIP3    H1 2126   0.404   3.871   2.344
  727TIP3    H2 2127   0.375   3.930   2.481
  728TIP3   OH2 2128   1.915   6.789   0.959
  728TIP3    H1 2129   1.868   6.770   0.878
  728TIP3    H2 2130   1.889   6.878   0.982
  729TIP3   OH2 2131   3.124   4.613   6.464
  729TIP3    H1 2132   3.210   4.655   6.468
  729TIP3    H2 2133   3.120   4.576   6.375
  730TIP3   OH2 2134   3.365   6.546   1.536
  730TIP3    H1 2135   3.282   6.512   1.571
  730TIP3    H2 2136   3.367   6.637   1.565
  731TIP3   OH2 2137   0.131   6.869   4.536
  731TIP3    H1 2138   0.130   6.828   4.622
  731TIP3    H2 2139   0.219   6.851   4.502
  732TIP3   OH2 2140   6.527   0.884   1.876
  732TIP3    H1 2141   6.602   0.836   1.913
  732TIP3    H2 2142   6.548   0.976   1.890
  733TIP3   OH2 2143   5.659   4.087   3.261
  733TIP3    H1 2144   5.671   4.056   3.350
  733TIP3    H2 2145   5.711   4.167   3.255
  734TIP3   OH2 2146   6.469   4.222   3.462
  734TIP3    H1 2147   6.466   4.305   3.415
  734TIP3    H2 2148   6.415   4.162   3.410
  735TIP3   OH2 2149   0.797   2.179   5.037
  735TIP3    H1 2150   0.738   2.107   5.015
  735TIP3    H2 2151   0.823   2.214   4.952
  736TIP3   OH2 2152   0.833   5.674   1.311
  736TIP3    H1 2153   0.788   5.590   1.306
  736TIP3    H2 2154   0.864   5.679   1.401
  737TIP3   OH2 2155   2.656   6.136   2.065
  737TIP3    H1 2156   2.623   6.216   2.026
  737TIP3    H2 2157   2.747   6.156   2.088
  738TIP3   OH2 2158   0.298   2.469   5.244
  738TIP3    H1 2159   0.228   2.533   5.257
  738TIP3    H2 2160   0.291   2.410   5.319
  739TIP3   OH2 2161   1.047   6.232   0.582
  739TIP3    H1 2162   0.982   6.165   0.560
  739TIP3    H2 2163   1.132   6.189   0.566
  740TIP3   OH2 2164   4.175   2.438   6.005
  740TIP3    H1 2165   4.106   2.500   5.980
  740TIP3    H2 2166   4.145   2.403   6.090
  741TIP3   OH2 2167   1.332   6.451   0.588
  741TIP3    H1 2168   1.379   6.377   0.625
  741TIP3    H2 2169   1.264   6.471   0.654
  742TIP3   OH2 2170   8.309   5.586   0.856
  742TIP3    H1 2171   8.268   5.547   0.779
  742TIP3    H2 2172   8.244   5.576   0.925
  743TIP3   OH2 2173   5.926   4.024   3.764
  743TIP3    H1 2174   5.965   4.098   3.812
  743TIP3    H2 2175   5.978   4.017   3.684
  744TIP3   OH2 2176   6.880   2.320   4.426
  744TIP3    H1 2177   6.811   2.365   4.377
  744TIP3    H2 2178   6.851   2.324   4.517
  745TIP3   OH2 2179   4.318   0.709   0.410
  745TIP3    H1 2180   4.371   0.652   0.464
  745TIP3    H2 2181   4.369   0.722   0.330
  746TIP3   OH2 2182   2.700   5.737   5.056
  746TIP3    H1 2183   2.622   5.787   5.081
  746TIP3    H2 2184   2.672   5.684   4.982
  747TIP3   OH2 2185   2.391   2.415   4.719
  747TIP3    H1 2186   2.400   2.510   4.724
  747TIP3    H2 2187   2.461   2.382   4.776
  748TIP3   OH2 2188   2.243   6.619   6.568
  748TIP3    H1 2189   2.194   6.582   6.494
  748TIP3    H2 2190   2.267   6.707   6.540
  749TIP3   OH2 2191   5.071   6.139   6.635
  749TIP3    H1 2192   5.136   6.097   6.579
  749TIP3    H2 2193   5.112   6.140   6.722
  750TIP3   OH2 2194   3.063   7.049   5.165
  750TIP3    H1 2195   3.098   7.024   5.251
  750TIP3    H2 2196   3.140   7.047   5.107
  751TIP3   OH2 2197   7.908   7.559   6.159
  751TIP3    H1 2198   7.883   7.548   6.250
  751TIP3    H2 2199   7.997   7.523   6.154
  752TIP3   OH2 2200   6.112   2.301   2.732
  752TIP3    H1 2201   6.142   2.388   2.706
  752TIP3    H2 2202   6.036   2.317   2.789
  753TIP3   OH2 2203   2.089   1.284   4.001
  753TIP3    H1 2204   2.132   1.275   3.916
  753TIP3    H2 2205   2.021   1.217   4.000
  754TIP3   OH2 2206   1.240   5.388   5.379
  754TIP3    H1 2207   1.318   5.413   5.330
  754TIP3    H2 2208   1.231   5.294   5.362
  755TIP3   OH2 2209   4.365   7.520   3.812
  755TIP3    H1 2210   4.303   7.449   3.796
  755TIP3    H2 2211   4.350   7.545   3.903
  756TIP3   OH2 2212   0.110   5.997   5.051
  756TIP3    H1 2213   0.202   5.975   5.039
  756TIP3    H2 2214   0.111   6.070   5.113
  757TIP3   OH2 2215   7.428   3.625   2.089
  757TIP3    H1 2216   7.506   3.601   2.039
  757TIP3    H2 2217   7.461   3.685   2.156
  758TIP3   OH2 2218   6.515   0.378   1.809
  758TIP3    H1 2219   6.584   0.418   1.861
  758TIP3    H2 2220   6.560   0.314   1.754
  759TIP3   OH2 2221   2.494   6.911   0.890
  759TIP3    H1 2222   2.458   6.922   0.978
  759TIP3    H2 2223   2.549   6.989   0.876
  760TIP3   OH2 2224   3.761   3.038   0.052
  760TIP3    H1 2225   3.854   3.039   0.031
  760TIP3    H2 2226   3.749   3.114   0.110
  761TIP3   OH2 2227   3.291   7.656   4.402
  761TIP3    H1 2228   3.217   7.631   4.347
  761TIP3    H2 2229   3.276   7.748   4.422
  762TIP3   OH2 2230   5.972   1.911   3.403
  762TIP3    H1 2231   5.972   1.937   3.495
  762TIP3    H2 2232   5.992   1.992   3.356
  763TIP3   OH2 2233   1.294   1.735   2.419
  763TIP3    H1 2234   1.333   1.812   2.378
  763TIP3    H2 2235   1.213   1.721   2.370
  764TIP3   OH2 2236   7.943   5.339   1.640
  764TIP3    H1 2237   7.918   5.432   1.635
  764TIP3    H2 2238   8.033   5.338   1.608
  765TIP3   OH2 2239   1.069   1.783   3.930
  765TIP3    H1 2240   1.083   1.791   3.836
  765TIP3    H2 2241   1.087   1.691   3.950
  766TIP3   OH2 2242   3.563   7.351   0.459
  766TIP3    H1 2243   3.635   7.395   0.413
  766TIP3    H2 2244   3.568   7.260   0.430
  767TIP3   OH2 2245   0.365   6.301   6.744
  767TIP3    H1 2246   0.443   6.283   6.691
  767TIP3    H2 2247   0.400   6.327   6.829
  768TIP3   OH2 2248   3.070   4.340   3.406
  768TIP3    H1 2249   3.112   4.257   3.428
  768TIP3    H2 2250   3.137   4.389   3.359
  769TIP3   OH2 2251   4.710   6.665   0.255
  769TIP3    H1 2252   4.672   6.578   0.270
  769TIP3    H2 2253   4.683   6.716   0.332
  770TIP3   OH2 2254   6.645   2.083   3.810
  770TIP3    H1 2255   6.719   2.041   3.766
  770TIP3    H2 2256   6.655   2.176   3.789
  771TIP3   OH2 2257   2.783   0.320   2.429
  771TIP3    H1 2258   2.777   0.385   2.358
  771TIP3    H2 2259   2.708   0.263   2.415
  772TIP3   OH2 2260   0.540   2.039   4.226
  772TIP3    H1 2261   0.617   2.046   4.282
  772TIP3    H2 2262   0.469   2.078   4.277
  773TIP3   OH2 2263   2.348   6.089   5.835
  773TIP3    H1 2264   2.302   6.010   5.864
  773TIP3    H2 2265   2.343   6.087   5.740
  774TIP3   OH2 2266   2.252   6.819   2.031
  774TIP3    H1 2267   2.169   6.858   2.001
  774TIP3    H2 2268   2.311   6.894   2.041
  775TIP3   OH2 2269   4.522   7.682   6.445
  775TIP3    H1 2270   4.516   7.645   6.357
  775TIP3    H2 2271   4.478   7.617   6.500
  776TIP3   OH2 2272   0.403   3.476   6.445
  776TIP3    H1 2273   0.415   3.460   6.351
  776TIP3    H2 2274   0.390   3.571   6.451
  777TIP3   OH2 2275   1.390   0.751   4.470
  777TIP3    H1 2276   1.314   0.700   4.444
  777TIP3    H2 2277   1.354   0.828   4.513
  778TIP3   OH2 2278   1.511   5.938   0.821
  778TIP3    H1 2279   1.570   5.904   0.888
  778TIP3    H2 2280   1.449   5.993   0.869
  779TIP3   OH2 2281   8.042   5.581   0.939
  779TIP3    H1 2282   8.062   5.668   0.905
  779TIP3    H2 2283   7.952   5.588   0.972
  780TIP3   OH2 2284   0.272   6.891   1.130
  780TIP3    H1 2285   0.320   6.952   1.073
  780TIP3    H2 2286   0.341   6.844   1.176
  781TIP3   OH2 2287   0.639   0.549   4.446
  781TIP3    H1 2288   0.597   0.624   4.488
  781TIP3    H2 2289   0.728   0.549   4.480
  782TIP3   OH2 2290   7.796   7.259   1.685
  782TIP3    H1 2291   7.709   7.231   1.716
  782TIP3    H2 2292   7.833   7.181   1.645
  783TIP3   OH2 2293   4.309   1.061   1.105
  783TIP3    H1 2294   4.340   1.088   1.018
  783TIP3    H2 2295   4.253   1.133   1.134
  784TIP3   OH2 2296   6.044   3.842   4.877
  784TIP3    H1 2297   6.048   3.786   4.955
  784TIP3    H2 2298   6.025   3.782   4.805
  785TIP3   OH2 2299   7.946   2.245   1.564
  785TIP3    H1 2300   8.027   2.201   1.538
  785TIP3    H2 2301   7.889   2.239   1.488
  786TIP3   OH2 2302   5.345   0.597   1.122
  786TIP3    H1 2303   5.355   0.650   1.201
  786TIP3    H2 2304   5.346   0.661   1.050
  787TIP3   OH2 2305   6.626   7.140   2.792
  787TIP3    H1 2306   6.567   7.190   2.849
  787TIP3    H2 2307   6.638   7.057   2.837
  788TIP3   OH2 2308   2.485   1.891   3.440
  788TIP3    H1 2309   2.462   1.924   3.353
  788TIP3    H2 2310   2.499   1.970   3.492
  789TIP3   OH2 2311   7.044   1.057   3.281
  789TIP3    H1 2312   6.979   1.084   3.346
  789TIP3    H2 2313   7.082   1.139   3.250
  790TIP3   OH2 2314   5.757   5.069   4.179
  790TIP3    H1 2315   5.819   5.045   4.248
  790TIP3    H2 2316   5.753   5.164   4.181
  791TIP3   OH2 2317   0.959   6.435   1.319
  791TIP3    H1 2318   0.867   6.415   1.338
  791TIP3    H2 2319   0.957   6.475   1.232
  792TIP3   OH2 2320   4.157   2.331   6.752
  792TIP3    H1 2321   4.087   2.336   6.688
  792TIP3    H2 2322   4.136   2.255   6.806
  793TIP3   OH2 2323   2.731   7.073   0.203
  793TIP3    H1 2324   2.785   7.011   0.253
  793TIP3    H2 2325   2.745   7.157   0.245
  794TIP3   OH2 2326   7.272   6.332   5.182
  794TIP3    H1 2327   7.316   6.326   5.097
  794TIP3    H2 2328   7.293   6.420   5.214
  795TIP3   OH2 2329   4.695   3.643   1.677
  795TIP3    H1 2330   4.681   3.578   1.746
  795TIP3    H2 2331   4.770   3.694   1.707
  796TIP3   OH2 2332   0.842   3.672   1.716
  796TIP3    H1 2333   0.805   3.679   1.628
  796TIP3    H2 2334   0.910   3.740   1.719
  797TIP3   OH2 2335   3.590   4.926   5.388
  797TIP3    H1 2336   3.680   4.909   5.415
  797TIP3    H2 2337   3.565   5.005   5.436
  798TIP3   OH2 2338   1.286   4.042   5.290
  798TIP3    H1 2339   1.275   4.003   5.203
  798TIP3    H2 2340   1.343   3.981   5.337
  799TIP3   OH2 2341   5.511   5.598   0.682
  799TIP3    H1 2342   5.489   5.686   0.653
  799TIP3    H2 2343   5.587   5.573   0.631
  800TIP3   OH2 2344   5.346   4.443   5.577
  800TIP3    H1 2345   5.262   4.448   5.622
  800TIP3    H2 2346   5.379   4.356   5.597
  801TIP3   OH2 2347   5.051   4.255   5.509
  801TIP3    H1 2348   4.975   4.276   5.454
  801TIP3    H2 2349   5.024   4.279   5.597
  802TIP3   OH2 2350   4.770   4.408   5.293
  802TIP3    H1 2351   4.764   4.313   5.300
  802TIP3    H2 2352   4.679   4.438   5.301
  803TIP3   OH2 2353   0.915   6.055   0.419
  803TIP3    H1 2354   0.837   6.103   0.447
  803TIP3    H2 2355   0.919   6.069   0.324
  804TIP3   OH2 2356   3.124   0.081   1.005
  804TIP3    H1 2357   3.056   0.145   0.987
  804TIP3    H2 2358   3.205   0.132   1.007
  805TIP3   OH2 2359   4.252   7.812   6.321
  805TIP3    H1 2360   4.331   7.770   6.355
  805TIP3    H2 2361   4.275   7.836   6.231
  806TIP3   OH2 2362   6.845   1.541   5.707
  806TIP3    H1 2363   6.775   1.585   5.659
  806TIP3    H2 2364   6.851   1.588   5.790
  807TIP3   OH2 2365   2.780   5.249   2.192
  807TIP3    H1 2366   2.817   5.324   2.145
  807TIP3    H2 2367   2.816   5.172   2.148
  808TIP3   OH2 2368   0.078   2.485   1.720
  808TIP3    H1 2369   0.071   2.484   1.625
  808TIP3    H2 2370   0.171   2.499   1.737
  809TIP3   OH2 2371   3.715   5.438   2.198
  809TIP3    H1 2372   3.644   5.388   2.239
  809TIP3    H2 2373   3.671   5.504   2.145
  810TIP3   OH2 2374   6.125   6.070   3.063
  810TIP3    H1 2375   6.206   6.117   3.040
  810TIP3    H2 2376   6.062   6.139   3.083
  811TIP3   OH2 2377   5.937   0.213   2.240
  811TIP3    H1 2378   5.845   0.239   2.243
  811TIP3    H2 2379   5.984   0.294   2.219
  812TIP3   OH2 2380   6.956   1.820   0.123
  812TIP3    H1 2381   6.861   1.824   0.135
  812TIP3    H2 2382   6.967   1.807   0.028
  813TIP3   OH2 2383   1.882   3.376   2.101
  813TIP3    H1 2384   1.850   3.465   2.090
  813TIP3    H2 2385   1.849   3.349   2.187
  814TIP3   OH2 2386   3.949   5.293   2.314
  814TIP3    H1 2387   3.874   5.344   2.282
  814TIP3    H2 2388   3.992   5.350   2.378
  815TIP3   OH2 2389   1.926   1.414   6.462
  815TIP3    H1 2390   1.901   1.356   6.390
  815TIP3    H2 2391   1.852   1.410   6.522
  816TIP3   OH2 2392   5.546   2.772   3.071
  816TIP3    H1 2393   5.638   2.794   3.057
  816TIP3    H2 2394   5.500   2.855   3.057
  817TIP3   OH2 2395   2.741   7.510   6.613
  817TIP3    H1 2396   2.712   7.520   6.522
  817TIP3    H2 2397   2.827   7.553   6.616
  818TIP3   OH2 2398   6.010   6.270   1.596
  818TIP3    H1 2399   6.049   6.302   1.514
  818TIP3    H2 2400   5.923   6.241   1.571
  819TIP3   OH2 2401   6.154   4.755   0.419
  819TIP3    H1 2402   6.097   4.681   0.397
  819TIP3    H2 2403   6.099   4.832   0.409
  820TIP3   OH2 2404   6.397   6.290   4.241
  820TIP3    H1 2405   6.443   6.255   4.317
  820TIP3    H2 2406   6.369   6.377   4.268
  821TIP3   OH2 2407   1.724   6.750   2.269
  821TIP3    H1 2408   1.783   6.823   2.289
  821TIP3    H2 2409   1.659   6.788   2.209
  822TIP3   OH2 2410   7.276   0.349   0.501
  822TIP3    H1 2411   7.264   0.376   0.409
  822TIP3    H2 2412   7.342   0.280   0.497
  823TIP3   OH2 2413   6.590   7.484   4.831
  823TIP3    H1 2414   6.668   7.524   4.792
  823TIP3    H2 2415   6.538   7.558   4.863
  824TIP3   OH2 2416   1.673   0.433   4.448
  824TIP3    H1 2417   1.716   0.381   4.516
  824TIP3    H2 2418   1.594   0.467   4.489
  825TIP3   OH2 2419   5.993   2.787   6.727
  825TIP3    H1 2420   5.903   2.818   6.739
  825TIP3    H2 2421   6.007   2.724   6.797
  826TIP3   OH2 2422   7.600   2.345   3.165
  826TIP3    H1 2423   7.644   2.393   3.095
  826TIP3    H2 2424   7.594   2.408   3.237
  827TIP3   OH2 2425   4.229   7.342   2.828
  827TIP3    H1 2426   4.277   7.350   2.746
  827TIP3    H2 2427   4.148   7.298   2.805
  828TIP3   OH2 2428   1.126   5.082   0.471
  828TIP3    H1 2429   1.174   4.999   0.473
  828TIP3    H2 2430   1.161   5.128   0.395
  829TIP3   OH2 2431   3.895   3.174   3.428
  829TIP3    H1 2432   3.904   3.152   3.521
  829TIP3    H2 2433   3.844   3.255   3.428
  830TIP3   OH2 2434   6.435   3.669   6.407
  830TIP3    H1 2435   6.349   3.645   6.372
  830TIP3    H2 2436   6.438   3.764   6.399
  831TIP3   OH2 2437   5.378   7.635   5.722
  831TIP3    H1 2438   5.471   7.652   5.737
  831TIP3    H2 2439   5.351   7.704   5.661
  832TIP3   OH2 2440   1.593   1.095   2.149
  832TIP3    H1 2441   1.683   1.066   2.164
  832TIP3    H2 2442   1.602   1.187   2.122
  833TIP3   OH2 2443   3.174   5.302   0.469
  833TIP3    H1 2444   3.269   5.297   0.463
  833TIP3    H2 2445   3.148   5.359   0.396
  834TIP3   OH2 2446   3.631   4.666   0.617
  834TIP3    H1 2447   3.665   4.581   0.588
  834TIP3    H2 2448   3.537   4.660   0.600
  835TIP3   OH2 2449   7.234   0.222   4.687
  835TIP3    H1 2450   7.293   0.166   4.738
  835TIP3    H2 2451   7.268   0.220   4.598
  836TIP3   OH2 2452   8.071   2.912   3.823
  836TIP3    H1 2453   7.978   2.894   3.807
  836TIP3    H2 2454   8.080   2.909   3.918
  837TIP3   OH2 2455   3.408   7.258   6.608
  837TIP3    H1 2456   3.345   7.187   6.614
  837TIP3    H2 2457   3.492   7.215   6.592
  838TIP3   OH2 2458   7.441   0.412   1.776
  838TIP3    H1 2459   7.433   0.318   1.794
  838TIP3    H2 2460   7.467   0.450   1.860
  839TIP3   OH2 2461   7.947   7.581   5.089
  839TIP3    H1 2462   7.950   7.521   5.163
  839TIP3    H2 2463   7.982   7.663   5.122
  840TIP3   OH2 2464   7.396   1.599   4.626
  840TIP3    H1 2465   7.335   1.582   4.554
  840TIP3    H2 2466   7.359   1.675   4.671
  841TIP3   OH2 2467   7.142   1.814   3.624
  841TIP3    H1 2468   7.187   1.824   3.539
  841TIP3    H2 2469   7.087   1.892   3.631
  842TIP3   OH2 2470   4.729   5.729   1.248
  842TIP3    H1 2471   4.721   5.821   1.271
  842TIP3    H2 2472   4.754   5.686   1.330
  843TIP3   OH2 2473   6.307   7.525   0.808
  843TIP3    H1 2474   6.235   7.567   0.760
  843TIP3    H2 2475   6.355   7.598   0.847
  844TIP3   OH2 2476   8.069   7.372   2.144
  844TIP3    H1 2477   7.992   7.375   2.200
  844TIP3    H2 2478   8.041   7.323   2.066
  845TIP3   OH2 2479   7.134   4.793   6.337
  845TIP3    H1 2480   7.045   4.827   6.341
  845TIP3    H2 2481   7.181   4.840   6.406
  846TIP3   OH2 2482   0.824   4.549   2.450
  846TIP3    H1 2483   0.820   4.626   2.505
  846TIP3    H2 2484   0.739   4.546   2.406
  847TIP3   OH2 2485   1.087   6.379   1.981
  847TIP3    H1 2486   1.099   6.473   1.996
  847TIP3    H2 2487   1.170   6.339   2.010
  848TIP3   OH2 2488   5.893   0.529   4.255
  848TIP3    H1 2489   5.967   0.555   4.200
  848TIP3    H2 2490   5.816   0.541   4.198
  849TIP3   OH2 2491   2.512   1.917   5.605
  849TIP3    H1 2492   2.558   1.995   5.575
  849TIP3    H2 2493   2.542   1.905   5.695
  850TIP3   OH2 2494   3.466   5.351   0.423
  850TIP3    H1 2495   3.505   5.397   0.349
  850TIP3    H2 2496   3.480   5.258   0.403
  851TIP3   OH2 2497   5.752   2.012   1.033
  851TIP3    H1 2498   5.827   1.978   1.080
  851TIP3    H2 2499   5.757   2.107   1.043
  852TIP3   OH2 2500   3.535   7.118   0.296
  852TIP3    H1 2501   3.579   7.036   0.275
  852TIP3    H2 2502   3.449   7.109   0.255
  853TIP3   OH2 2503   5.706   0.753   6.513
  853TIP3    H1 2504   5.654   0.729   6.436
  853TIP3    H2 2505   5.790   0.710   6.498
  854TIP3   OH2 2506   5.666   3.761   1.197
  854TIP3    H1 2507   5.629   3.765   1.109
  854TIP3    H2 2508   5.605   3.705   1.246
  855TIP3   OH2 2509   6.185   4.194   5.897
  855TIP3    H1 2510   6.140   4.264   5.850
  855TIP3    H2 2511   6.125   4.120   5.892
  856TIP3   OH2 2512   0.496   4.071   4.058
  856TIP3    H1 2513   0.542   4.122   4.124
  856TIP3    H2 2514   0.488   4.129   3.983
  857TIP3   OH2 2515   0.016   1.914   3.790
  857TIP3    H1 2516   0.110   1.909   3.773
  857TIP3    H2 2517  -0.009   2.001   3.758
  858TIP3   OH2 2518   7.142   3.160   0.557
  858TIP3    H1 2519   7.169   3.116   0.476
  858TIP3    H2 2520   7.126   3.250   0.530
  859TIP3   OH2 2521   0.881   0.309   3.802
  859TIP3    H1 2522   0.833   0.336   3.724
  859TIP3    H2 2523   0.821   0.325   3.875
  860TIP3   OH2 2524   7.495   6.907   1.662
  860TIP3    H1 2525   7.481   6.927   1.755
  860TIP3    H2 2526   7.523   6.990   1.624
  861TIP3   OH2 2527   1.754   7.724   3.399
  861TIP3    H1 2528   1.675   7.774   3.419
  861TIP3    H2 2529   1.806   7.729   3.479
  862TIP3   OH2 2530   4.614   3.976   0.617
  862TIP3    H1 2531   4.666   3.983   0.537
  862TIP3    H2 2532   4.527   4.006   0.592
  863TIP3   OH2 2533   8.133   6.936   5.768
  863TIP3    H1 2534   8.098   7.015   5.727
  863TIP3    H2 2535   8.121   6.951   5.862
  864TIP3   OH2 2536   6.693   4.942   0.123
  864TIP3    H1 2537   6.667   4.952   0.214
  864TIP3    H2 2538   6.610   4.934   0.075
  865TIP3   OH2 2539   4.768   0.905   6.087
  865TIP3    H1 2540   4.733   0.993   6.102
  865TIP3    H2 2541   4.701   0.861   6.034
  866TIP3   OH2 2542   5.496   7.541   4.834
  866TIP3    H1 2543   5.532   7.455   4.854
  866TIP3    H2 2544   5.422   7.551   4.894
  867TIP3   OH2 2545   7.716   0.608   3.139
  867TIP3    H1 2546   7.679   0.625   3.052
  867TIP3    H2 2547   7.668   0.532   3.171
  868TIP3   OH2 2548   1.294   1.798   6.321
  868TIP3    H1 2549   1.205   1.808   6.356
  868TIP3    H2 2550   1.340   1.749   6.389
  869TIP3   OH2 2551   6.934   1.556   5.046
  869TIP3    H1 2552   6.905   1.618   4.979
  869TIP3    H2 2553   6.943   1.473   4.999
  870TIP3   OH2 2554   5.548   7.666   2.235
  870TIP3    H1 2555   5.619   7.662   2.299
  870TIP3    H2 2556   5.497   7.743   2.261
  871TIP3   OH2 2557   1.464   7.250   3.843
  871TIP3    H1 2558   1.470   7.163   3.802
  871TIP3    H2 2559   1.423   7.305   3.777
  872TIP3   OH2 2560   1.649   7.219   3.317
  872TIP3    H1 2561   1.555   7.235   3.319
  872TIP3    H2 2562   1.681   7.273   3.245
  873TIP3   OH2 2563   6.978   4.044   1.906
  873TIP3    H1 2564   6.951   4.133   1.882
  873TIP3    H2 2565   6.964   3.993   1.826
  874TIP3   OH2 2566   0.845   5.976   6.564
  874TIP3    H1 2567   0.768   5.949   6.615
  874TIP3    H2 2568   0.899   5.898   6.559
  875TIP3   OH2 2569   4.182   3.626   4.173
  875TIP3    H1 2570   4.265   3.599   4.212
  875TIP3    H2 2571   4.132   3.663   4.246
  876TIP3   OH2 2572   0.019   0.320   1.905
  876TIP3    H1 2573   0.083   0.257   1.939
  876TIP3    H2 2574   0.040   0.402   1.949
  877TIP3   OH2 2575   0.943   1.394   5.801
  877TIP3    H1 2576   0.866   1.370   5.852
  877TIP3    H2 2577   0.909   1.406   5.712
  878TIP3   OH2 2578   4.793   2.405   3.603
  878TIP3    H1 2579   4.816   2.458   3.679
  878TIP3    H2 2580   4.856   2.333   3.604
  879TIP3   OH2 2581   0.519   5.020   4.453
  879TIP3    H1 2582   0.424   5.015   4.463
  879TIP3    H2 2583   0.550   4.931   4.469
  880TIP3   OH2 2584   3.919   2.853   2.435
  880TIP3    H1 2585   3.953   2.769   2.404
  880TIP3    H2 2586   3.834   2.831   2.474
  881TIP3   OH2 2587   3.140   0.202   2.979
  881TIP3    H1 2588   3.147   0.111   2.949
  881TIP3    H2 2589   3.220   0.216   3.030
  882TIP3   OH2 2590   6.734   1.017   3.378
  882TIP3    H1 2591   6.683   0.936   3.384
  882TIP3    H2 2592   6.765   1.019   3.287
  883TIP3   OH2 2593   3.841   2.491   1.744
  883TIP3    H1 2594   3.805   2.483   1.655
  883TIP3    H2 2595   3.928   2.453   1.738
  884TIP3   OH2 2596   6.261   6.513   4.752
  884TIP3    H1 2597   6.267   6.609   4.752
  884TIP3    H2 2598   6.202   6.492   4.679
  885TIP3   OH2 2599   2.348   4.127   5.667
  885TIP3    H1 2600   2.296   4.155   5.742
  885TIP3    H2 2601   2.439   4.133   5.698
  886TIP3   OH2 2602   6.250   7.449   5.892
  886TIP3    H1 2603   6.168   7.412   5.860
  886TIP3    H2 2604   6.282   7.385   5.956
  887TIP3   OH2 2605   4.133   7.486   4.388
  887TIP3    H1 2606   4.055   7.449   4.430
  887TIP3    H2 2607   4.177   7.534   4.457
  888TIP3   OH2 2608   5.567   2.436   1.752
  888TIP3    H1 2609   5.595   2.347   1.774
  888TIP3    H2 2610   5.648   2.480   1.724
  889TIP3   OH2 2611   5.505   0.668   2.847
  889TIP3    H1 2612   5.503   0.652   2.941
  889TIP3    H2 2613   5.457   0.749   2.835
  890TIP3   OH2 2614   8.146   2.630   1.051
  890TIP3    H1 2615   8.130   2.536   1.054
  890TIP3    H2 2616   8.061   2.670   1.063
  891TIP3   OH2 2617   4.824   3.865   5.716
  891TIP3    H1 2618   4.775   3.895   5.639
  891TIP3    H2 2619   4.767   3.801   5.757
  892TIP3   OH2 2620   6.901   7.303   6.450
  892TIP3    H1 2621   6.827   7.279   6.395
  892TIP3    H2 2622   6.965   7.340   6.390
  893TIP3   OH2 2623   0.914   3.134   1.382
  893TIP3    H1 2624   0.905   3.202   1.449
  893TIP3    H2 2625   0.830   3.088   1.382
  894TIP3   OH2 2626   5.171   5.991   5.659
  894TIP3    H1 2627   5.198   6.079   5.688
  894TIP3    H2 2628   5.235   5.932   5.698
  895TIP3   OH2 2629   0.444   1.907   2.219
  895TIP3    H1 2630   0.369   1.905   2.161
  895TIP3    H2 2631   0.518   1.880   2.165
  896TIP3   OH2 2632   6.779   1.010   6.651
  896TIP3    H1 2633   6.803   0.952   6.723
  896TIP3    H2 2634   6.814   0.967   6.573
  897TIP3   OH2 2635   8.057   4.010   6.761
  897TIP3    H1 2636   8.141   3.969   6.779
  897TIP3    H2 2637   8.060   4.032   6.668
  898TIP3   OH2 2638   3.647   4.062   1.467
  898TIP3    H1 2639   3.664   4.153   1.489
  898TIP3    H2 2640   3.733   4.020   1.467
  899TIP3   OH2 2641   3.948   3.021   1.801
  899TIP3    H1 2642   3.941   3.102   1.750
  899TIP3    H2 2643   3.863   3.013   1.844
  900TIP3   OH2 2644   3.618   6.418   6.650
  900TIP3    H1 2645   3.657   6.466   6.576
  900TIP3    H2 2646   3.676   6.436   6.724
  901TIP3   OH2 2647   3.022   5.150   5.235
  901TIP3    H1 2648   2.971   5.229   5.249
  901TIP3    H2 2649   2.958   5.084   5.207
  902TIP3   OH2 2650   1.307   5.070   1.947
  902TIP3    H1 2651   1.396   5.104   1.939
  902TIP3    H2 2652   1.313   5.000   2.012
  903TIP3   OH2 2653   1.707   6.008   3.486
  903TIP3    H1 2654   1.798   6.019   3.511
  903TIP3    H2 2655   1.658   6.064   3.547
  904TIP3   OH2 2656   0.273   4.284   4.447
  904TIP3    H1 2657   0.256   4.355   4.385
  904TIP3    H2 2658   0.187   4.262   4.483
  905TIP3   OH2 2659   1.011   6.526   3.082
  905TIP3    H1 2660   0.995   6.431   3.078
  905TIP3    H2 2661   0.996   6.549   3.173
  906TIP3   OH2 2662   4.139   5.077   5.908
  906TIP3    H1 2663   4.189   5.083   5.827
  906TIP3    H2 2664   4.201   5.044   5.973
  907TIP3   OH2 2665   0.355   2.316   1.011
  907TIP3    H1 2666   0.271   2.362   1.017
  907TIP3    H2 2667   0.375   2.316   0.918
  908TIP3   OH2 2668   1.394   2.544   4.683
  908TIP3    H1 2669   1.331   2.585   4.743
  908TIP3    H2 2670   1.340   2.504   4.615
  909TIP3   OH2 2671   3.441   4.883   0.793
  909TIP3    H1 2672   3.514   4.827   0.767
  909TIP3    H2 2673   3.470   4.972   0.775
  910TIP3   OH2 2674   4.417   2.123   2.514
  910TIP3    H1 2675   4.458   2.208   2.500
  910TIP3    H2 2676   4.331   2.131   2.474
  911TIP3   OH2 2677   3.477   7.217   1.977
  911TIP3    H1 2678   3.427   7.169   1.911
  911TIP3    H2 2679   3.410   7.258   2.032
  912TIP3   OH2 2680   5.037   0.533   5.703
  912TIP3    H1 2681   5.007   0.531   5.794
  912TIP3    H2 2682   5.007   0.618   5.671
  913TIP3   OH2 2683   0.676   7.749   5.415
  913TIP3    H1 2684   0.674   7.756   5.320
  913TIP3    H2 2685   0.759   7.787   5.441
  914TIP3   OH2 2686   7.156   6.513   3.729
  914TIP3    H1 2687   7.125   6.440   3.782
  914TIP3    H2 2688   7.139   6.486   3.639
  915TIP3   OH2 2689   2.098   1.049   1.530
  915TIP3    H1 2690   2.177   1.053   1.584
  915TIP3    H2 2691   2.129   1.013   1.446
  916TIP3   OH2 2692   7.357   6.975   1.182
  916TIP3    H1 2693   7.330   7.000   1.270
  916TIP3    H2 2694   7.412   7.047   1.152
  917TIP3   OH2 2695   1.850   0.277   4.012
  917TIP3    H1 2696   1.824   0.369   4.011
  917TIP3    H2 2697   1.804   0.240   4.087
  918TIP3   OH2 2698   7.189   0.331   0.754
  918TIP3    H1 2699   7.177   0.332   0.659
  918TIP3    H2 2700   7.282   0.315   0.766
  919TIP3   OH2 2701   7.562   2.656   1.873
  919TIP3    H1 2702   7.587   2.651   1.781
  919TIP3    H2 2703   7.545   2.749   1.888
  920TIP3   OH2 2704   2.218   2.544   6.106
  920TIP3    H1 2705   2.228   2.639   6.096
  920TIP3    H2 2706   2.224   2.510   6.016
  921TIP3   OH2 2707   3.499   0.436   0.767
  921TIP3    H1 2708   3.529   0.455   0.856
  921TIP3    H2 2709   3.496   0.340   0.762
  922TIP3   OH2 2710   4.480   4.690   4.496
  922TIP3    H1 2711   4.389   4.712   4.479
  922TIP3    H2 2712   4.504   4.743   4.572
  923TIP3   OH2 2713   5.077   4.865   3.821
  923TIP3    H1 2714   5.075   4.874   3.726
  923TIP3    H2 2715   5.141   4.931   3.850
  924TIP3   OH2 2716   5.793   3.450   2.174
  924TIP3    H1 2717   5.747   3.391   2.113
  924TIP3    H2 2718   5.842   3.391   2.232
  925TIP3   OH2 2719   5.433   6.374   1.398
  925TIP3    H1 2720   5.492   6.309   1.437
  925TIP3    H2 2721   5.472   6.458   1.421
  926TIP3   OH2 2722   3.131   1.295   5.423
  926TIP3    H1 2723   3.146   1.224   5.485
  926TIP3    H2 2724   3.094   1.254   5.346
  927TIP3   OH2 2725   5.180   7.096   0.741
  927TIP3    H1 2726   5.167   7.120   0.650
  927TIP3    H2 2727   5.263   7.047   0.742
  928TIP3   OH2 2728   3.083   7.490   5.640
  928TIP3    H1 2729   3.000   7.491   5.593
  928TIP3    H2 2730   3.092   7.400   5.671
  929TIP3   OH2 2731   5.612   4.511   3.483
  929TIP3    H1 2732   5.620   4.601   3.515
  929TIP3    H2 2733   5.525   4.508   3.442
  930TIP3   OH2 2734   3.154   5.428   2.263
  930TIP3    H1 2735   3.233   5.482   2.272
  930TIP3    H2 2736   3.083   5.485   2.292
  931TIP3   OH2 2737   6.677   3.156   5.333
  931TIP3    H1 2738   6.629   3.221   5.383
  931TIP3    H2 2739   6.612   3.121   5.272
  932TIP3   OH2 2740   0.095   5.330   2.852
  932TIP3    H1 2741   0.027   5.274   2.889
  932TIP3    H2 2742   0.049   5.385   2.788
  933TIP3   OH2 2743   7.435   4.930   1.610
  933TIP3    H1 2744   7.416   4.991   1.682
  933TIP3    H2 2745   7.497   4.867   1.648
  934TIP3   OH2 2746   1.588   1.367   3.187
  934TIP3    H1 2747   1.528   1.416   3.244
  934TIP3    H2 2748   1.544   1.365   3.102
  935TIP3   OH2 2749   1.927   4.776   5.561
  935TIP3    H1 2750   2.006   4.794   5.509
  935TIP3    H2 2751   1.911   4.858   5.608
  936TIP3   OH2 2752   1.504   7.277   2.674
  936TIP3    H1 2753   1.580   7.231   2.637
  936TIP3    H2 2754   1.474   7.220   2.745
  937TIP3   OH2 2755   7.255   1.477   0.211
  937TIP3    H1 2756   7.302   1.472   0.128
  937TIP3    H2 2757   7.307   1.537   0.265
  938TIP3   OH2 2758   5.716   1.850   0.095
  938TIP3    H1 2759   5.785   1.793   0.059
  938TIP3    H2 2760   5.759   1.896   0.167
  939TIP3   OH2 2761   3.356   4.154   0.923
  939TIP3    H1 2762   3.283   4.096   0.942
  939TIP3    H2 2763   3.420   4.136   0.992
  940TIP3   OH2 2764   4.501   6.074   2.326
  940TIP3    H1 2765   4.502   6.030   2.241
  940TIP3    H2 2766   4.534   6.162   2.308
  941TIP3   OH2 2767   5.487   1.689   2.388
  941TIP3    H1 2768   5.429   1.625   2.347
  941TIP3    H2 2769   5.430   1.762   2.409
  942TIP3   OH2 2770   6.343   3.139   6.013
  942TIP3    H1 2771   6.393   3.191   5.949
  942TIP3    H2 2772   6.343   3.192   6.092
  943TIP3   OH2 2773   0.725   1.245   5.491
  943TIP3    H1 2774   0.694   1.317   5.546
  943TIP3    H2 2775   0.756   1.179   5.554
  944TIP3   OH2 2776   5.710   0.312   2.537
  944TIP3    H1 2777   5.653   0.385   2.560
  944TIP3    H2 2778   5.787   0.354   2.498
  945TIP3   OH2 2779   6.692   3.063   6.346
  945TIP3    H1 2780   6.678   3.053   6.440
  945TIP3    H2 2781   6.741   2.985   6.320
  946TIP3   OH2 2782   6.085   2.062   3.640
  946TIP3    H1 2783   6.161   2.121   3.639
  946TIP3    H2 2784   6.110   1.993   3.701
  947TIP3   OH2 2785   6.480   0.962   2.412
  947TIP3    H1 2786   6.465   0.905   2.487
  947TIP3    H2 2787   6.393   0.991   2.385
  948TIP3   OH2 2788   4.475   0.512   3.125
  948TIP3    H1 2789   4.515   0.565   3.056
  948TIP3    H2 2790   4.516   0.543   3.206
  949TIP3   OH2 2791   7.896   2.322   4.797
  949TIP3    H1 2792   7.857   2.366   4.721
  949TIP3    H2 2793   7.881   2.383   4.870
  950TIP3   OH2 2794   6.225   3.881   3.498
  950TIP3    H1 2795   6.284   3.915   3.566
  950TIP3    H2 2796   6.221   3.951   3.433
  951TIP3   OH2 2797   5.179   4.964   1.991
  951TIP3    H1 2798   5.246   5.022   2.027
  951TIP3    H2 2799   5.206   4.949   1.901
  952TIP3   OH2 2800   5.051   6.978   3.426
  952TIP3    H1 2801   4.968   6.937   3.449
  952TIP3    H2 2802   5.107   6.964   3.502
  953TIP3   OH2 2803   4.827   5.916   4.454
  953TIP3    H1 2804   4.816   5.821   4.444
  953TIP3    H2 2805   4.755   5.954   4.404
  954TIP3   OH2 2806   3.827   3.856   2.928
  954TIP3    H1 2807   3.763   3.854   2.999
  954TIP3    H2 2808   3.910   3.837   2.970
  955TIP3   OH2 2809   1.462   4.340   6.366
  955TIP3    H1 2810   1.400   4.407   6.394
  955TIP3    H2 2811   1.538   4.352   6.424
  956TIP3   OH2 2812   2.149   6.760   4.086
  956TIP3    H1 2813   2.158   6.665   4.079
  956TIP3    H2 2814   2.198   6.794   4.011
  957TIP3   OH2 2815   4.055   4.887   6.654
  957TIP3    H1 2816   4.007   4.883   6.736
  957TIP3    H2 2817   4.132   4.940   6.673
  958TIP3   OH2 2818   0.455   3.186   3.710
  958TIP3    H1 2819   0.469   3.120   3.778
  958TIP3    H2 2820   0.360   3.203   3.712
  959TIP3   OH2 2821   7.614   2.898   5.432
  959TIP3    H1 2822   7.710   2.904   5.431
  959TIP3    H2 2823   7.591   2.904   5.525
  960TIP3   OH2 2824   6.520   3.870   3.250
  960TIP3    H1 2825   6.525   3.961   3.221
  960TIP3    H2 2826   6.575   3.867   3.328
  961TIP3   OH2 2827   7.239   3.986   3.153
  961TIP3    H1 2828   7.262   3.928   3.081
  961TIP3    H2 2829   7.322   4.004   3.196
  962TIP3   OH2 2830   7.087   1.513   4.659
  962TIP3    H1 2831   7.009   1.489   4.608
  962TIP3    H2 2832   7.159   1.468   4.616
  963TIP3   OH2 2833   1.508   0.090   4.592
  963TIP3    H1 2834   1.595   0.130   4.599
  963TIP3    H2 2835   1.486   0.099   4.499
  964TIP3   OH2 2836   3.169   5.433   2.676
  964TIP3    H1 2837   3.074   5.438   2.664
  964TIP3    H2 2838   3.180   5.384   2.757
  965TIP3   OH2 2839   6.646   5.619   0.838
  965TIP3    H1 2840   6.634   5.657   0.751
  965TIP3    H2 2841   6.584   5.666   0.894
  966TIP3   OH2 2842   7.604   5.484   6.638
  966TIP3    H1 2843   7.621   5.579   6.640
  966TIP3    H2 2844   7.519   5.476   6.595
  967TIP3   OH2 2845   6.371   6.743   5.400
  967TIP3    H1 2846   6.467   6.740   5.397
  967TIP3    H2 2847   6.344   6.665   5.350
  968TIP3   OH2 2848   3.732   4.097   1.828
  968TIP3    H1 2849   3.640   4.074   1.831
  968TIP3    H2 2850   3.770   4.058   1.906
  969TIP3   OH2 2851   7.410   7.327   5.978
  969TIP3    H1 2852   7.378   7.414   5.998
  969TIP3    H2 2853   7.335   7.269   5.994
  970TIP3   OH2 2854   7.108   5.820   6.472
  970TIP3    H1 2855   7.087   5.838   6.380
  970TIP3    H2 2856   7.168   5.891   6.497
  971TIP3   OH2 2857   1.827   4.066   4.265
  971TIP3    H1 2858   1.894   4.088   4.330
  971TIP3    H2 2859   1.840   3.973   4.248
  972TIP3   OH2 2860   6.382   6.502   1.423
  972TIP3    H1 2861   6.384   6.539   1.335
  972TIP3    H2 2862   6.409   6.411   1.411
  973TIP3   OH2 2863   5.750   1.873   5.670
  973TIP3    H1 2864   5.776   1.806   5.608
  973TIP3    H2 2865   5.671   1.839   5.712
  974TIP3   OH2 2866   6.609   6.628   6.164
  974TIP3    H1 2867   6.625   6.583   6.246
  974TIP3    H2 2868   6.636   6.566   6.096
  975TIP3   OH2 2869   1.879   7.540   0.973
  975TIP3    H1 2870   1.943   7.577   1.033
  975TIP3    H2 2871   1.795   7.575   1.002
  976TIP3   OH2 2872   5.562   5.893   3.903
  976TIP3    H1 2873   5.490   5.847   3.945
  976TIP3    H2 2874   5.520   5.968   3.859
  977TIP3   OH2 2875   1.281   3.315   0.547
  977TIP3    H1 2876   1.243   3.383   0.491
  977TIP3    H2 2877   1.276   3.351   0.635
  978TIP3   OH2 2878   6.299   5.135   1.557
  978TIP3    H1 2879   6.257   5.093   1.632
  978TIP3    H2 2880   6.306   5.227   1.581
  979TIP3   OH2 2881   5.152   0.141   6.341
  979TIP3    H1 2882   5.130   0.125   6.250
  979TIP3    H2 2883   5.248   0.143   6.342
  980TIP3   OH2 2884   2.773   3.755   3.135
  980TIP3    H1 2885   2.825   3.675   3.121
  980TIP3    H2 2886   2.692   3.740   3.086
  981TIP3   OH2 2887   1.262   3.224   2.908
  981TIP3    H1 2888   1.289   3.203   2.997
  981TIP3    H2 2889   1.197   3.158   2.885
  982TIP3   OH2 2890   5.280   2.678   5.944
  982TIP3    H1 2891   5.242   2.647   6.026
  982TIP3    H2 2892   5.270   2.773   5.947
  983TIP3   OH2 2893   0.871   5.344   0.677
  983TIP3    H1 2894   0.916   5.411   0.730
  983TIP3    H2 2895   0.870   5.267   0.733
  984TIP3   OH2 2896   3.605   0.345   5.323
  984TIP3    H1 2897   3.608   0.317   5.231
  984TIP3    H2 2898   3.686   0.393   5.336
  985TIP3   OH2 2899   8.118   5.821   5.906
  985TIP3    H1 2900   8.067   5.752   5.864
  985TIP3    H2 2901   8.196   5.776   5.939
  986TIP3   OH2 2902   1.363   5.795   1.058
  986TIP3    H1 2903   1.424   5.868   1.072
  986TIP3    H2 2904   1.295   5.808   1.123
  987TIP3   OH2 2905   7.501   7.620   0.354
  987TIP3    H1 2906   7.528   7.530   0.375
  987TIP3    H2 2907   7.577   7.673   0.379
  988TIP3   OH2 2908   5.211   4.011   5.593
  988TIP3    H1 2909   5.149   4.083   5.579
  988TIP3    H2 2910   5.188   3.947   5.525
  989TIP3   OH2 2911   6.689   0.803   2.298
  989TIP3    H1 2912   6.627   0.872   2.322
  989TIP3    H2 2913   6.769   0.850   2.274
  990TIP3   OH2 2914   2.673   5.846   5.674
  990TIP3    H1 2915   2.707   5.758   5.657
  990TIP3    H2 2916   2.579   5.839   5.661
  991TIP3   OH2 2917   8.245   4.033   6.456
  991TIP3    H1 2918   8.152   4.034   6.479
  991TIP3    H2 2919   8.248   4.063   6.366
  992TIP3   OH2 2920   8.012   5.557   2.115
  992TIP3    H1 2921   8.096   5.585   2.152
  992TIP3    H2 2922   8.002   5.610   2.036
  993TIP3   OH2 2923   2.914   4.930   5.964
  993TIP3    H1 2924   2.946   4.854   5.916
  993TIP3    H2 2925   2.912   4.901   6.056
  994TIP3   OH2 2926   7.955   7.512   2.438
  994TIP3    H1 2927   7.894   7.493   2.366
  994TIP3    H2 2928   7.905   7.495   2.517
  995TIP3   OH2 2929   1.252   7.255   4.533
  995TIP3    H1 2930   1.184   7.279   4.470
  995TIP3    H2 2931   1.214   7.276   4.618
  996TIP3   OH2 2932   1.264   2.784   6.498
  996TIP3    H1 2933   1.207   2.708   6.503
  996TIP3    H2 2934   1.235   2.841   6.569
  997TIP3   OH2 2935   3.090   5.718   6.193
  997TIP3    H1 2936   3.054   5.640   6.152
  997TIP3    H2 2937   3.014   5.763   6.229
  998TIP3   OH2 2938   8.160   5.834  -0.008
  998TIP3    H1 2939   8.083   5.887  -0.029
  998TIP3    H2 2940   8.152   5.817   0.086
  999TIP3   OH2 2941   2.005   7.122   2.439
  999TIP3    H1 2942   2.050   7.064   2.501
  999TIP3    H2 2943   2.042   7.099   2.354
 1000TIP3   OH2 2944   4.937   5.873   5.786
 1000TIP3    H1 2945   4.898   5.952   5.824
 1000TIP3    H2 2946   5.007   5.905   5.729
 1001TIP3   OH2 2947   7.671   5.421   2.572
 1001TIP3    H1 2948   7.714   5.408   2.656
 1001TIP3    H2 2949   7.726   5.373   2.509
 1002TIP3   OH2 2950   0.604   6.448   3.516
 1002TIP3    H1 2951   0.583   6.355   3.515
 1002TIP3    H2 2952   0.628   6.468   3.425
 1003TIP3   OH2 2953   7.002   6.624   5.977
 1003TIP3    H1 2954   6.944   6.583   5.914
 1003TIP3    H2 2955   7.076   6.564   5.985
 1004TIP3   OH2 2956   6.914   1.965   4.053
 1004TIP3    H1 2957   6.935   1.888   4.001
 1004TIP3    H2 2958   6.821   1.956   4.074
 1005TIP3   OH2 2959   6.361   1.585   6.557
 1005TIP3    H1 2960   6.379   1.666   6.509
 1005TIP3    H2 2961   6.433   1.578   6.620
 1006TIP3   OH2 2962   4.312   5.807   3.632
 1006TIP3    H1 2963   4.218   5.819   3.613
 1006TIP3    H2 2964   4.314   5.742   3.702
 1007TIP3   OH2 2965   4.203   5.946   3.255
 1007TIP3    H1 2966   4.260   5.958   3.180
 1007TIP3    H2 2967   4.222   5.858   3.286
 1008TIP3   OH2 2968   1.242   6.691   0.492
 1008TIP3    H1 2969   1.238   6.746   0.570
 1008TIP3    H2 2970   1.318   6.634   0.506
 1009TIP3   OH2 2971   5.948   1.509   3.618
 1009TIP3    H1 2972   5.961   1.574   3.688
 1009TIP3    H2 2973   5.879   1.452   3.652
 1010TIP3   OH2 2974   7.434   5.188   2.578
 1010TIP3    H1 2975   7.430   5.284   2.577
 1010TIP3    H2 2976   7.484   5.165   2.500
 1011TIP3   OH2 2977   5.983   3.758   2.780
 1011TIP3    H1 2978   6.078   3.750   2.779
 1011TIP3    H2 2979   5.957   3.756   2.688
 1012TIP3   OH2 2980   7.184   4.122   0.069
 1012TIP3    H1 2981   7.251   4.054   0.074
 1012TIP3    H2 2982   7.103   4.078   0.094
 1013TIP3   OH2 2983   5.231   1.004   4.656
 1013TIP3    H1 2984   5.161   1.003   4.721
 1013TIP3    H2 2985   5.190   1.035   4.576
 1014TIP3   OH2 2986   6.418   3.675   6.697
 1014TIP3    H1 2987   6.391   3.589   6.729
 1014TIP3    H2 2988   6.431   3.663   6.603
 1015TIP3   OH2 2989   2.042   5.167   5.761
 1015TIP3    H1 2990   1.966   5.178   5.704
 1015TIP3    H2 2991   2.031   5.080   5.799
 1016TIP3   OH2 2992   2.725   0.181   6.724
 1016TIP3    H1 2993   2.715   0.110   6.660
 1016TIP3    H2 2994   2.747   0.257   6.670
 1017TIP3   OH2 2995   2.366   6.161   1.349
 1017TIP3    H1 2996   2.308   6.235   1.365
 1017TIP3    H2 2997   2.357   6.106   1.427
 1018TIP3   OH2 2998   2.721   2.291   6.564
 1018TIP3    H1 2999   2.730   2.304   6.470
 1018TIP3    H2 3000   2.648   2.230   6.573
 1019TIP3   OH2 3001   5.800   6.232   1.439
 1019TIP3    H1 3002   5.712   6.245   1.474
 1019TIP3    H2 3003   5.799   6.274   1.354
 1020TIP3   OH2 3004   3.654   0.100   5.426
 1020TIP3    H1 3005   3.622   0.189   5.412
 1020TIP3    H2 3006   3.737   0.112   5.474
 1021TIP3   OH2 3007   3.820   2.678   4.254
 1021TIP3    H1 3008   3.863   2.764   4.256
 1021TIP3    H2 3009   3.873   2.627   4.192
 1022TIP3   OH2 3010   8.197   2.309   4.049
 1022TIP3    H1 3011   8.245   2.363   4.113
 1022TIP3    H2 3012   8.227   2.342   3.964
 1023TIP3   OH2 3013   7.834  -0.011   0.190
 1023TIP3    H1 3014   7.929  -0.023   0.197
 1023TIP3    H2 3015   7.813   0.053   0.258
 1024TIP3   OH2 3016   1.545   3.090   6.562
 1024TIP3    H1 3017   1.504   3.105   6.647
 1024TIP3    H2 3018   1.636   3.116   6.574
 1025TIP3   OH2 3019   0.159   1.064   5.342
 1025TIP3    H1 3020   0.138   1.154   5.367
 1025TIP3    H2 3021   0.127   1.011   5.415
 1026TIP3   OH2 3022   2.469   5.653   3.508
 1026TIP3    H1 3023   2.534   5.624   3.444
 1026TIP3    H2 3024   2.425   5.573   3.535
 1027TIP3   OH2 3025   6.972   1.941   1.320
 1027TIP3    H1 3026   7.037   1.983   1.377
 1027TIP3    H2 3027   7.022   1.915   1.242
 1028TIP3   OH2 3028   6.888   6.674   6.426
 1028TIP3    H1 3029   6.803   6.708   6.454
 1028TIP3    H2 3030   6.928   6.747   6.378
 1029TIP3   OH2 3031   6.644   3.895   2.918
 1029TIP3    H1 3032   6.676   3.984   2.904
 1029TIP3    H2 3033   6.553   3.898   2.890
 1030TIP3   OH2 3034   4.328   3.285   5.580
 1030TIP3    H1 3035   4.252   3.339   5.557
 1030TIP3    H2 3036   4.291   3.214   5.632
 1031TIP3   OH2 3037   6.847   4.498   5.163
 1031TIP3    H1 3038   6.836   4.559   5.089
 1031TIP3    H2 3039   6.905   4.545   5.223
 1032TIP3   OH2 3040   2.925   5.519   1.149
 1032TIP3    H1 3041   2.841   5.542   1.188
 1032TIP3    H2 3042   2.903   5.452   1.084
 1033TIP3   OH2 3043   5.006   2.040   1.637
 1033TIP3    H1 3044   4.915   2.070   1.634
 1033TIP3    H2 3045   5.004   1.965   1.697
 1034TIP3   OH2 3046   8.178   3.909   5.156
 1034TIP3    H1 3047   8.137   3.869   5.080
 1034TIP3    H2 3048   8.124   3.881   5.230
 1035TIP3   OH2 3049   6.766   2.061   6.456
 1035TIP3    H1 3050   6.748   1.994   6.390
 1035TIP3    H2 3051   6.848   2.033   6.497
 1036TIP3   OH2 3052   0.892   1.352   2.332
 1036TIP3    H1 3053   0.847   1.268   2.331
 1036TIP3    H2 3054   0.839   1.407   2.390
 1037TIP3   OH2 3055   1.686   3.565   5.473
 1037TIP3    H1 3056   1.743   3.642   5.473
 1037TIP3    H2 3057   1.708   3.520   5.392
 1038TIP3   OH2 3058   3.396   1.116   4.705
 1038TIP3    H1 3059   3.438   1.141   4.787
 1038TIP3    H2 3060   3.363   1.198   4.669
 1039TIP3   OH2 3061   5.442   3.474   6.626
 1039TIP3    H1 3062   5.471   3.564   6.635
 1039TIP3    H2 3063   5.512   3.421   6.664
 1040TIP3   OH2 3064   4.083   5.264   3.173
 1040TIP3    H1 3065   4.161   5.219   3.203
 1040TIP3    H2 3066   4.109   5.356   3.165
 1041TIP3   OH2 3067   5.370   3.856   4.398
 1041TIP3    H1 3068   5.287   3.898   4.422
 1041TIP3    H2 3069   5.357   3.829   4.307
 1042TIP3   OH2 3070   1.013   3.738   1.023
 1042TIP3    H1 3071   0.943   3.731   0.957
 1042TIP3    H2 3072   1.083   3.683   0.989
 1043TIP3   OH2 3073   0.284   5.333   1.379
 1043TIP3    H1 3074   0.341   5.365   1.310
 1043TIP3    H2 3075   0.215   5.285   1.334
 1044TIP3   OH2 3076   0.122   2.756   1.883
 1044TIP3    H1 3077   0.100   2.830   1.825
 1044TIP3    H2 3078   0.165   2.692   1.826
 1045TIP3   OH2 3079   7.593   6.832   2.385
 1045TIP3    H1 3080   7.604   6.751   2.435
 1045TIP3    H2 3081   7.557   6.894   2.448
 1046TIP3   OH2 3082   5.282   3.301   0.781
 1046TIP3    H1 3083   5.352   3.261   0.729
 1046TIP3    H2 3084   5.242   3.228   0.828
 1047TIP3   OH2 3085   2.954   4.603   3.706
 1047TIP3    H1 3086   3.029   4.594   3.647
 1047TIP3    H2 3087   2.878   4.591   3.649
 1048TIP3   OH2 3088   5.597   5.721   6.165
 1048TIP3    H1 3089   5.539   5.649   6.141
 1048TIP3    H2 3090   5.584   5.732   6.259
 1049TIP3   OH2 3091   4.052   1.421   4.005
 1049TIP3    H1 3092   3.991   1.491   3.981
 1049TIP3    H2 3093   3.996   1.347   4.028
 1050TIP3   OH2 3094   6.986   3.471   1.560
 1050TIP3    H1 3095   6.931   3.451   1.484
 1050TIP3    H2 3096   7.075   3.477   1.524
 1051TIP3   OH2 3097   3.697   5.375   4.294
 1051TIP3    H1 3098   3.744   5.450   4.257
 1051TIP3    H2 3099   3.664   5.327   4.219
 1052TIP3   OH2 3100   1.461   7.016   3.733
 1052TIP3    H1 3101   1.536   6.971   3.771
 1052TIP3    H2 3102   1.386   6.959   3.752
 1053TIP3   OH2 3103   0.958   5.665   0.154
 1053TIP3    H1 3104   0.972   5.688   0.062
 1053TIP3    H2 3105   0.987   5.742   0.203
 1054TIP3   OH2 3106   7.118   2.900   5.538
 1054TIP3    H1 3107   7.087   2.906   5.448
 1054TIP3    H2 3108   7.197   2.846   5.533
 1055TIP3   OH2 3109   1.404   0.256   1.519
 1055TIP3    H1 3110   1.490   0.275   1.558
 1055TIP3    H2 3111   1.341   0.294   1.580
 1056TIP3   OH2 3112   3.601   4.960   3.636
 1056TIP3    H1 3113   3.607   4.897   3.563
 1056TIP3    H2 3114   3.674   5.021   3.620
 1057TIP3   OH2 3115   6.007   4.516   3.711
 1057TIP3    H1 3116   6.103   4.515   3.702
 1057TIP3    H2 3117   5.992   4.565   3.793
 1058TIP3   OH2 3118   5.353   1.761   6.396
 1058TIP3    H1 3119   5.396   1.691   6.445
 1058TIP3    H2 3120   5.396   1.841   6.425
 1059TIP3   OH2 3121   7.515   1.483   1.720
 1059TIP3    H1 3122   7.598   1.437   1.705
 1059TIP3    H2 3123   7.518   1.509   1.812
 1060TIP3   OH2 3124   0.716   3.078   6.270
 1060TIP3    H1 3125   0.784   3.141   6.293
 1060TIP3    H2 3126   0.761   3.008   6.223
 1061TIP3   OH2 3127   7.952   4.686   5.608
 1061TIP3    H1 3128   7.859   4.702   5.597
 1061TIP3    H2 3129   7.961   4.655   5.698
 1062TIP3   OH2 3130   7.897   0.976   2.494
 1062TIP3    H1 3131   7.958   0.904   2.475
 1062TIP3    H2 3132   7.947   1.055   2.473
 1063TIP3   OH2 3133   2.296   7.520   3.497
 1063TIP3    H1 3134   2.362   7.501   3.565
 1063TIP3    H2 3135   2.240   7.587   3.536
 1064TIP3   OH2 3136   5.825   1.998   4.154
 1064TIP3    H1 3137   5.780   2.054   4.218
 1064TIP3    H2 3138   5.782   2.018   4.071
 1065TIP3   OH2 3139   4.905   4.986   5.160
 1065TIP3    H1 3140   4.991   4.988   5.202
 1065TIP3    H2 3141   4.845   5.016   5.227
 1066TIP3   OH2 3142   8.060   3.336   3.040
 1066TIP3    H1 3143   8.046   3.394   3.115
 1066TIP3    H2 3144   7.974   3.331   2.997
 1067TIP3   OH2 3145   7.329   0.717   2.653
 1067TIP3    H1 3146   7.250   0.764   2.678
 1067TIP3    H2 3147   7.317   0.629   2.688
 1068TIP3   OH2 3148   1.995   4.518   5.324
 1068TIP3    H1 3149   1.943   4.449   5.365
 1068TIP3    H2 3150   1.935   4.563   5.266
 1069TIP3   OH2 3151   1.480   1.512   4.338
 1069TIP3    H1 3152   1.423   1.554   4.402
 1069TIP3    H2 3153   1.478   1.419   4.361
 1070TIP3   OH2 3154   7.925   5.177   5.708
 1070TIP3    H1 3155   7.887   5.254   5.749
 1070TIP3    H2 3156   7.856   5.111   5.712
 1071TIP3   OH2 3157   0.549   7.349   0.609
 1071TIP3    H1 3158   0.466   7.346   0.656
 1071TIP3    H2 3159   0.576   7.440   0.611
 1072TIP3   OH2 3160   3.180   5.672   0.573
 1072TIP3    H1 3161   3.262   5.715   0.550
 1072TIP3    H2 3162   3.169   5.605   0.505
 1073TIP3   OH2 3163   4.975   3.208   4.398
 1073TIP3    H1 3164   4.980   3.148   4.473
 1073TIP3    H2 3165   4.882   3.231   4.392
 1074TIP3   OH2 3166   1.203   3.686   6.483
 1074TIP3    H1 3167   1.208   3.694   6.578
 1074TIP3    H2 3168   1.285   3.643   6.458
 1075TIP3   OH2 3169   8.165   2.967   2.615
 1075TIP3    H1 3170   8.139   3.000   2.701
 1075TIP3    H2 3171   8.255   2.995   2.604
 1076TIP3   OH2 3172   7.104   4.153   4.025
 1076TIP3    H1 3173   7.026   4.199   3.994
 1076TIP3    H2 3174   7.129   4.097   3.952
 1077TIP3   OH2 3175   4.142   0.859   4.553
 1077TIP3    H1 3176   4.155   0.941   4.505
 1077TIP3    H2 3177   4.184   0.793   4.498
 1078TIP3   OH2 3178   4.996   6.852   0.899
 1078TIP3    H1 3179   4.949   6.932   0.875
 1078TIP3    H2 3180   5.044   6.829   0.820
 1079TIP3   OH2 3181   0.549   0.432   0.885
 1079TIP3    H1 3182   0.557   0.528   0.891
 1079TIP3    H2 3183   0.596   0.409   0.806
 1080TIP3   OH2 3184   2.402   4.490   4.307
 1080TIP3    H1 3185   2.384   4.583   4.314
 1080TIP3    H2 3186   2.498   4.485   4.303
 1081TIP3   OH2 3187   0.860   6.837   2.262
 1081TIP3    H1 3188   0.884   6.909   2.203
 1081TIP3    H2 3189   0.872   6.872   2.350
 1082TIP3   OH2 3190   3.826   7.127   2.979
 1082TIP3    H1 3191   3.844   7.128   3.073
 1082TIP3    H2 3192   3.770   7.050   2.966
 1083TIP3   OH2 3193   0.850   0.665   0.040
 1083TIP3    H1 3194   0.815   0.654  -0.049
 1083TIP3    H2 3195   0.775   0.648   0.097
 1084TIP3   OH2 3196   0.919   4.774   2.647
 1084TIP3    H1 3197   0.995   4.756   2.591
 1084TIP3    H2 3198   0.938   4.726   2.728
 1085TIP3   OH2 3199   5.215   3.556   4.938
 1085TIP3    H1 3200   5.307   3.531   4.928
 1085TIP3    H2 3201   5.185   3.574   4.849
 1086TIP3   OH2 3202   1.884   5.270   2.069
 1086TIP3    H1 3203   1.965   5.227   2.097
 1086TIP3    H2 3204   1.842   5.208   2.010
 1087TIP3   OH2 3205   3.323   6.993   1.359
 1087TIP3    H1 3206   3.344   7.086   1.372
 1087TIP3    H2 3207   3.280   6.990   1.273
 1088TIP3   OH2 3208   8.265   3.541   2.882
 1088TIP3    H1 3209   8.176   3.535   2.848
 1088TIP3    H2 3210   8.305   3.613   2.833
 1089TIP3   OH2 3211   7.106   3.546   3.055
 1089TIP3    H1 3212   7.083   3.614   3.118
 1089TIP3    H2 3213   7.107   3.590   2.970
 1090TIP3   OH2 3214   4.777   3.759   1.399
 1090TIP3    H1 3215   4.717   3.825   1.365
 1090TIP3    H2 3216   4.729   3.716   1.470
 1091TIP3   OH2 3217   7.233   1.159   2.423
 1091TIP3    H1 3218   7.242   1.196   2.335
 1091TIP3    H2 3219   7.198   1.231   2.476
 1092TIP3   OH2 3220   2.094   7.266   4.054
 1092TIP3    H1 3221   2.110   7.184   4.102
 1092TIP3    H2 3222   1.999   7.276   4.055
 1093TIP3   OH2 3223   0.359   5.988   3.985
 1093TIP3    H1 3224   0.396   6.024   3.904
 1093TIP3    H2 3225   0.425   5.927   4.016
 1094TIP3   OH2 3226   7.745   2.912   0.098
 1094TIP3    H1 3227   7.807   2.868   0.156
 1094TIP3    H2 3228   7.799   2.947   0.027
 1095TIP3   OH2 3229   7.371   6.808   5.909
 1095TIP3    H1 3230   7.293   6.780   5.862
 1095TIP3    H2 3231   7.428   6.845   5.841
 1096TIP3   OH2 3232   3.203   7.282   1.443
 1096TIP3    H1 3233   3.181   7.375   1.442
 1096TIP3    H2 3234   3.186   7.252   1.353
 1097TIP3   OH2 3235   5.405   7.311   2.139
 1097TIP3    H1 3236   5.326   7.282   2.184
 1097TIP3    H2 3237   5.423   7.242   2.075
 1098TIP3   OH2 3238   5.222   5.773   3.746
 1098TIP3    H1 3239   5.129   5.754   3.754
 1098TIP3    H2 3240   5.265   5.688   3.752
 1099TIP3   OH2 3241   0.435   1.539   0.690
 1099TIP3    H1 3242   0.503   1.603   0.670
 1099TIP3    H2 3243   0.368   1.589   0.736
 1100TIP3   OH2 3244   8.032   4.866   6.309
 1100TIP3    H1 3245   8.050   4.953   6.345
 1100TIP3    H2 3246   7.951   4.839   6.352
 1101TIP3   OH2 3247   4.606   1.562   1.738
 1101TIP3    H1 3248   4.626   1.479   1.781
 1101TIP3    H2 3249   4.560   1.613   1.805
 1102TIP3   OH2 3250   0.837   7.416   6.573
 1102TIP3    H1 3251   0.831   7.444   6.664
 1102TIP3    H2 3252   0.919   7.454   6.542
 1103TIP3   OH2 3253   4.137   1.966   5.654
 1103TIP3    H1 3254   4.206   1.999   5.597
 1103TIP3    H2 3255   4.164   1.876   5.675
 1104TIP3   OH2 3256   3.688   2.936   3.437
 1104TIP3    H1 3257   3.667   2.985   3.517
 1104TIP3    H2 3258   3.759   2.985   3.397
 1105TIP3   OH2 3259   1.547   2.746   6.106
 1105TIP3    H1 3260   1.624   2.747   6.164
 1105TIP3    H2 3261   1.479   2.792   6.155
 1106TIP3   OH2 3262   7.550   5.969   5.552
 1106TIP3    H1 3263   7.542   6.057   5.588
 1106TIP3    H2 3264   7.461   5.944   5.527
 1107TIP3   OH2 3265   2.037   3.300   0.693
 1107TIP3    H1 3266   2.052   3.278   0.601
 1107TIP3    H2 3267   1.947   3.271   0.709
 1108TIP3   OH2 3268   7.592   1.123   0.259
 1108TIP3    H1 3269   7.520   1.075   0.298
 1108TIP3    H2 3270   7.671   1.075   0.285
 1109TIP3   OH2 3271   1.589   2.136   0.169
 1109TIP3    H1 3272   1.603   2.224   0.132
 1109TIP3    H2 3273   1.531   2.150   0.244
 1110TIP3   OH2 3274   6.469   5.059   6.425
 1110TIP3    H1 3275   6.383   5.039   6.388
 1110TIP3    H2 3276   6.455   5.061   6.519
 1111TIP3   OH2 3277   3.478   4.195   3.234
 1111TIP3    H1 3278   3.463   4.184   3.328
 1111TIP3    H2 3279   3.398   4.161   3.193
 1112TIP3   OH2 3280   3.346   0.240   1.006
 1112TIP3    H1 3281   3.383   0.237   1.094
 1112TIP3    H2 3282   3.415   0.204   0.950
 1113TIP3   OH2 3283   0.477   4.399   4.596
 1113TIP3    H1 3284   0.390   4.364   4.577
 1113TIP3    H2 3285   0.515   4.417   4.510
 1114TIP3   OH2 3286   3.886   1.922   2.161
 1114TIP3    H1 3287   3.863   1.956   2.075
 1114TIP3    H2 3288   3.928   1.996   2.205
 1115TIP3   OH2 3289   3.226   6.206   5.255
 1115TIP3    H1 3290   3.287   6.157   5.200
 1115TIP3    H2 3291   3.186   6.140   5.312
 1116TIP3   OH2 3292   6.104   7.496   2.796
 1116TIP3    H1 3293   6.175   7.553   2.770
 1116TIP3    H2 3294   6.038   7.554   2.834
 1117TIP3   OH2 3295   0.960   1.540   0.162
 1117TIP3    H1 3296   0.976   1.610   0.098
 1117TIP3    H2 3297   0.980   1.459   0.115
 1118TIP3   OH2 3298   1.902   6.608   6.427
 1118TIP3    H1 3299   1.953   6.528   6.440
 1118TIP3    H2 3300   1.815   6.587   6.461
 1119TIP3   OH2 3301   1.466   0.282   3.962
 1119TIP3    H1 3302   1.555   0.310   3.984
 1119TIP3    H2 3303   1.410   0.325   4.028
 1120TIP3   OH2 3304   7.472   6.739   3.097
 1120TIP3    H1 3305   7.493   6.770   3.009
 1120TIP3    H2 3306   7.518   6.800   3.156
 1121TIP3   OH2 3307   0.110   5.421   0.551
 1121TIP3    H1 3308   0.024   5.464   0.556
 1121TIP3    H2 3309   0.117   5.393   0.460
 1122TIP3   OH2 3310   0.024   2.294   2.692
 1122TIP3    H1 3311  -0.069   2.290   2.713
 1122TIP3    H2 3312   0.066   2.233   2.753
 1123TIP3   OH2 3313   4.951   6.554   3.338
 1123TIP3    H1 3314   4.977   6.496   3.266
 1123TIP3    H2 3315   4.872   6.598   3.306
 1124TIP3   OH2 3316   6.747   1.612   0.353
 1124TIP3    H1 3317   6.841   1.613   0.368
 1124TIP3    H2 3318   6.736   1.557   0.275
 1125TIP3   OH2 3319   5.910   5.914   2.604
 1125TIP3    H1 3320   5.972   5.969   2.653
 1125TIP3    H2 3321   5.853   5.877   2.671
 1126TIP3   OH2 3322   4.089   4.072   2.027
 1126TIP3    H1 3323   4.095   4.111   2.114
 1126TIP3    H2 3324   4.008   4.020   2.030
 1127TIP3   OH2 3325   4.588   7.121   0.868
 1127TIP3    H1 3326   4.615   7.043   0.916
 1127TIP3    H2 3327   4.503   7.098   0.830
 1128TIP3   OH2 3328   6.339   5.239   3.815
 1128TIP3    H1 3329   6.433   5.236   3.794
 1128TIP3    H2 3330   6.297   5.255   3.730
 1129TIP3   OH2 3331   7.807   7.658   1.523
 1129TIP3    H1 3332   7.727   7.625   1.565
 1129TIP3    H2 3333   7.878   7.629   1.580
 1130TIP3   OH2 3334   7.133   6.377   0.934
 1130TIP3    H1 3335   7.081   6.322   0.876
 1130TIP3    H2 3336   7.224   6.349   0.918
 1131TIP3   OH2 3337   5.730   6.106   4.326
 1131TIP3    H1 3338   5.693   6.189   4.298
 1131TIP3    H2 3339   5.769   6.069   4.247
 1132TIP3   OH2 3340   7.673   1.458   6.314
 1132TIP3    H1 3341   7.690   1.532   6.371
 1132TIP3    H2 3342   7.759   1.425   6.290
 1133TIP3   OH2 3343   5.778   6.369   0.894
 1133TIP3    H1 3344   5.704   6.349   0.952
 1133TIP3    H2 3345   5.763   6.315   0.816
 1134TIP3   OH2 3346   2.015   5.598   5.134
 1134TIP3    H1 3347   2.077   5.530   5.162
 1134TIP3    H2 3348   1.978   5.632   5.215
 1135TIP3   OH2 3349   6.205   2.995   3.103
 1135TIP3    H1 3350   6.217   3.077   3.152
 1135TIP3    H2 3351   6.239   3.014   3.016
 1136TIP3   OH2 3352   2.779   6.455   0.192
 1136TIP3    H1 3353   2.791   6.479   0.100
 1136TIP3    H2 3354   2.839   6.382   0.206
 1137TIP3   OH2 3355   8.220   0.019   1.046
 1137TIP3    H1 3356   8.289  -0.005   1.107
 1137TIP3    H2 3357   8.147   0.045   1.101
 1138TIP3   OH2 3358   1.671   1.516   5.893
 1138TIP3    H1 3359   1.669   1.601   5.937
 1138TIP3    H2 3360   1.591   1.513   5.841
 1139TIP3   OH2 3361   1.778   2.625   3.677
 1139TIP3    H1 3362   1.827   2.669   3.608
 1139TIP3    H2 3363   1.730   2.695   3.722
 1140TIP3   OH2 3364   0.207   2.627   3.508
 1140TIP3    H1 3365   0.235   2.638   3.599
 1140TIP3    H2 3366   0.168   2.711   3.484
 1141TIP3   OH2 3367   6.021   4.286   3.855
 1141TIP3    H1 3368   6.108   4.313   3.883
 1141TIP3    H2 3369   5.989   4.358   3.802
 1142TIP3   OH2 3370   6.903   3.230   5.586
 1142TIP3    H1 3371   6.925   3.189   5.503
 1142TIP3    H2 3372   6.988   3.248   5.627
 1143TIP3   OH2 3373   3.313   6.245   6.175
 1143TIP3    H1 3374   3.338   6.177   6.113
 1143TIP3    H2 3375   3.395   6.288   6.198
 1144TIP3   OH2 3376   7.185   2.366   1.506
 1144TIP3    H1 3377   7.159   2.342   1.416
 1144TIP3    H2 3378   7.256   2.429   1.494
 1145TIP3   OH2 3379   3.998   4.977   4.506
 1145TIP3    H1 3380   3.974   5.068   4.522
 1145TIP3    H2 3381   4.013   4.972   4.412
 1146TIP3   OH2 3382   1.050   5.795   6.662
 1146TIP3    H1 3383   1.004   5.711   6.660
 1146TIP3    H2 3384   1.120   5.785   6.598
 1147TIP3   OH2 3385   5.332   0.817   6.439
 1147TIP3    H1 3386   5.381   0.767   6.504
 1147TIP3    H2 3387   5.308   0.898   6.483
 1148TIP3   OH2 3388   4.162   3.564   3.895
 1148TIP3    H1 3389   4.188   3.551   3.986
 1148TIP3    H2 3390   4.168   3.477   3.855
 1149TIP3   OH2 3391   0.966   1.033   0.265
 1149TIP3    H1 3392   0.989   1.085   0.342
 1149TIP3    H2 3393   0.905   0.966   0.298
 1150TIP3   OH2 3394   2.520   6.181   2.843
 1150TIP3    H1 3395   2.583   6.227   2.899
 1150TIP3    H2 3396   2.484   6.249   2.786
 1151TIP3   OH2 3397   2.521   0.400   4.693
 1151TIP3    H1 3398   2.461   0.327   4.707
 1151TIP3    H2 3399   2.513   0.453   4.772
 1152TIP3   OH2 3400   2.969   6.567   0.940
 1152TIP3    H1 3401   2.966   6.526   0.854
 1152TIP3    H2 3402   3.024   6.508   0.992
 1153TIP3   OH2 3403   0.097   7.348   4.113
 1153TIP3    H1 3404   0.150   7.364   4.035
 1153TIP3    H2 3405   0.126   7.263   4.145
 1154TIP3   OH2 3406   6.510   0.958   5.670
 1154TIP3    H1 3407   6.431   0.996   5.708
 1154TIP3    H2 3408   6.477   0.891   5.610
 1155TIP3   OH2 3409   4.631   6.679   5.810
 1155TIP3    H1 3410   4.710   6.734   5.805
 1155TIP3    H2 3411   4.578   6.708   5.736
 1156TIP3   OH2 3412   7.998   0.305   3.732
 1156TIP3    H1 3413   7.936   0.335   3.799
 1156TIP3    H2 3414   8.066   0.261   3.782
 1157TIP3   OH2 3415   0.226   3.333   2.219
 1157TIP3    H1 3416   0.233   3.377   2.304
 1157TIP3    H2 3417   0.149   3.277   2.227
 1158TIP3   OH2 3418   4.990   2.181   4.947
 1158TIP3    H1 3419   5.044   2.240   4.894
 1158TIP3    H2 3420   4.992   2.098   4.899
 1159TIP3   OH2 3421   3.104   1.470   1.696
 1159TIP3    H1 3422   3.157   1.512   1.764
 1159TIP3    H2 3423   3.163   1.408   1.654
 1160TIP3   OH2 3424   0.718   6.515   2.449
 1160TIP3    H1 3425   0.765   6.559   2.520
 1160TIP3    H2 3426   0.742   6.563   2.370
 1161TIP3   OH2 3427   2.252   2.452   1.637
 1161TIP3    H1 3428   2.157   2.455   1.643
 1161TIP3    H2 3429   2.269   2.394   1.562
 1162TIP3   OH2 3430   1.142   6.964   1.273
 1162TIP3    H1 3431   1.150   6.871   1.290
 1162TIP3    H2 3432   1.068   6.992   1.327
 1163TIP3   OH2 3433   1.515   2.837   0.282
 1163TIP3    H1 3434   1.578   2.765   0.287
 1163TIP3    H2 3435   1.501   2.862   0.373
 1164TIP3   OH2 3436   5.555   0.094   0.093
 1164TIP3    H1 3437   5.570   0.157   0.023
 1164TIP3    H2 3438   5.545   0.148   0.171
 1165TIP3   OH2 3439   2.840   3.195   6.020
 1165TIP3    H1 3440   2.924   3.208   5.976
 1165TIP3    H2 3441   2.816   3.281   6.053
 1166TIP3   OH2 3442   4.743   2.631   6.458
 1166TIP3    H1 3443   4.760   2.723   6.440
 1166TIP3    H2 3444   4.791   2.584   6.391
 1167TIP3   OH2 3445   1.651   6.325   2.159
 1167TIP3    H1 3446   1.741   6.349   2.140
 1167TIP3    H2 3447   1.649   6.311   2.253
 1168TIP3   OH2 3448   6.853   7.039   2.537
 1168TIP3    H1 3449   6.884   6.967   2.483
 1168TIP3    H2 3450   6.931   7.089   2.560
 1169TIP3   OH2 3451   3.495   7.273   0.952
 1169TIP3    H1 3452   3.562   7.341   0.945
 1169TIP3    H2 3453   3.475   7.249   0.861
 1170TIP3   OH2 3454   4.174   6.399   1.226
 1170TIP3    H1 3455   4.231   6.326   1.249
 1170TIP3    H2 3456   4.152   6.385   1.134
 1171TIP3   OH2 3457   1.130   3.031   5.834
 1171TIP3    H1 3458   1.207   3.088   5.833
 1171TIP3    H2 3459   1.159   2.953   5.882
 1172TIP3   OH2 3460   1.590   6.516   3.763
 1172TIP3    H1 3461   1.611   6.430   3.727
 1172TIP3    H2 3462   1.673   6.563   3.764
 1173TIP3   OH2 3463   5.345   3.624   5.519
 1173TIP3    H1 3464   5.416   3.563   5.500
 1173TIP3    H2 3465   5.381   3.684   5.585
 1174TIP3   OH2 3466   7.303   5.491   0.959
 1174TIP3    H1 3467   7.326   5.459   1.046
 1174TIP3    H2 3468   7.240   5.561   0.974
 1175TIP3   OH2 3469   7.099   5.361   1.330
 1175TIP3    H1 3470   7.074   5.348   1.239
 1175TIP3    H2 3471   7.138   5.278   1.356
 1176TIP3   OH2 3472   5.238   3.201   5.431
 1176TIP3    H1 3473   5.156   3.154   5.412
 1176TIP3    H2 3474   5.213   3.268   5.494
 1177TIP3   OH2 3475   5.049   4.319   2.948
 1177TIP3    H1 3476   5.006   4.321   3.034
 1177TIP3    H2 3477   4.979   4.293   2.887
 1178TIP3   OH2 3478   5.886   7.742   5.818
 1178TIP3    H1 3479   5.892   7.765   5.911
 1178TIP3    H2 3480   5.879   7.646   5.818
 1179TIP3   OH2 3481   4.328   1.783   0.798
 1179TIP3    H1 3482   4.256   1.836   0.832
 1179TIP3    H2 3483   4.346   1.720   0.867
 1180TIP3   OH2 3484   0.585   6.939   3.810
 1180TIP3    H1 3485   0.577   6.872   3.742
 1180TIP3    H2 3486   0.591   6.889   3.892
 1181TIP3   OH2 3487   2.683   2.997   0.182
 1181TIP3    H1 3488   2.707   3.061   0.115
 1181TIP3    H2 3489   2.657   3.050   0.258
 1182TIP3   OH2 3490   5.286   5.118   3.257
 1182TIP3    H1 3491   5.359   5.181   3.254
 1182TIP3    H2 3492   5.209   5.170   3.232
 1183TIP3   OH2 3493   8.115   0.926   0.998
 1183TIP3    H1 3494   8.093   0.915   1.090
 1183TIP3    H2 3495   8.042   0.886   0.951
 1184TIP3   OH2 3496   2.519   6.901   3.835
 1184TIP3    H1 3497   2.571   6.979   3.813
 1184TIP3    H2 3498   2.566   6.861   3.908
 1185TIP3   OH2 3499   4.653   2.487   5.248
 1185TIP3    H1 3500   4.721   2.485   5.182
 1185TIP3    H2 3501   4.609   2.403   5.240
 1186TIP3   OH2 3502   1.951   6.184   2.351
 1186TIP3    H1 3503   1.953   6.092   2.324
 1186TIP3    H2 3504   2.042   6.211   2.354
 1187TIP3   OH2 3505   3.655   6.984   1.812
 1187TIP3    H1 3506   3.707   6.955   1.737
 1187TIP3    H2 3507   3.710   6.967   1.888
 1188TIP3   OH2 3508   2.071   2.589   2.386
 1188TIP3    H1 3509   2.063   2.547   2.300
 1188TIP3    H2 3510   2.030   2.675   2.374
 1189TIP3   OH2 3511   6.450   1.789   5.399
 1189TIP3    H1 3512   6.377   1.764   5.456
 1189TIP3    H2 3513   6.408   1.821   5.319
 1190TIP3   OH2 3514   1.281   3.650   2.287
 1190TIP3    H1 3515   1.353   3.621   2.231
 1190TIP3    H2 3516   1.235   3.716   2.236
 1191TIP3   OH2 3517   7.620   6.683   1.699
 1191TIP3    H1 3518   7.551   6.744   1.675
 1191TIP3    H2 3519   7.686   6.694   1.631
 1192TIP3   OH2 3520   4.416   6.937   6.244
 1192TIP3    H1 3521   4.465   6.885   6.180
 1192TIP3    H2 3522   4.484   6.976   6.299
 1193TIP3   OH2 3523   4.513   4.023   5.451
 1193TIP3    H1 3524   4.497   3.971   5.372
 1193TIP3    H2 3525   4.431   4.072   5.463
 1194TIP3   OH2 3526   7.779   5.810   4.897
 1194TIP3    H1 3527   7.828   5.750   4.953
 1194TIP3    H2 3528   7.846   5.866   4.858
 1195TIP3   OH2 3529   8.074   7.581   3.135
 1195TIP3    H1 3530   8.066   7.646   3.204
 1195TIP3    H2 3531   7.987   7.542   3.128
 1196TIP3   OH2 3532   0.679   1.408   1.006
 1196TIP3    H1 3533   0.642   1.494   1.024
 1196TIP3    H2 3534   0.609   1.347   1.028
 1197TIP3   OH2 3535   7.143   5.593   3.694
 1197TIP3    H1 3536   7.133   5.640   3.777
 1197TIP3    H2 3537   7.237   5.598   3.676
 1198TIP3   OH2 3538   5.057   6.695   0.133
 1198TIP3    H1 3539   5.053   6.712   0.039
 1198TIP3    H2 3540   5.093   6.776   0.171
 1199TIP3   OH2 3541   4.253   2.136   0.751
 1199TIP3    H1 3542   4.297   2.097   0.826
 1199TIP3    H2 3543   4.303   2.216   0.733
 1200TIP3   OH2 3544   7.514   1.806   0.164
 1200TIP3    H1 3545   7.435   1.831   0.114
 1200TIP3    H2 3546   7.587   1.828   0.106
 1201TIP3   OH2 3547   0.519   7.184   0.392
 1201TIP3    H1 3548   0.554   7.095   0.394
 1201TIP3    H2 3549   0.542   7.221   0.477
 1202TIP3   OH2 3550   7.363   2.168   1.294
 1202TIP3    H1 3551   7.344   2.224   1.370
 1202TIP3    H2 3552   7.413   2.094   1.330
 1203TIP3   OH2 3553   2.250   7.628   4.452
 1203TIP3    H1 3554   2.154   7.628   4.448
 1203TIP3    H2 3555   2.273   7.720   4.468
 1204TIP3   OH2 3556   4.098   6.169   3.929
 1204TIP3    H1 3557   4.189   6.192   3.952
 1204TIP3    H2 3558   4.074   6.231   3.860
 1205TIP3   OH2 3559   4.160   5.182   5.162
 1205TIP3    H1 3560   4.224   5.133   5.111
 1205TIP3    H2 3561   4.141   5.259   5.109
 1206TIP3   OH2 3562   1.404   6.440   0.119
 1206TIP3    H1 3563   1.311   6.452   0.141
 1206TIP3    H2 3564   1.434   6.528   0.096
 1207TIP3   OH2 3565   3.549   4.902   6.718
 1207TIP3    H1 3566   3.480   4.961   6.688
 1207TIP3    H2 3567   3.526   4.881   6.808
 1208TIP3   OH2 3568   0.032   6.218   3.068
 1208TIP3    H1 3569   0.083   6.295   3.042
 1208TIP3    H2 3570  -0.045   6.254   3.113
 1209TIP3   OH2 3571   1.166   2.774   0.640
 1209TIP3    H1 3572   1.172   2.868   0.651
 1209TIP3    H2 3573   1.122   2.763   0.555
 1210TIP3   OH2 3574   6.573   2.718   1.103
 1210TIP3    H1 3575   6.527   2.802   1.112
 1210TIP3    H2 3576   6.645   2.724   1.165
 1211TIP3   OH2 3577   6.593   7.028   2.030
 1211TIP3    H1 3578   6.639   7.024   2.113
 1211TIP3    H2 3579   6.565   7.119   2.021
 1212TIP3   OH2 3580   1.497   7.453   1.693
 1212TIP3    H1 3581   1.433   7.522   1.677
 1212TIP3    H2 3582   1.508   7.453   1.788
 1213TIP3   OH2 3583   1.963   2.364   1.499
 1213TIP3    H1 3584   1.929   2.451   1.522
 1213TIP3    H2 3585   1.969   2.318   1.582
 1214TIP3   OH2 3586   4.016   0.607   2.629
 1214TIP3    H1 3587   4.016   0.589   2.723
 1214TIP3    H2 3588   3.983   0.696   2.622
 1215TIP3   OH2 3589   5.496   5.615   1.843
 1215TIP3    H1 3590   5.484   5.520   1.834
 1215TIP3    H2 3591   5.428   5.653   1.787
 1216TIP3   OH2 3592   3.842   3.704   0.087
 1216TIP3    H1 3593   3.895   3.637   0.044
 1216TIP3    H2 3594   3.905   3.753   0.141
 1217TIP3   OH2 3595   6.310   1.380   2.761
 1217TIP3    H1 3596   6.355   1.426   2.832
 1217TIP3    H2 3597   6.287   1.448   2.699
 1218TIP3   OH2 3598   3.749   4.183   5.118
 1218TIP3    H1 3599   3.682   4.240   5.158
 1218TIP3    H2 3600   3.831   4.230   5.131
 1219TIP3   OH2 3601   6.418   3.931   6.394
 1219TIP3    H1 3602   6.488   3.970   6.446
 1219TIP3    H2 3603   6.374   4.006   6.353
 1220TIP3   OH2 3604   5.026   6.172   4.780
 1220TIP3    H1 3605   4.940   6.163   4.740
 1220TIP3    H2 3606   5.009   6.183   4.874
 1221TIP3   OH2 3607   8.186   5.833   1.096
 1221TIP3    H1 3608   8.160   5.764   1.158
 1221TIP3    H2 3609   8.103   5.862   1.058
 1222TIP3   OH2 3610   5.981   3.786   6.370
 1222TIP3    H1 3611   5.910   3.763   6.429
 1222TIP3    H2 3612   5.937   3.821   6.292
 1223TIP3   OH2 3613   2.907   7.596   3.790
 1223TIP3    H1 3614   2.964   7.624   3.862
 1223TIP3    H2 3615   2.821   7.584   3.832
 1224TIP3   OH2 3616   2.892   2.372   6.738
 1224TIP3    H1 3617   2.899   2.468   6.741
 1224TIP3    H2 3618   2.814   2.356   6.685
 1225TIP3   OH2 3619   0.861   3.841   1.238
 1225TIP3    H1 3620   0.912   3.788   1.176
 1225TIP3    H2 3621   0.809   3.899   1.182
 1226TIP3   OH2 3622   6.654   2.462   5.501
 1226TIP3    H1 3623   6.612   2.391   5.548
 1226TIP3    H2 3624   6.606   2.541   5.527
 1227TIP3   OH2 3625   6.927   6.064   6.155
 1227TIP3    H1 3626   6.990   6.122   6.198
 1227TIP3    H2 3627   6.981   6.009   6.097
 1228TIP3   OH2 3628   4.550   3.656   2.524
 1228TIP3    H1 3629   4.558   3.719   2.452
 1228TIP3    H2 3630   4.477   3.600   2.499
 1229TIP3   OH2 3631   7.185   5.331   1.848
 1229TIP3    H1 3632   7.208   5.346   1.756
 1229TIP3    H2 3633   7.215   5.242   1.865
 1230TIP3   OH2 3634   6.532   0.712   3.187
 1230TIP3    H1 3635   6.437   0.708   3.185
 1230TIP3    H2 3636   6.555   0.706   3.280
 1231TIP3   OH2 3637   7.138   5.882   0.276
 1231TIP3    H1 3638   7.131   5.787   0.290
 1231TIP3    H2 3639   7.207   5.910   0.336
 1232TIP3   OH2 3640   4.293   5.917   6.503
 1232TIP3    H1 3641   4.296   5.917   6.408
 1232TIP3    H2 3642   4.298   5.824   6.527
 1233TIP3   OH2 3643   4.258   3.887   4.790
 1233TIP3    H1 3644   4.253   3.888   4.694
 1233TIP3    H2 3645   4.299   3.803   4.811
 1234TIP3   OH2 3646   6.234   2.791   0.967
 1234TIP3    H1 3647   6.213   2.813   1.058
 1234TIP3    H2 3648   6.259   2.699   0.969
 1235TIP3   OH2 3649   3.083   3.177   4.646
 1235TIP3    H1 3650   3.077   3.185   4.550
 1235TIP3    H2 3651   3.006   3.223   4.679
 1236TIP3   OH2 3652   0.873   2.680   1.818
 1236TIP3    H1 3653   0.942   2.747   1.824
 1236TIP3    H2 3654   0.796   2.722   1.857
 1237TIP3   OH2 3655   5.954   6.086   4.713
 1237TIP3    H1 3656   5.890   6.130   4.769
 1237TIP3    H2 3657   6.035   6.084   4.765
 1238TIP3   OH2 3658   2.969   5.838   5.716
 1238TIP3    H1 3659   3.025   5.793   5.779
 1238TIP3    H2 3660   2.881   5.831   5.752
 1239TIP3   OH2 3661   4.803   1.045   2.408
 1239TIP3    H1 3662   4.896   1.060   2.397
 1239TIP3    H2 3663   4.768   1.128   2.439
 1240TIP3   OH2 3664   1.769   5.950   2.908
 1240TIP3    H1 3665   1.691   5.901   2.882
 1240TIP3    H2 3666   1.817   5.965   2.827
 1241TIP3   OH2 3667   8.134   7.443   4.940
 1241TIP3    H1 3668   8.224   7.475   4.946
 1241TIP3    H2 3669   8.085   7.501   4.998
 1242TIP3   OH2 3670   6.047   6.513   6.089
 1242TIP3    H1 3671   6.038   6.443   6.153
 1242TIP3    H2 3672   6.140   6.512   6.065
 1243TIP3   OH2 3673   7.595   1.356   0.577
 1243TIP3    H1 3674   7.531   1.326   0.641
 1243TIP3    H2 3675   7.640   1.429   0.620
 1244TIP3   OH2 3676   4.444   2.296   1.802
 1244TIP3    H1 3677   4.520   2.353   1.811
 1244TIP3    H2 3678   4.401   2.326   1.722
 1245TIP3   OH2 3679   6.959   2.666   1.935
 1245TIP3    H1 3680   6.946   2.571   1.933
 1245TIP3    H2 3681   7.054   2.677   1.939
 1246TIP3   OH2 3682   0.586   2.628   1.020
 1246TIP3    H1 3683   0.596   2.719   1.048
 1246TIP3    H2 3684   0.508   2.597   1.066
 1247TIP3   OH2 3685   6.923   0.074   4.815
 1247TIP3    H1 3686   6.929   0.030   4.900
 1247TIP3    H2 3687   7.013   0.100   4.795
 1248TIP3   OH2 3688   7.946   6.925   6.296
 1248TIP3    H1 3689   7.964   6.842   6.340
 1248TIP3    H2 3690   8.032   6.963   6.281
 1249TIP3   OH2 3691   7.097   2.392   3.801
 1249TIP3    H1 3692   7.081   2.309   3.846
 1249TIP3    H2 3693   7.021   2.446   3.823
 1250TIP3   OH2 3694   4.625   1.502   3.722
 1250TIP3    H1 3695   4.673   1.566   3.774
 1250TIP3    H2 3696   4.546   1.549   3.694
 1251TIP3   OH2 3697   3.355   6.091   0.356
 1251TIP3    H1 3698   3.450   6.098   0.352
 1251TIP3    H2 3699   3.325   6.182   0.364
 1252TIP3   OH2 3700   5.648   0.540   5.949
 1252TIP3    H1 3701   5.613   0.463   5.903
 1252TIP3    H2 3702   5.737   0.515   5.973
 1253TIP3   OH2 3703   3.132   0.068   0.619
 1253TIP3    H1 3704   3.104   0.004   0.684
 1253TIP3    H2 3705   3.156   0.146   0.671
 1254TIP3   OH2 3706   7.616   7.666   3.441
 1254TIP3    H1 3707   7.530   7.677   3.482
 1254TIP3    H2 3708   7.601   7.686   3.348
 1255TIP3   OH2 3709   0.179   3.133   1.328
 1255TIP3    H1 3710   0.185   3.159   1.420
 1255TIP3    H2 3711   0.096   3.169   1.298
 1256TIP3   OH2 3712   0.879   1.259   4.731
 1256TIP3    H1 3713   0.945   1.254   4.799
 1256TIP3    H2 3714   0.804   1.302   4.772
 1257TIP3   OH2 3715   3.425   4.029   0.257
 1257TIP3    H1 3716   3.341   4.012   0.215
 1257TIP3    H2 3717   3.438   3.955   0.317
 1258TIP3   OH2 3718   5.410   3.649   5.247
 1258TIP3    H1 3719   5.440   3.696   5.169
 1258TIP3    H2 3720   5.322   3.684   5.263
 1259TIP3   OH2 3721   2.681   5.518   4.346
 1259TIP3    H1 3722   2.773   5.498   4.330
 1259TIP3    H2 3723   2.677   5.613   4.351
 1260TIP3   OH2 3724   1.587   5.104   2.202
 1260TIP3    H1 3725   1.536   5.068   2.274
 1260TIP3    H2 3726   1.674   5.063   2.211
 1261TIP3   OH2 3727   1.367   0.249   3.521
 1261TIP3    H1 3728   1.447   0.206   3.489
 1261TIP3    H2 3729   1.302   0.179   3.522
 1262TIP3   OH2 3730   2.671   4.532   5.579
 1262TIP3    H1 3731   2.730   4.539   5.504
 1262TIP3    H2 3732   2.722   4.486   5.646
 1263TIP3   OH2 3733   1.090   0.899   3.093
 1263TIP3    H1 3734   1.072   0.914   3.000
 1263TIP3    H2 3735   1.129   0.812   3.095
 1264TIP3   OH2 3736   1.112   1.166   1.739
 1264TIP3    H1 3737   1.196   1.192   1.702
 1264TIP3    H2 3738   1.062   1.134   1.664
 1265TIP3   OH2 3739   3.391   4.643   0.460
 1265TIP3    H1 3740   3.358   4.562   0.421
 1265TIP3    H2 3741   3.313   4.688   0.492
 1266TIP3   OH2 3742   1.961   5.388   4.789
 1266TIP3    H1 3743   2.048   5.426   4.801
 1266TIP3    H2 3744   1.966   5.303   4.834
 1267TIP3   OH2 3745   5.513   1.480   2.764
 1267TIP3    H1 3746   5.443   1.542   2.741
 1267TIP3    H2 3747   5.527   1.429   2.684
 1268TIP3   OH2 3748   1.563   2.149   5.660
 1268TIP3    H1 3749   1.580   2.192   5.576
 1268TIP3    H2 3750   1.604   2.063   5.651
 1269TIP3   OH2 3751   8.138   1.803   0.657
 1269TIP3    H1 3752   8.228   1.814   0.689
 1269TIP3    H2 3753   8.114   1.889   0.624
 1270TIP3   OH2 3754   1.025   4.864   2.210
 1270TIP3    H1 3755   1.024   4.783   2.261
 1270TIP3    H2 3756   1.111   4.864   2.167
 1271TIP3   OH2 3757   5.329   3.592   0.832
 1271TIP3    H1 3758   5.324   3.499   0.811
 1271TIP3    H2 3759   5.418   3.604   0.867
 1272TIP3   OH2 3760   1.439   5.734   2.552
 1272TIP3    H1 3761   1.419   5.640   2.548
 1272TIP3    H2 3762   1.411   5.768   2.467
 1273TIP3   OH2 3763   2.067   0.598   3.852
 1273TIP3    H1 3764   2.022   0.540   3.791
 1273TIP3    H2 3765   2.131   0.541   3.895
 1274TIP3   OH2 3766   4.914   4.443   6.156
 1274TIP3    H1 3767   4.880   4.354   6.149
 1274TIP3    H2 3768   4.977   4.439   6.227
 1275TIP3   OH2 3769   2.277   2.436   3.313
 1275TIP3    H1 3770   2.289   2.515   3.261
 1275TIP3    H2 3771   2.262   2.367   3.249
 1276TIP3   OH2 3772   4.986   2.861   3.381
 1276TIP3    H1 3773   4.974   2.766   3.378
 1276TIP3    H2 3774   4.896   2.896   3.380
 1277TIP3   OH2 3775   4.839   5.163   4.172
 1277TIP3    H1 3776   4.754   5.176   4.214
 1277TIP3    H2 3777   4.820   5.109   4.096
 1278TIP3   OH2 3778   6.884   2.733   3.708
 1278TIP3    H1 3779   6.927   2.684   3.778
 1278TIP3    H2 3780   6.952   2.792   3.675
 1279TIP3   OH2 3781   7.792   0.172   4.072
 1279TIP3    H1 3782   7.711   0.182   4.021
 1279TIP3    H2 3783   7.793   0.080   4.097
 1280TIP3   OH2 3784   1.992   0.697   0.118
 1280TIP3    H1 3785   1.979   0.754   0.194
 1280TIP3    H2 3786   1.903   0.678   0.087
 1281TIP3   OH2 3787   5.802   5.653   6.502
 1281TIP3    H1 3788   5.796   5.711   6.425
 1281TIP3    H2 3789   5.800   5.565   6.465
 1282TIP3   OH2 3790   8.201   3.620   4.609
 1282TIP3    H1 3791   8.281   3.584   4.572
 1282TIP3    H2 3792   8.145   3.543   4.623
 1283TIP3   OH2 3793   6.686   2.678   1.550
 1283TIP3    H1 3794   6.638   2.740   1.605
 1283TIP3    H2 3795   6.763   2.655   1.602
 1284TIP3   OH2 3796   6.635   0.510   3.013
 1284TIP3    H1 3797   6.630   0.581   3.077
 1284TIP3    H2 3798   6.554   0.461   3.025
 1285TIP3   OH2 3799   6.624   6.024   0.263
 1285TIP3    H1 3800   6.577   6.107   0.255
 1285TIP3    H2 3801   6.678   6.019   0.184
 1286TIP3   OH2 3802   3.214   2.809   1.738
 1286TIP3    H1 3803   3.249   2.732   1.783
 1286TIP3    H2 3804   3.125   2.784   1.713
 1287TIP3   OH2 3805   2.805   7.393   2.419
 1287TIP3    H1 3806   2.732   7.438   2.462
 1287TIP3    H2 3807   2.788   7.405   2.326
 1288TIP3   OH2 3808   7.418   1.768   5.697
 1288TIP3    H1 3809   7.345   1.774   5.758
 1288TIP3    H2 3810   7.418   1.677   5.668
 1289TIP3   OH2 3811   1.880   7.723   5.889
 1289TIP3    H1 3812   1.833   7.642   5.907
 1289TIP3    H2 3813   1.969   7.706   5.920
 1290TIP3   OH2 3814   5.952   2.905   1.334
 1290TIP3    H1 3815   5.867   2.895   1.291
 1290TIP3    H2 3816   5.939   2.978   1.395
 1291TIP3   OH2 3817   8.063   0.360   2.210
 1291TIP3    H1 3818   8.069   0.424   2.139
 1291TIP3    H2 3819   8.111   0.399   2.282
 1292TIP3   OH2 3820   4.676   4.703   2.599
 1292TIP3    H1 3821   4.737   4.650   2.548
 1292TIP3    H2 3822   4.729   4.742   2.668
 1293TIP3   OH2 3823   6.919   2.825   2.160
 1293TIP3    H1 3824   6.909   2.786   2.073
 1293TIP3    H2 3825   6.996   2.782   2.197
 1294TIP3   OH2 3826   2.656   3.250   5.523
 1294TIP3    H1 3827   2.608   3.234   5.442
 1294TIP3    H2 3828   2.702   3.168   5.541
 1295TIP3   OH2 3829   8.074   0.659   5.831
 1295TIP3    H1 3830   8.135   0.708   5.886
 1295TIP3    H2 3831   8.129   0.593   5.788
 1296TIP3   OH2 3832   3.059   3.648   1.912
 1296TIP3    H1 3833   3.098   3.675   1.828
 1296TIP3    H2 3834   2.993   3.584   1.888
 1297TIP3   OH2 3835   5.530   4.339   6.472
 1297TIP3    H1 3836   5.562   4.337   6.382
 1297TIP3    H2 3837   5.609   4.334   6.526
 1298TIP3   OH2 3838   0.154   5.534   1.923
 1298TIP3    H1 3839   0.198   5.619   1.917
 1298TIP3    H2 3840   0.089   5.536   1.853
 1299TIP3   OH2 3841   5.299   4.225   2.081
 1299TIP3    H1 3842   5.291   4.129   2.081
 1299TIP3    H2 3843   5.356   4.244   2.007
 1300TIP3   OH2 3844   6.371   0.319   0.496
 1300TIP3    H1 3845   6.428   0.244   0.478
 1300TIP3    H2 3846   6.309   0.287   0.561
 1301TIP3   OH2 3847   0.824   7.263   3.198
 1301TIP3    H1 3848   0.842   7.354   3.223
 1301TIP3    H2 3849   0.857   7.211   3.272
 1302TIP3   OH2 3850   3.599   1.505   3.876
 1302TIP3    H1 3851   3.679   1.467   3.840
 1302TIP3    H2 3852   3.544   1.430   3.898
 1303TIP3   OH2 3853   4.152   2.215   2.472
 1303TIP3    H1 3854   4.171   2.306   2.447
 1303TIP3    H2 3855   4.112   2.177   2.393
 1304TIP3   OH2 3856   0.583   7.325   4.026
 1304TIP3    H1 3857   0.678   7.312   4.035
 1304TIP3    H2 3858   0.569   7.415   4.056
 1305TIP3   OH2 3859   7.671   3.223   1.865
 1305TIP3    H1 3860   7.702   3.143   1.822
 1305TIP3    H2 3861   7.747   3.281   1.863
 1306TIP3   OH2 3862   4.745   2.362   4.050
 1306TIP3    H1 3863   4.809   2.348   4.119
 1306TIP3    H2 3864   4.775   2.306   3.978
 1307TIP3   OH2 3865   2.829   4.585   2.228
 1307TIP3    H1 3866   2.745   4.552   2.258
 1307TIP3    H2 3867   2.890   4.564   2.299
 1308TIP3   OH2 3868   5.004   6.426   5.619
 1308TIP3    H1 3869   4.982   6.519   5.618
 1308TIP3    H2 3870   5.099   6.424   5.608
 1309TIP3   OH2 3871   5.183   7.097   5.429
 1309TIP3    H1 3872   5.258   7.110   5.371
 1309TIP3    H2 3873   5.182   7.003   5.445
 1310TIP3   OH2 3874   5.996   2.647   5.503
 1310TIP3    H1 3875   6.048   2.697   5.566
 1310TIP3    H2 3876   6.014   2.555   5.524
 1311TIP3   OH2 3877   1.958   6.262   2.636
 1311TIP3    H1 3878   1.870   6.228   2.654
 1311TIP3    H2 3879   1.952   6.302   2.550
 1312TIP3   OH2 3880   7.701   6.648   2.178
 1312TIP3    H1 3881   7.692   6.563   2.222
 1312TIP3    H2 3882   7.657   6.709   2.236
 1313TIP3   OH2 3883   5.005   6.755   6.409
 1313TIP3    H1 3884   4.955   6.684   6.369
 1313TIP3    H2 3885   5.011   6.732   6.502
 1314TIP3   OH2 3886   4.210   3.955   5.122
 1314TIP3    H1 3887   4.253   4.034   5.155
 1314TIP3    H2 3888   4.192   3.902   5.199
 1315TIP3   OH2 3889   6.224   4.455   0.099
 1315TIP3    H1 3890   6.319   4.448   0.102
 1315TIP3    H2 3891   6.208   4.539   0.057
 1316TIP3   OH2 3892   2.994   1.547   0.693
 1316TIP3    H1 3893   3.030   1.508   0.613
 1316TIP3    H2 3894   2.968   1.635   0.666
 1317TIP3   OH2 3895   5.014   5.442   4.895
 1317TIP3    H1 3896   5.036   5.444   4.802
 1317TIP3    H2 3897   5.064   5.368   4.930
 1318TIP3   OH2 3898   3.141   4.853   1.247
 1318TIP3    H1 3899   3.106   4.820   1.330
 1318TIP3    H2 3900   3.071   4.905   1.210
 1319TIP3   OH2 3901   7.273   5.021   5.401
 1319TIP3    H1 3902   7.296   5.089   5.464
 1319TIP3    H2 3903   7.309   5.052   5.317
 1320TIP3   OH2 3904   5.916   4.903   0.331
 1320TIP3    H1 3905   5.903   4.989   0.291
 1320TIP3    H2 3906   5.848   4.896   0.397
 1321TIP3   OH2 3907   3.474   4.606   0.154
 1321TIP3    H1 3908   3.416   4.682   0.156
 1321TIP3    H2 3909   3.437   4.545   0.218
 1322TIP3   OH2 3910   4.974   7.627   4.703
 1322TIP3    H1 3911   4.915   7.560   4.736
 1322TIP3    H2 3912   4.972   7.617   4.608
 1323TIP3   OH2 3913   7.411   1.729   0.972
 1323TIP3    H1 3914   7.462   1.652   0.948
 1323TIP3    H2 3915   7.329   1.694   1.007
 1324TIP3   OH2 3916   4.951   2.966   4.561
 1324TIP3    H1 3917   5.045   2.973   4.576
 1324TIP3    H2 3918   4.937   2.874   4.538
 1325TIP3   OH2 3919   1.589   4.886   0.836
 1325TIP3    H1 3920   1.494   4.896   0.837
 1325TIP3    H2 3921   1.606   4.810   0.891
 1326TIP3   OH2 3922   7.065   1.482   2.330
 1326TIP3    H1 3923   7.074   1.540   2.255
 1326TIP3    H2 3924   6.973   1.458   2.331
 1327TIP3   OH2 3925   5.823   6.685   6.048
 1327TIP3    H1 3926   5.805   6.688   5.954
 1327TIP3    H2 3927   5.901   6.630   6.055
 1328TIP3   OH2 3928   8.105   4.490   2.171
 1328TIP3    H1 3929   8.028   4.468   2.223
 1328TIP3    H2 3930   8.136   4.572   2.210
 1329TIP3   OH2 3931   2.589   6.017   4.303
 1329TIP3    H1 3932   2.537   6.032   4.224
 1329TIP3    H2 3933   2.656   5.953   4.275
 1330TIP3   OH2 3934   2.051   1.759   3.817
 1330TIP3    H1 3935   1.968   1.785   3.857
 1330TIP3    H2 3936   2.117   1.780   3.883
 1331TIP3   OH2 3937   2.141   5.823   2.089
 1331TIP3    H1 3938   2.071   5.801   2.028
 1331TIP3    H2 3939   2.147   5.919   2.085
 1332TIP3   OH2 3940   0.370   0.627   2.372
 1332TIP3    H1 3941   0.431   0.572   2.422
 1332TIP3    H2 3942   0.398   0.617   2.281
 1333TIP3   OH2 3943   7.465   3.773   3.460
 1333TIP3    H1 3944   7.389   3.747   3.407
 1333TIP3    H2 3945   7.430   3.837   3.522
 1334TIP3   OH2 3946   5.292   2.680   5.127
 1334TIP3    H1 3947   5.324   2.667   5.038
 1334TIP3    H2 3948   5.223   2.745   5.119
 1335TIP3   OH2 3949   4.849   7.075   6.400
 1335TIP3    H1 3950   4.866   7.043   6.489
 1335TIP3    H2 3951   4.930   7.059   6.352
 1336TIP3   OH2 3952   4.171   4.515   4.901
 1336TIP3    H1 3953   4.251   4.549   4.941
 1336TIP3    H2 3954   4.196   4.429   4.867
 1337TIP3   OH2 3955   6.103   5.053   1.021
 1337TIP3    H1 3956   6.063   5.072   0.936
 1337TIP3    H2 3957   6.182   5.004   1.000
 1338TIP3   OH2 3958   2.867   6.135   1.398
 1338TIP3    H1 3959   2.860   6.228   1.417
 1338TIP3    H2 3960   2.856   6.092   1.483
 1339TIP3   OH2 3961   1.291   6.135   0.471
 1339TIP3    H1 3962   1.361   6.108   0.412
 1339TIP3    H2 3963   1.334   6.149   0.555
 1340TIP3   OH2 3964   3.362   4.174   4.843
 1340TIP3    H1 3965   3.419   4.145   4.772
 1340TIP3    H2 3966   3.395   4.128   4.920
 1341TIP3   OH2 3967   3.357   6.028   5.095
 1341TIP3    H1 3968   3.424   5.991   5.152
 1341TIP3    H2 3969   3.340   5.959   5.031
 1342TIP3   OH2 3970   3.776   4.705   1.647
 1342TIP3    H1 3971   3.807   4.756   1.722
 1342TIP3    H2 3972   3.724   4.634   1.686
 1343TIP3   OH2 3973   1.100   1.917   0.217
 1343TIP3    H1 3974   1.165   1.982   0.245
 1343TIP3    H2 3975   1.039   1.966   0.162
 1344TIP3   OH2 3976   2.350   5.705   0.102
 1344TIP3    H1 3977   2.439   5.679   0.081
 1344TIP3    H2 3978   2.344   5.797   0.074
 1345TIP3   OH2 3979   1.999   4.558   4.352
 1345TIP3    H1 3980   2.023   4.626   4.288
 1345TIP3    H2 3981   2.003   4.602   4.437
 1346TIP3   OH2 3982   7.039   5.374   3.477
 1346TIP3    H1 3983   7.024   5.354   3.385
 1346TIP3    H2 3984   7.114   5.320   3.501
 1347TIP3   OH2 3985   5.358   2.293   4.161
 1347TIP3    H1 3986   5.426   2.229   4.180
 1347TIP3    H2 3987   5.397   2.377   4.186
 1348TIP3   OH2 3988   7.170   0.647   0.138
 1348TIP3    H1 3989   7.225   0.596   0.078
 1348TIP3    H2 3990   7.096   0.589   0.158
 1349TIP3   OH2 3991   5.239   7.746   3.574
 1349TIP3    H1 3992   5.253   7.839   3.556
 1349TIP3    H2 3993   5.316   7.720   3.625
 1350TIP3   OH2 3994   7.277   2.775   3.761
 1350TIP3    H1 3995   7.207   2.722   3.724
 1350TIP3    H2 3996   7.350   2.714   3.773
 1351TIP3   OH2 3997   7.261   1.208   2.136
 1351TIP3    H1 3998   7.167   1.220   2.121
 1351TIP3    H2 3999   7.289   1.149   2.066
 1352TIP3   OH2 4000   3.355   0.871   2.095
 1352TIP3    H1 4001   3.380   0.861   2.004
 1352TIP3    H2 4002   3.274   0.922   2.093
 1353TIP3   OH2 4003   5.460   6.465   2.166
 1353TIP3    H1 4004   5.542   6.426   2.198
 1353TIP3    H2 4005   5.471   6.468   2.071
 1354TIP3   OH2 4006   6.548   5.176   5.667
 1354TIP3    H1 4007   6.629   5.156   5.713
 1354TIP3    H2 4008   6.555   5.130   5.583
 1355TIP3   OH2 4009   5.355   3.820   4.923
 1355TIP3    H1 4010   5.440   3.795   4.959
 1355TIP3    H2 4011   5.335   3.903   4.965
 1356TIP3   OH2 4012   4.823   3.919   4.451
 1356TIP3    H1 4013   4.884   3.871   4.395
 1356TIP3    H2 4014   4.855   4.009   4.448
 1357TIP3   OH2 4015   5.754   2.345   4.199
 1357TIP3    H1 4016   5.814   2.363   4.126
 1357TIP3    H2 4017   5.702   2.270   4.169
 1358TIP3   OH2 4018   8.029   1.933   2.911
 1358TIP3    H1 4019   8.014   1.926   2.816
 1358TIP3    H2 4020   8.118   1.967   2.918
 1359TIP3   OH2 4021   0.269   6.137   3.435
 1359TIP3    H1 4022   0.235   6.218   3.474
 1359TIP3    H2 4023   0.207   6.070   3.462
 1360TIP3   OH2 4024   0.399   6.681   5.941
 1360TIP3    H1 4025   0.343   6.710   5.869
 1360TIP3    H2 4026   0.339   6.666   6.014
 1361TIP3   OH2 4027   5.455   5.909   5.576
 1361TIP3    H1 4028   5.455   6.003   5.560
 1361TIP3    H2 4029   5.547   5.883   5.566
 1362TIP3   OH2 4030   4.893   3.280   6.099
 1362TIP3    H1 4031   4.987   3.263   6.108
 1362TIP3    H2 4032   4.885   3.376   6.101
 1363TIP3   OH2 4033   1.002   4.548   3.143
 1363TIP3    H1 4034   0.987   4.513   3.231
 1363TIP3    H2 4035   1.065   4.618   3.155
 1364TIP3   OH2 4036   5.000   6.459   4.663
 1364TIP3    H1 4037   5.011   6.423   4.575
 1364TIP3    H2 4038   5.005   6.384   4.722
 1365TIP3   OH2 4039   0.776   2.940   4.049
 1365TIP3    H1 4040   0.747   3.021   4.092
 1365TIP3    H2 4041   0.822   2.970   3.970
 1366TIP3   OH2 4042   7.572   7.569   1.682
 1366TIP3    H1 4043   7.530   7.485   1.701
 1366TIP3    H2 4044   7.507   7.618   1.632
 1367TIP3   OH2 4045   0.612   6.911   3.429
 1367TIP3    H1 4046   0.556   6.985   3.452
 1367TIP3    H2 4047   0.603   6.850   3.501
 1368TIP3   OH2 4048   6.548   7.402   2.643
 1368TIP3    H1 4049   6.630   7.448   2.622
 1368TIP3    H2 4050   6.574   7.310   2.652
 1369TIP3   OH2 4051   1.737   3.230   4.237
 1369TIP3    H1 4052   1.755   3.286   4.313
 1369TIP3    H2 4053   1.821   3.188   4.218
 1370TIP3   OH2 4054   2.716   6.578   3.043
 1370TIP3    H1 4055   2.737   6.669   3.023
 1370TIP3    H2 4056   2.700   6.578   3.138
 1371TIP3   OH2 4057   3.941   6.028   5.294
 1371TIP3    H1 4058   4.013   6.051   5.236
 1371TIP3    H2 4059   3.976   5.958   5.350
 1372TIP3   OH2 4060   5.677   6.560  -0.008
 1372TIP3    H1 4061   5.718   6.616   0.057
 1372TIP3    H2 4062   5.593   6.602  -0.028
 1373TIP3   OH2 4063   3.203   2.503   6.398
 1373TIP3    H1 4064   3.144   2.571   6.430
 1373TIP3    H2 4065   3.145   2.429   6.377
 1374TIP3   OH2 4066   4.936   2.621   0.255
 1374TIP3    H1 4067   4.881   2.574   0.318
 1374TIP3    H2 4068   4.895   2.707   0.246
 1375TIP3   OH2 4069   6.249   2.168   2.546
 1375TIP3    H1 4070   6.334   2.184   2.587
 1375TIP3    H2 4071   6.186   2.198   2.612
 1376TIP3   OH2 4072   1.293   1.548   1.481
 1376TIP3    H1 4073   1.325   1.487   1.415
 1376TIP3    H2 4074   1.238   1.609   1.432
 1377TIP3   OH2 4075   6.487   2.867   0.309
 1377TIP3    H1 4076   6.517   2.849   0.220
 1377TIP3    H2 4077   6.403   2.911   0.297
 1378TIP3   OH2 4078   3.034   6.460   2.050
 1378TIP3    H1 4079   3.030   6.555   2.054
 1378TIP3    H2 4080   3.107   6.441   1.992
 1379TIP3   OH2 4081   3.337   5.793   2.899
 1379TIP3    H1 4082   3.370   5.863   2.843
 1379TIP3    H2 4083   3.397   5.791   2.974
 1380TIP3   OH2 4084   3.095   6.705   5.586
 1380TIP3    H1 4085   3.191   6.706   5.584
 1380TIP3    H2 4086   3.072   6.645   5.657
 1381TIP3   OH2 4087   0.077   4.561   4.987
 1381TIP3    H1 4088   0.130   4.641   4.992
 1381TIP3    H2 4089   0.039   4.552   5.074
 1382TIP3   OH2 4090   0.567   5.235   5.500
 1382TIP3    H1 4091   0.614   5.314   5.526
 1382TIP3    H2 4092   0.498   5.266   5.441
 1383TIP3   OH2 4093   5.492   0.217   0.347
 1383TIP3    H1 4094   5.577   0.237   0.387
 1383TIP3    H2 4095   5.429   0.231   0.418
 1384TIP3   OH2 4096   3.275   4.581   2.079
 1384TIP3    H1 4097   3.270   4.592   2.174
 1384TIP3    H2 4098   3.201   4.632   2.045
 1385TIP3   OH2 4099   0.656   1.593   2.237
 1385TIP3    H1 4100   0.589   1.550   2.184
 1385TIP3    H2 4101   0.723   1.526   2.251
 1386TIP3   OH2 4102   0.880   0.022   5.595
 1386TIP3    H1 4103   0.898   0.115   5.607
 1386TIP3    H2 4104   0.800   0.006   5.646
 1387TIP3   OH2 4105   3.641   3.327   5.302
 1387TIP3    H1 4106   3.662   3.419   5.322
 1387TIP3    H2 4107   3.719   3.294   5.257
 1388TIP3   OH2 4108   2.639   4.885   2.209
 1388TIP3    H1 4109   2.728   4.874   2.242
 1388TIP3    H2 4110   2.600   4.950   2.268
 1389TIP3   OH2 4111   5.427   0.379   5.394
 1389TIP3    H1 4112   5.408   0.417   5.480
 1389TIP3    H2 4113   5.450   0.288   5.413
 1390TIP3   OH2 4114   2.040   2.602   1.806
 1390TIP3    H1 4115   2.017   2.534   1.870
 1390TIP3    H2 4116   1.970   2.599   1.741
 1391TIP3   OH2 4117   2.838   5.867   0.859
 1391TIP3    H1 4118   2.874   5.780   0.841
 1391TIP3    H2 4119   2.779   5.884   0.786
 1392TIP3   OH2 4120   7.645   3.044   4.645
 1392TIP3    H1 4121   7.589   2.983   4.597
 1392TIP3    H2 4122   7.585   3.096   4.698
 1393TIP3   OH2 4123   0.494   4.322   0.330
 1393TIP3    H1 4124   0.405   4.292   0.315
 1393TIP3    H2 4125   0.487   4.417   0.339
 1394TIP3   OH2 4126   1.658   2.881   3.749
 1394TIP3    H1 4127   1.614   2.966   3.746
 1394TIP3    H2 4128   1.734   2.895   3.805
 1395TIP3   OH2 4129   0.905   3.594   3.706
 1395TIP3    H1 4130   0.887   3.684   3.679
 1395TIP3    H2 4131   0.847   3.579   3.780
 1396TIP3   OH2 4132   6.060   1.594   6.655
 1396TIP3    H1 4133   6.036   1.609   6.563
 1396TIP3    H2 4134   5.993   1.534   6.688
 1397TIP3   OH2 4135   4.517   0.717   0.137
 1397TIP3    H1 4136   4.535   0.654   0.208
 1397TIP3    H2 4137   4.600   0.764   0.126
 1398TIP3   OH2 4138   3.697   2.993   6.354
 1398TIP3    H1 4139   3.633   2.975   6.423
 1398TIP3    H2 4140   3.645   2.996   6.273
 1399TIP3   OH2 4141   6.187   7.451   2.027
 1399TIP3    H1 4142   6.219   7.419   2.111
 1399TIP3    H2 4143   6.260   7.501   1.991
 1400TIP3   OH2 4144   5.498   1.438   3.492
 1400TIP3    H1 4145   5.459   1.373   3.433
 1400TIP3    H2 4146   5.560   1.486   3.437
 1401TIP3   OH2 4147   3.534   6.122   6.705
 1401TIP3    H1 4148   3.459   6.126   6.646
 1401TIP3    H2 4149   3.578   6.206   6.693
 1402TIP3   OH2 4150   8.208   0.418   4.504
 1402TIP3    H1 4151   8.154   0.497   4.500
 1402TIP3    H2 4152   8.248   0.412   4.417
 1403TIP3   OH2 4153   7.557   2.781   2.182
 1403TIP3    H1 4154   7.601   2.763   2.099
 1403TIP3    H2 4155   7.473   2.821   2.156
 1404TIP3   OH2 4156   1.002   4.750   5.455
 1404TIP3    H1 4157   0.929   4.768   5.396
 1404TIP3    H2 4158   1.054   4.683   5.410
 1405TIP3   OH2 4159   5.989   3.427   5.385
 1405TIP3    H1 4160   5.991   3.473   5.469
 1405TIP3    H2 4161   5.939   3.347   5.403
 1406TIP3   OH2 4162   2.680   7.736   1.035
 1406TIP3    H1 4163   2.608   7.788   0.999
 1406TIP3    H2 4164   2.759   7.780   1.004
 1407TIP3   OH2 4165   1.490   2.553   6.650
 1407TIP3    H1 4166   1.564   2.512   6.694
 1407TIP3    H2 4167   1.526   2.634   6.613
 1408TIP3   OH2 4168   6.669   0.295   2.048
 1408TIP3    H1 4169   6.634   0.378   2.078
 1408TIP3    H2 4170   6.763   0.312   2.036
 1409TIP3   OH2 4171   8.023   2.332   0.709
 1409TIP3    H1 4172   7.975   2.250   0.724
 1409TIP3    H2 4173   7.963   2.400   0.738
 1410TIP3   OH2 4174   2.843   2.292   5.403
 1410TIP3    H1 4175   2.784   2.347   5.353
 1410TIP3    H2 4176   2.860   2.217   5.346
 1411TIP3   OH2 4177   7.775   2.805   4.395
 1411TIP3    H1 4178   7.705   2.799   4.330
 1411TIP3    H2 4179   7.819   2.888   4.376
 1412TIP3   OH2 4180   7.562   3.366   6.073
 1412TIP3    H1 4181   7.496   3.435   6.079
 1412TIP3    H2 4182   7.555   3.335   5.983
 1413TIP3   OH2 4183   4.335   5.796   1.735
 1413TIP3    H1 4184   4.310   5.704   1.745
 1413TIP3    H2 4185   4.357   5.804   1.642
 1414TIP3   OH2 4186   6.950   2.935   4.159
 1414TIP3    H1 4187   6.982   2.997   4.224
 1414TIP3    H2 4188   6.861   2.913   4.188
 1415TIP3   OH2 4189   6.136   3.403   1.847
 1415TIP3    H1 4190   6.146   3.397   1.752
 1415TIP3    H2 4191   6.115   3.314   1.874
 1416TIP3   OH2 4192   4.307   4.358   1.083
 1416TIP3    H1 4193   4.260   4.333   1.163
 1416TIP3    H2 4194   4.377   4.417   1.113
 1417TIP3   OH2 4195   0.781   0.267   6.082
 1417TIP3    H1 4196   0.862   0.317   6.085
 1417TIP3    H2 4197   0.799   0.189   6.135
 1418TIP3   OH2 4198   5.918   4.529   1.817
 1418TIP3    H1 4199   5.976   4.587   1.769
 1418TIP3    H2 4200   5.963   4.513   1.900
 1419TIP3   OH2 4201   6.783   4.562   6.325
 1419TIP3    H1 4202   6.776   4.497   6.395
 1419TIP3    H2 4203   6.800   4.510   6.246
 1420TIP3   OH2 4204   2.649   1.863   0.461
 1420TIP3    H1 4205   2.557   1.838   0.453
 1420TIP3    H2 4206   2.647   1.958   0.472
 1421TIP3   OH2 4207   5.717   0.658   0.373
 1421TIP3    H1 4208   5.798   0.706   0.355
 1421TIP3    H2 4209   5.683   0.700   0.452
 1422TIP3   OH2 4210   1.973   2.992   5.442
 1422TIP3    H1 4211   1.878   2.995   5.430
 1422TIP3    H2 4212   1.986   3.006   5.536
 1423TIP3   OH2 4213   3.884   5.117   4.780
 1423TIP3    H1 4214   3.817   5.048   4.778
 1423TIP3    H2 4215   3.888   5.148   4.690
 1424TIP3   OH2 4216   2.137   5.066   0.512
 1424TIP3    H1 4217   2.170   5.048   0.600
 1424TIP3    H2 4218   2.121   4.979   0.474
 1425TIP3   OH2 4219   4.553   5.706   0.670
 1425TIP3    H1 4220   4.595   5.712   0.756
 1425TIP3    H2 4221   4.591   5.778   0.619
 1426TIP3   OH2 4222   6.725   0.741   6.124
 1426TIP3    H1 4223   6.728   0.820   6.069
 1426TIP3    H2 4224   6.634   0.711   6.119
 1427TIP3   OH2 4225   3.095   6.937   1.842
 1427TIP3    H1 4226   3.091   7.012   1.901
 1427TIP3    H2 4227   3.188   6.928   1.819
 1428TIP3   OH2 4228   6.065   3.521   3.402
 1428TIP3    H1 4229   6.013   3.539   3.323
 1428TIP3    H2 4230   6.005   3.534   3.474
 1429TIP3   OH2 4231   2.726   0.148   2.066
 1429TIP3    H1 4232   2.737   0.119   2.156
 1429TIP3    H2 4233   2.644   0.108   2.037
 1430TIP3   OH2 4234   7.597   5.731   4.718
 1430TIP3    H1 4235   7.660   5.685   4.662
 1430TIP3    H2 4236   7.647   5.755   4.796
 1431TIP3   OH2 4237   3.607   6.814   0.186
 1431TIP3    H1 4238   3.590   6.872   0.112
 1431TIP3    H2 4239   3.638   6.732   0.146
 1432TIP3   OH2 4240   7.516   2.905   3.606
 1432TIP3    H1 4241   7.600   2.943   3.634
 1432TIP3    H2 4242   7.528   2.811   3.616
 1433TIP3   OH2 4243   2.341   2.466   2.069
 1433TIP3    H1 4244   2.260   2.452   2.118
 1433TIP3    H2 4245   2.348   2.561   2.061
 1434TIP3   OH2 4246   2.450   1.820   4.661
 1434TIP3    H1 4247   2.488   1.738   4.693
 1434TIP3    H2 4248   2.426   1.803   4.570
 1435TIP3   OH2 4249   2.928   3.661   0.376
 1435TIP3    H1 4250   2.880   3.660   0.293
 1435TIP3    H2 4251   2.899   3.582   0.421
 1436TIP3   OH2 4252   6.359   4.864   2.924
 1436TIP3    H1 4253   6.333   4.895   3.010
 1436TIP3    H2 4254   6.282   4.819   2.890
 1437TIP3   OH2 4255   2.275   7.185   3.711
 1437TIP3    H1 4256   2.252   7.203   3.620
 1437TIP3    H2 4257   2.246   7.262   3.759
 1438TIP3   OH2 4258   5.151   3.264   2.731
 1438TIP3    H1 4259   5.215   3.231   2.667
 1438TIP3    H2 4260   5.168   3.213   2.810
 1439TIP3   OH2 4261   5.536   4.384   2.997
 1439TIP3    H1 4262   5.466   4.409   3.057
 1439TIP3    H2 4263   5.547   4.460   2.940
 1440TIP3   OH2 4264   0.562   3.682   2.243
 1440TIP3    H1 4265   0.594   3.592   2.241
 1440TIP3    H2 4266   0.481   3.679   2.192
 1441TIP3   OH2 4267   5.552   0.533   5.218
 1441TIP3    H1 4268   5.506   0.492   5.291
 1441TIP3    H2 4269   5.511   0.619   5.210
 1442TIP3   OH2 4270   6.407   0.655   2.364
 1442TIP3    H1 4271   6.484   0.711   2.370
 1442TIP3    H2 4272   6.371   0.653   2.452
 1443TIP3   OH2 4273   6.816   4.641   1.420
 1443TIP3    H1 4274   6.905   4.618   1.396
 1443TIP3    H2 4275   6.809   4.617   1.513
 1444TIP3   OH2 4276   1.699   0.072   0.461
 1444TIP3    H1 4277   1.626   0.030   0.506
 1444TIP3    H2 4278   1.665   0.094   0.374
 1445TIP3   OH2 4279   2.947   0.676   1.577
 1445TIP3    H1 4280   3.013   0.744   1.593
 1445TIP3    H2 4281   2.968   0.607   1.640
 1446TIP3   OH2 4282   1.022   3.255   2.654
 1446TIP3    H1 4283   1.108   3.290   2.631
 1446TIP3    H2 4284   1.041   3.171   2.696
 1447TIP3   OH2 4285   7.554   0.783   2.490
 1447TIP3    H1 4286   7.472   0.749   2.527
 1447TIP3    H2 4287   7.565   0.869   2.531
 1448TIP3   OH2 4288   4.345   6.222   2.005
 1448TIP3    H1 4289   4.322   6.314   1.999
 1448TIP3    H2 4290   4.440   6.221   2.018
 1449TIP3   OH2 4291   1.432   0.518   0.808
 1449TIP3    H1 4292   1.397   0.532   0.896
 1449TIP3    H2 4293   1.527   0.524   0.819
 1450TIP3   OH2 4294   4.817   1.619   6.273
 1450TIP3    H1 4295   4.760   1.693   6.293
 1450TIP3    H2 4296   4.891   1.657   6.227
 1451TIP3   OH2 4297   4.647   0.812   0.529
 1451TIP3    H1 4298   4.565   0.812   0.578
 1451TIP3    H2 4299   4.690   0.894   0.554
 1452TIP3   OH2 4300   7.382   1.003   6.200
 1452TIP3    H1 4301   7.338   0.920   6.181
 1452TIP3    H2 4302   7.414   1.033   6.115
 1453TIP3   OH2 4303   4.821   4.226   0.843
 1453TIP3    H1 4304   4.746   4.199   0.896
 1453TIP3    H2 4305   4.875   4.147   0.835
 1454TIP3   OH2 4306   5.467   1.796   2.108
 1454TIP3    H1 4307   5.383   1.835   2.132
 1454TIP3    H2 4308   5.502   1.762   2.190
 1455TIP3   OH2 4309   4.785   4.874   1.868
 1455TIP3    H1 4310   4.838   4.916   1.800
 1455TIP3    H2 4311   4.797   4.780   1.852
 1456TIP3   OH2 4312   0.889   7.245   1.515
 1456TIP3    H1 4313   0.912   7.334   1.486
 1456TIP3    H2 4314   0.936   7.235   1.598
 1457TIP3   OH2 4315   0.450   1.546   2.597
 1457TIP3    H1 4316   0.357   1.547   2.620
 1457TIP3    H2 4317   0.471   1.638   2.579
 1458TIP3   OH2 4318   4.972   5.744   4.736
 1458TIP3    H1 4319   5.018   5.764   4.818
 1458TIP3    H2 4320   4.881   5.770   4.753
 1459TIP3   OH2 4321   7.215   6.431   4.322
 1459TIP3    H1 4322   7.184   6.496   4.259
 1459TIP3    H2 4323   7.308   6.452   4.335
 1460TIP3   OH2 4324   5.636   5.787   3.412
 1460TIP3    H1 4325   5.543   5.807   3.419
 1460TIP3    H2 4326   5.671   5.805   3.500
 1461TIP3   OH2 4327   6.995   3.039   2.404
 1461TIP3    H1 4328   6.934   3.067   2.472
 1461TIP3    H2 4329   7.047   2.971   2.446
 1462TIP3   OH2 4330   1.464   3.168   4.251
 1462TIP3    H1 4331   1.559   3.151   4.247
 1462TIP3    H2 4332   1.456   3.263   4.246
 1463TIP3   OH2 4333   7.563   3.001   0.529
 1463TIP3    H1 4334   7.642   2.959   0.497
 1463TIP3    H2 4335   7.511   3.019   0.451
 1464TIP3   OH2 4336   3.514   5.197   3.779
 1464TIP3    H1 4337   3.583   5.221   3.841
 1464TIP3    H2 4338   3.496   5.105   3.798
 1465TIP3   OH2 4339   4.639   7.732   6.089
 1465TIP3    H1 4340   4.692   7.664   6.047
 1465TIP3    H2 4341   4.582   7.683   6.149
 1466TIP3   OH2 4342   0.412   7.779   1.500
 1466TIP3    H1 4343   0.420   7.789   1.405
 1466TIP3    H2 4344   0.465   7.702   1.521
 1467TIP3   OH2 4345   1.342   0.615   1.501
 1467TIP3    H1 4346   1.278   0.654   1.561
 1467TIP3    H2 4347   1.368   0.687   1.444
 1468TIP3   OH2 4348   5.104   3.546   5.875
 1468TIP3    H1 4349   5.129   3.505   5.958
 1468TIP3    H2 4350   5.162   3.621   5.867
 1469TIP3   OH2 4351   2.571   5.596   4.861
 1469TIP3    H1 4352   2.595   5.570   4.772
 1469TIP3    H2 4353   2.507   5.667   4.849
 1470TIP3   OH2 4354   3.569   6.835   3.445
 1470TIP3    H1 4355   3.656   6.867   3.468
 1470TIP3    H2 4356   3.586   6.771   3.375
 1471TIP3   OH2 4357   6.333   7.528   3.221
 1471TIP3    H1 4358   6.410   7.578   3.248
 1471TIP3    H2 4359   6.281   7.590   3.170
 1472TIP3   OH2 4360   3.152   3.123   2.594
 1472TIP3    H1 4361   3.166   3.057   2.662
 1472TIP3    H2 4362   3.188   3.203   2.630
 1473TIP3   OH2 4363   6.393   3.080   6.453
 1473TIP3    H1 4364   6.414   3.129   6.374
 1473TIP3    H2 4365   6.317   3.026   6.429
 1474TIP3   OH2 4366   0.779   0.557   0.563
 1474TIP3    H1 4367   0.764   0.484   0.623
 1474TIP3    H2 4368   0.874   0.567   0.561
 1475TIP3   OH2 4369   0.937   2.216   5.609
 1475TIP3    H1 4370   0.913   2.301   5.645
 1475TIP3    H2 4371   0.856   2.165   5.611
 1476TIP3   OH2 4372   2.570   0.008   5.814
 1476TIP3    H1 4373   2.486   0.017   5.769
 1476TIP3    H2 4374   2.547  -0.024   5.901
 1477TIP3   OH2 4375   6.749   2.038   1.524
 1477TIP3    H1 4376   6.840   2.028   1.495
 1477TIP3    H2 4377   6.732   1.960   1.576
 1478TIP3   OH2 4378   3.338   7.494   0.403
 1478TIP3    H1 4379   3.270   7.444   0.448
 1478TIP3    H2 4380   3.420   7.450   0.424
 1479TIP3   OH2 4381   6.005   1.128   2.901
 1479TIP3    H1 4382   6.088   1.138   2.949
 1479TIP3    H2 4383   6.029   1.135   2.809
 1480TIP3   OH2 4384   6.201   2.334   6.387
 1480TIP3    H1 4385   6.137   2.274   6.348
 1480TIP3    H2 4386   6.229   2.291   6.468
 1481TIP3   OH2 4387   5.216   0.903   2.055
 1481TIP3    H1 4388   5.180   0.819   2.025
 1481TIP3    H2 4389   5.307   0.883   2.076
 1482TIP3   OH2 4390   6.963   0.788   1.460
 1482TIP3    H1 4391   6.987   0.728   1.389
 1482TIP3    H2 4392   6.872   0.812   1.441
 1483TIP3   OH2 4393   4.485   4.886   1.366
 1483TIP3    H1 4394   4.552   4.846   1.311
 1483TIP3    H2 4395   4.409   4.830   1.356
 1484TIP3   OH2 4396   2.007   3.628   4.954
 1484TIP3    H1 4397   1.938   3.640   4.890
 1484TIP3    H2 4398   2.087   3.617   4.902
 1485TIP3   OH2 4399   5.947   5.280   4.280
 1485TIP3    H1 4400   6.038   5.259   4.303
 1485TIP3    H2 4401   5.906   5.305   4.363
 1486TIP3   OH2 4402   3.115   1.921   0.032
 1486TIP3    H1 4403   3.031   1.883   0.005
 1486TIP3    H2 4404   3.180   1.857   0.003
 1487TIP3   OH2 4405   2.367   5.971   5.385
 1487TIP3    H1 4406   2.385   5.929   5.469
 1487TIP3    H2 4407   2.276   5.948   5.366
 1488TIP3   OH2 4408   8.108   4.179   1.103
 1488TIP3    H1 4409   8.167   4.111   1.135
 1488TIP3    H2 4410   8.115   4.249   1.168
 1489TIP3   OH2 4411   7.083   5.292   0.792
 1489TIP3    H1 4412   7.073   5.282   0.697
 1489TIP3    H2 4413   7.149   5.360   0.802
 1490TIP3   OH2 4414   5.161   2.962   5.732
 1490TIP3    H1 4415   5.158   2.927   5.821
 1490TIP3    H2 4416   5.080   3.012   5.723
 1491TIP3   OH2 4417   0.838   7.501   1.798
 1491TIP3    H1 4418   0.788   7.452   1.734
 1491TIP3    H2 4419   0.855   7.439   1.869
 1492TIP3   OH2 4420   6.687   2.219   2.378
 1492TIP3    H1 4421   6.711   2.308   2.404
 1492TIP3    H2 4422   6.598   2.226   2.345
 1493TIP3   OH2 4423   3.404   4.467   4.236
 1493TIP3    H1 4424   3.398   4.437   4.145
 1493TIP3    H2 4425   3.470   4.410   4.276
 1494TIP3   OH2 4426   6.957   6.999   1.599
 1494TIP3    H1 4427   6.948   7.024   1.690
 1494TIP3    H2 4428   6.870   7.012   1.561
 1495TIP3   OH2 4429   2.256   1.617   5.260
 1495TIP3    H1 4430   2.224   1.604   5.349
 1495TIP3    H2 4431   2.349   1.596   5.265
 1496TIP3   OH2 4432   7.016   2.979   3.623
 1496TIP3    H1 4433   6.949   3.012   3.684
 1496TIP3    H2 4434   7.001   3.027   3.542
 1497TIP3   OH2 4435   1.053   0.682   3.607
 1497TIP3    H1 4436   1.112   0.627   3.556
 1497TIP3    H2 4437   1.013   0.740   3.543
 1498TIP3   OH2 4438   7.426   5.026   6.110
 1498TIP3    H1 4439   7.458   4.971   6.182
 1498TIP3    H2 4440   7.461   4.985   6.031
 1499TIP3   OH2 4441   2.522   5.054   4.369
 1499TIP3    H1 4442   2.475   5.034   4.450
 1499TIP3    H2 4443   2.495   5.143   4.347
 1500TIP3   OH2 4444   2.273   3.307   1.576
 1500TIP3    H1 4445   2.294   3.311   1.482
 1500TIP3    H2 4446   2.359   3.312   1.619
 1501TIP3   OH2 4447   3.376   6.706   3.585
 1501TIP3    H1 4448   3.382   6.752   3.669
 1501TIP3    H2 4449   3.440   6.749   3.529
 1502TIP3   OH2 4450   4.716   2.105   1.625
 1502TIP3    H1 4451   4.678   2.020   1.602
 1502TIP3    H2 4452   4.670   2.168   1.569
 1503TIP3   OH2 4453   5.376   6.527   6.482
 1503TIP3    H1 4454   5.455   6.489   6.521
 1503TIP3    H2 4455   5.365   6.481   6.399
 1504TIP3   OH2 4456   5.924   1.080   3.397
 1504TIP3    H1 4457   6.016   1.100   3.411
 1504TIP3    H2 4458   5.924   1.006   3.337
 1505TIP3   OH2 4459   2.484   5.886   4.559
 1505TIP3    H1 4460   2.513   5.942   4.487
 1505TIP3    H2 4461   2.553   5.820   4.567
 1506TIP3   OH2 4462   4.290   6.827   2.750
 1506TIP3    H1 4463   4.343   6.869   2.682
 1506TIP3    H2 4464   4.353   6.784   2.807
 1507TIP3   OH2 4465   3.590   2.680   1.808
 1507TIP3    H1 4466   3.636   2.616   1.755
 1507TIP3    H2 4467   3.500   2.679   1.776
 1508TIP3   OH2 4468   0.481   6.275   2.543
 1508TIP3    H1 4469   0.548   6.215   2.512
 1508TIP3    H2 4470   0.528   6.335   2.602
 1509TIP3   OH2 4471   7.769   3.424   0.663
 1509TIP3    H1 4472   7.810   3.374   0.734
 1509TIP3    H2 4473   7.791   3.374   0.584
 1510TIP3   OH2 4474   0.886   5.141   2.436
 1510TIP3    H1 4475   0.930   5.207   2.382
 1510TIP3    H2 4476   0.794   5.168   2.438
 1511TIP3   OH2 4477   3.220   2.661   3.113
 1511TIP3    H1 4478   3.268   2.721   3.171
 1511TIP3    H2 4479   3.128   2.683   3.128
 1512TIP3   OH2 4480   0.666   1.371   2.491
 1512TIP3    H1 4481   0.602   1.436   2.519
 1512TIP3    H2 4482   0.686   1.321   2.571
 1513TIP3   OH2 4483   4.376   0.047   5.948
 1513TIP3    H1 4484   4.297   0.036   6.002
 1513TIP3    H2 4485   4.432  -0.026   5.973
 1514TIP3   OH2 4486   0.673   5.024   3.987
 1514TIP3    H1 4487   0.656   5.064   3.902
 1514TIP3    H2 4488   0.737   5.083   4.028
 1515TIP3   OH2 4489   6.723   3.483   2.802
 1515TIP3    H1 4490   6.776   3.558   2.773
 1515TIP3    H2 4491   6.762   3.456   2.885
 1516TIP3   OH2 4492   6.390   3.914   6.075
 1516TIP3    H1 4493   6.364   3.919   6.167
 1516TIP3    H2 4494   6.314   3.876   6.030
 1517TIP3   OH2 4495   4.439   6.948   3.080
 1517TIP3    H1 4496   4.350   6.957   3.047
 1517TIP3    H2 4497   4.471   7.037   3.087
 1518TIP3   OH2 4498   8.161   1.334   4.634
 1518TIP3    H1 4499   8.210   1.360   4.555
 1518TIP3    H2 4500   8.186   1.243   4.648
 1519TIP3   OH2 4501   2.097   4.016   1.280
 1519TIP3    H1 4502   2.157   4.036   1.208
 1519TIP3    H2 4503   2.098   4.095   1.335
 1520TIP3   OH2 4504   0.498   3.574   1.339
 1520TIP3    H1 4505   0.405   3.555   1.340
 1520TIP3    H2 4506   0.504   3.666   1.315
 1521TIP3   OH2 4507   1.841   5.065   3.971
 1521TIP3    H1 4508   1.934   5.080   3.954
 1521TIP3    H2 4509   1.816   5.133   4.033
 1522TIP3   OH2 4510   3.697   3.606   2.346
 1522TIP3    H1 4511   3.707   3.639   2.435
 1522TIP3    H2 4512   3.607   3.627   2.322
 1523TIP3   OH2 4513   3.169   3.017   3.075
 1523TIP3    H1 4514   3.129   3.009   3.161
 1523TIP3    H2 4515   3.249   3.068   3.090
 1524TIP3   OH2 4516   1.827   3.821   4.467
 1524TIP3    H1 4517   1.921   3.813   4.451
 1524TIP3    H2 4518   1.820   3.874   4.546
 1525TIP3   OH2 4519   2.953   3.540   3.364
 1525TIP3    H1 4520   3.042   3.536   3.396
 1525TIP3    H2 4521   2.962   3.546   3.268
 1526TIP3   OH2 4522   6.895   5.829   5.002
 1526TIP3    H1 4523   6.878   5.902   4.941
 1526TIP3    H2 4524   6.976   5.854   5.047
 1527TIP3   OH2 4525   3.925   4.658   4.848
 1527TIP3    H1 4526   3.999   4.598   4.856
 1527TIP3    H2 4527   3.854   4.616   4.896
 1528TIP3   OH2 4528   2.346   7.414   1.063
 1528TIP3    H1 4529   2.298   7.440   1.142
 1528TIP3    H2 4530   2.287   7.353   1.019
 1529TIP3   OH2 4531   0.022   3.794   2.800
 1529TIP3    H1 4532  -0.068   3.793   2.768
 1529TIP3    H2 4533   0.065   3.863   2.749
 1530TIP3   OH2 4534   3.717   2.555   2.370
 1530TIP3    H1 4535   3.626   2.580   2.358
 1530TIP3    H2 4536   3.734   2.568   2.464
 1531TIP3   OH2 4537   7.788   1.314   2.335
 1531TIP3    H1 4538   7.754   1.349   2.253
 1531TIP3    H2 4539   7.882   1.301   2.318
 1532TIP3   OH2 4540   6.209   3.624   6.264
 1532TIP3    H1 4541   6.131   3.645   6.316
 1532TIP3    H2 4542   6.174   3.591   6.181
 1533TIP3   OH2 4543   4.561   7.833   3.339
 1533TIP3    H1 4544   4.510   7.762   3.378
 1533TIP3    H2 4545   4.650   7.797   3.332
 1534TIP3   OH2 4546   3.060   0.352   3.721
 1534TIP3    H1 4547   3.099   0.428   3.765
 1534TIP3    H2 4548   3.055   0.379   3.629
 1535TIP3   OH2 4549   8.180   2.471   0.528
 1535TIP3    H1 4550   8.125   2.397   0.556
 1535TIP3    H2 4551   8.134   2.548   0.561
 1536TIP3   OH2 4552   6.052   6.800   2.792
 1536TIP3    H1 4553   6.134   6.754   2.812
 1536TIP3    H2 4554   6.076   6.893   2.792
 1537TIP3   OH2 4555   4.096   3.044   0.974
 1537TIP3    H1 4556   4.032   2.979   1.003
 1537TIP3    H2 4557   4.173   2.994   0.948
 1538TIP3   OH2 4558   3.294   6.598   6.195
 1538TIP3    H1 4559   3.324   6.536   6.128
 1538TIP3    H2 4560   3.304   6.550   6.277
 1539TIP3   OH2 4561   1.206   5.602   4.241
 1539TIP3    H1 4562   1.222   5.524   4.188
 1539TIP3    H2 4563   1.116   5.628   4.219
 1540TIP3   OH2 4564   7.303   2.397   2.375
 1540TIP3    H1 4565   7.258   2.351   2.304
 1540TIP3    H2 4566   7.380   2.435   2.333
 1541TIP3   OH2 4567   5.973   1.959   6.702
 1541TIP3    H1 4568   5.942   2.041   6.741
 1541TIP3    H2 4569   5.928   1.954   6.618
 1542TIP3   OH2 4570   6.273   6.197   0.092
 1542TIP3    H1 4571   6.239   6.108   0.105
 1542TIP3    H2 4572   6.203   6.243   0.045
 1543TIP3   OH2 4573   1.615   1.504   3.975
 1543TIP3    H1 4574   1.530   1.464   3.996
 1543TIP3    H2 4575   1.646   1.539   4.059
 1544TIP3   OH2 4576   5.594   4.729   5.274
 1544TIP3    H1 4577   5.685   4.758   5.269
 1544TIP3    H2 4578   5.551   4.795   5.327
 1545TIP3   OH2 4579   0.849   3.150   1.848
 1545TIP3    H1 4580   0.822   3.227   1.897
 1545TIP3    H2 4581   0.937   3.130   1.880
 1546TIP3   OH2 4582   6.927   3.905   5.395
 1546TIP3    H1 4583   6.833   3.895   5.379
 1546TIP3    H2 4584   6.948   3.991   5.358
 1547TIP3   OH2 4585   2.393   5.572   5.994
 1547TIP3    H1 4586   2.322   5.574   5.930
 1547TIP3    H2 4587   2.358   5.617   6.071
 1548TIP3   OH2 4588   1.758   4.459   4.616
 1548TIP3    H1 4589   1.695   4.502   4.674
 1548TIP3    H2 4590   1.710   4.447   4.534
 1549TIP3   OH2 4591   4.801   7.751   3.806
 1549TIP3    H1 4592   4.801   7.774   3.899
 1549TIP3    H2 4593   4.755   7.667   3.802
 1550TIP3   OH2 4594   6.596   7.180   3.694
 1550TIP3    H1 4595   6.505   7.206   3.709
 1550TIP3    H2 4596   6.593   7.084   3.691
 1551TIP3   OH2 4597   2.307   5.404   0.747
 1551TIP3    H1 4598   2.297   5.454   0.666
 1551TIP3    H2 4599   2.228   5.349   0.750
 1552TIP3   OH2 4600   1.368   7.735   5.770
 1552TIP3    H1 4601   1.327   7.722   5.856
 1552TIP3    H2 4602   1.392   7.827   5.768
 1553TIP3   OH2 4603   1.160   2.118   2.348
 1553TIP3    H1 4604   1.132   2.075   2.428
 1553TIP3    H2 4605   1.089   2.179   2.327
 1554TIP3   OH2 4606   4.625   6.040   4.338
 1554TIP3    H1 4607   4.552   6.021   4.279
 1554TIP3    H2 4608   4.628   6.135   4.343
 1555TIP3   OH2 4609   5.692   7.514   5.858
 1555TIP3    H1 4610   5.640   7.509   5.938
 1555TIP3    H2 4611   5.639   7.468   5.792
 1556TIP3   OH2 4612   6.726   5.995   2.187
 1556TIP3    H1 4613   6.655   6.024   2.129
 1556TIP3    H2 4614   6.792   5.960   2.128
 1557TIP3   OH2 4615   5.139   5.471   5.894
 1557TIP3    H1 4616   5.173   5.557   5.919
 1557TIP3    H2 4617   5.082   5.487   5.820
 1558TIP3   OH2 4618   8.240   0.298   4.745
 1558TIP3    H1 4619   8.183   0.342   4.808
 1558TIP3    H2 4620   8.227   0.347   4.663
 1559TIP3   OH2 4621   6.188   1.949   3.851
 1559TIP3    H1 4622   6.274   1.966   3.811
 1559TIP3    H2 4623   6.206   1.941   3.944
 1560TIP3   OH2 4624   0.978   4.344   5.920
 1560TIP3    H1 4625   1.022   4.293   5.852
 1560TIP3    H2 4626   0.970   4.283   5.994
 1561TIP3   OH2 4627   1.097   3.745   2.111
 1561TIP3    H1 4628   1.053   3.772   2.191
 1561TIP3    H2 4629   1.030   3.699   2.061
 1562TIP3   OH2 4630   0.941   0.248   2.460
 1562TIP3    H1 4631   1.003   0.269   2.391
 1562TIP3    H2 4632   0.936   0.327   2.513
 1563TIP3   OH2 4633   2.313   4.164   2.047
 1563TIP3    H1 4634   2.351   4.156   1.960
 1563TIP3    H2 4635   2.380   4.208   2.100
 1564TIP3   OH2 4636   2.554   4.753   3.636
 1564TIP3    H1 4637   2.546   4.849   3.634
 1564TIP3    H2 4638   2.545   4.730   3.729
 1565TIP3   OH2 4639   5.035   4.698   5.084
 1565TIP3    H1 4640   5.027   4.658   5.171
 1565TIP3    H2 4641   4.960   4.665   5.035
 1566TIP3   OH2 4642   5.806   7.261   1.774
 1566TIP3    H1 4643   5.824   7.167   1.767
 1566TIP3    H2 4644   5.719   7.272   1.736
 1567TIP3   OH2 4645   5.024   2.704   1.303
 1567TIP3    H1 4646   4.933   2.736   1.306
 1567TIP3    H2 4647   5.024   2.628   1.361
 1568TIP3   OH2 4648   3.422   4.677   1.515
 1568TIP3    H1 4649   3.468   4.654   1.596
 1568TIP3    H2 4650   3.364   4.749   1.540
 1569TIP3   OH2 4651   6.588   0.235   0.808
 1569TIP3    H1 4652   6.518   0.298   0.788
 1569TIP3    H2 4653   6.545   0.150   0.803
 1570TIP3   OH2 4654   2.367   5.151   2.906
 1570TIP3    H1 4655   2.388   5.185   2.819
 1570TIP3    H2 4656   2.452   5.141   2.949
 1571TIP3   OH2 4657   3.711   4.511   1.302
 1571TIP3    H1 4658   3.710   4.513   1.206
 1571TIP3    H2 4659   3.619   4.500   1.326
 1572TIP3   OH2 4660   0.605   2.007   6.313
 1572TIP3    H1 4661   0.545   2.058   6.257
 1572TIP3    H2 4662   0.673   2.069   6.339
 1573TIP3   OH2 4663   6.753   2.199   2.102
 1573TIP3    H1 4664   6.754   2.216   2.196
 1573TIP3    H2 4665   6.838   2.159   2.084
 1574TIP3   OH2 4666   7.603   0.740   4.083
 1574TIP3    H1 4667   7.641   0.766   3.999
 1574TIP3    H2 4668   7.601   0.821   4.135
 1575TIP3   OH2 4669   7.394   3.897   1.620
 1575TIP3    H1 4670   7.412   3.880   1.712
 1575TIP3    H2 4671   7.303   3.872   1.608
 1576TIP3   OH2 4672   5.017   1.715   6.115
 1576TIP3    H1 4673   5.111   1.724   6.100
 1576TIP3    H2 4674   4.986   1.804   6.129
 1577TIP3   OH2 4675   7.229   2.150   3.422
 1577TIP3    H1 4676   7.253   2.058   3.431
 1577TIP3    H2 4677   7.259   2.191   3.503
 1578TIP3   OH2 4678   0.351   4.357   2.671
 1578TIP3    H1 4679   0.361   4.450   2.688
 1578TIP3    H2 4680   0.265   4.350   2.627
 1579TIP3   OH2 4681   2.332   4.762   2.927
 1579TIP3    H1 4682   2.405   4.766   2.988
 1579TIP3    H2 4683   2.374   4.760   2.840
 1580TIP3   OH2 4684   2.280   6.069   2.894
 1580TIP3    H1 4685   2.356   6.103   2.847
 1580TIP3    H2 4686   2.310   6.061   2.985
 1581TIP3   OH2 4687   3.901   5.686   5.265
 1581TIP3    H1 4688   3.955   5.735   5.203
 1581TIP3    H2 4689   3.846   5.631   5.210
 1582TIP3   OH2 4690   0.698   6.258   0.453
 1582TIP3    H1 4691   0.657   6.209   0.382
 1582TIP3    H2 4692   0.744   6.330   0.410
 1583TIP3   OH2 4693   7.321   5.385   1.566
 1583TIP3    H1 4694   7.413   5.361   1.559
 1583TIP3    H2 4695   7.274   5.305   1.543
 1584TIP3   OH2 4696   5.109   2.496   2.843
 1584TIP3    H1 4697   5.067   2.577   2.815
 1584TIP3    H2 4698   5.186   2.524   2.892
 1585TIP3   OH2 4699   1.016   4.142   2.440
 1585TIP3    H1 4700   1.089   4.156   2.380
 1585TIP3    H2 4701   0.938   4.148   2.385
 1586TIP3   OH2 4702   7.555   1.722   6.590
 1586TIP3    H1 4703   7.558   1.806   6.636
 1586TIP3    H2 4704   7.622   1.729   6.523
 1587TIP3   OH2 4705   0.179   3.470   0.106
 1587TIP3    H1 4706   0.264   3.513   0.092
 1587TIP3    H2 4707   0.180   3.446   0.199
 1588TIP3   OH2 4708   7.293   5.245   3.816
 1588TIP3    H1 4709   7.342   5.279   3.892
 1588TIP3    H2 4710   7.360   5.232   3.749
 1589TIP3   OH2 4711   6.434   5.506   3.086
 1589TIP3    H1 4712   6.425   5.532   2.994
 1589TIP3    H2 4713   6.428   5.588   3.135
 1590TIP3   OH2 4714   0.943   6.165   4.003
 1590TIP3    H1 4715   0.975   6.120   4.081
 1590TIP3    H2 4716   0.869   6.218   4.034
 1591TIP3   OH2 4717   5.103   0.662   0.588
 1591TIP3    H1 4718   5.028   0.672   0.647
 1591TIP3    H2 4719   5.065   0.624   0.508
 1592TIP3   OH2 4720   3.746   1.389   0.476
 1592TIP3    H1 4721   3.777   1.470   0.435
 1592TIP3    H2 4722   3.658   1.410   0.507
 1593TIP3   OH2 4723   1.728   2.455   3.331
 1593TIP3    H1 4724   1.785   2.530   3.346
 1593TIP3    H2 4725   1.733   2.405   3.413
 1594TIP3   OH2 4726   4.622   7.674   4.574
 1594TIP3    H1 4727   4.610   7.754   4.625
 1594TIP3    H2 4728   4.578   7.606   4.625
 1595TIP3   OH2 4729   1.577   4.910   5.828
 1595TIP3    H1 4730   1.521   4.852   5.776
 1595TIP3    H2 4731   1.526   4.926   5.908
 1596TIP3   OH2 4732   2.275   7.100   0.295
 1596TIP3    H1 4733   2.348   7.161   0.304
 1596TIP3    H2 4734   2.261   7.095   0.200
 1597TIP3   OH2 4735   4.912   7.630   6.504
 1597TIP3    H1 4736   4.919   7.687   6.427
 1597TIP3    H2 4737   4.882   7.546   6.469
 1598TIP3   OH2 4738   5.499   4.172   0.236
 1598TIP3    H1 4739   5.487   4.140   0.147
 1598TIP3    H2 4740   5.437   4.244   0.244
 1599TIP3   OH2 4741   0.159   5.267   1.719
 1599TIP3    H1 4742   0.219   5.192   1.720
 1599TIP3    H2 4743   0.216   5.342   1.703
 1600TIP3   OH2 4744   2.176   5.371   6.201
 1600TIP3    H1 4745   2.197   5.411   6.285
 1600TIP3    H2 4746   2.259   5.333   6.171
 1601TIP3   OH2 4747   2.296   7.425   4.723
 1601TIP3    H1 4748   2.283   7.440   4.816
 1601TIP3    H2 4749   2.261   7.337   4.708
 1602TIP3   OH2 4750   3.381   7.485   4.615
 1602TIP3    H1 4751   3.354   7.520   4.530
 1602TIP3    H2 4752   3.329   7.406   4.626
 1603TIP3   OH2 4753   5.941   6.699   5.425
 1603TIP3    H1 4754   5.983   6.756   5.361
 1603TIP3    H2 4755   5.947   6.612   5.386
 1604TIP3   OH2 4756   7.571   0.200   2.280
 1604TIP3    H1 4757   7.528   0.279   2.247
 1604TIP3    H2 4758   7.663   0.225   2.289
 1605TIP3   OH2 4759   5.737   1.165   2.911
 1605TIP3    H1 4760   5.744   1.184   2.818
 1605TIP3    H2 4761   5.826   1.146   2.939
 1606TIP3   OH2 4762   5.406   2.323   6.735
 1606TIP3    H1 4763   5.388   2.311   6.828
 1606TIP3    H2 4764   5.341   2.387   6.707
 1607TIP3   OH2 4765   0.831   0.937   2.858
 1607TIP3    H1 4766   0.903   0.998   2.876
 1607TIP3    H2 4767   0.873   0.852   2.850
 1608TIP3   OH2 4768   0.824   2.321   1.488
 1608TIP3    H1 4769   0.743   2.367   1.468
 1608TIP3    H2 4770   0.859   2.367   1.565
 1609TIP3   OH2 4771   5.882   6.291   0.128
 1609TIP3    H1 4772   5.793   6.295   0.093
 1609TIP3    H2 4773   5.938   6.322   0.057
 1610TIP3   OH2 4774   3.149   2.284   1.446
 1610TIP3    H1 4775   3.153   2.250   1.535
 1610TIP3    H2 4776   3.171   2.377   1.454
 1611TIP3   OH2 4777   1.727   2.925   3.249
 1611TIP3    H1 4778   1.652   2.954   3.198
 1611TIP3    H2 4779   1.702   2.838   3.282
 1612TIP3   OH2 4780   7.862   0.791   0.041
 1612TIP3    H1 4781   7.857   0.858   0.110
 1612TIP3    H2 4782   7.780   0.800  -0.007
 1613TIP3   OH2 4783   5.461   0.772   5.959
 1613TIP3    H1 4784   5.500   0.858   5.978
 1613TIP3    H2 4785   5.529   0.709   5.981
 1614TIP3   OH2 4786   7.198   3.275   5.036
 1614TIP3    H1 4787   7.141   3.219   4.982
 1614TIP3    H2 4788   7.287   3.247   5.012
 1615TIP3   OH2 4789   1.910   5.466   1.877
 1615TIP3    H1 4790   1.880   5.389   1.925
 1615TIP3    H2 4791   1.984   5.435   1.825
 1616TIP3   OH2 4792   4.960   5.102   1.812
 1616TIP3    H1 4793   4.976   5.061   1.897
 1616TIP3    H2 4794   4.975   5.195   1.827
 1617TIP3   OH2 4795   3.165   1.888   3.101
 1617TIP3    H1 4796   3.147   1.857   3.190
 1617TIP3    H2 4797   3.120   1.826   3.044
 1618TIP3   OH2 4798   5.007   1.342   5.789
 1618TIP3    H1 4799   5.045   1.267   5.834
 1618TIP3    H2 4800   5.075   1.372   5.730
 1619TIP3   OH2 4801   0.095   3.108   4.097
 1619TIP3    H1 4802   0.178   3.148   4.072
 1619TIP3    H2 4803   0.101   3.096   4.192
 1620TIP3   OH2 4804   3.760   6.731   0.801
 1620TIP3    H1 4805   3.717   6.798   0.854
 1620TIP3    H2 4806   3.817   6.780   0.742
 1621TIP3   OH2 4807   6.378   2.649   3.645
 1621TIP3    H1 4808   6.458   2.700   3.661
 1621TIP3    H2 4809   6.353   2.673   3.555
 1622TIP3   OH2 4810   4.928   0.715   2.686
 1622TIP3    H1 4811   4.869   0.768   2.633
 1622TIP3    H2 4812   4.928   0.629   2.643
 1623TIP3   OH2 4813   1.392   4.461   3.284
 1623TIP3    H1 4814   1.335   4.395   3.243
 1623TIP3    H2 4815   1.372   4.456   3.377
 1624TIP3   OH2 4816   0.998   0.245   0.657
 1624TIP3    H1 4817   1.077   0.257   0.709
 1624TIP3    H2 4818   1.029   0.234   0.567
 1625TIP3   OH2 4819   3.505   3.193   1.428
 1625TIP3    H1 4820   3.450   3.192   1.506
 1625TIP3    H2 4821   3.445   3.172   1.356
 1626TIP3   OH2 4822   2.479   0.484   2.768
 1626TIP3    H1 4823   2.392   0.503   2.732
 1626TIP3    H2 4824   2.512   0.412   2.715
 1627TIP3   OH2 4825   0.712   5.695   1.801
 1627TIP3    H1 4826   0.718   5.655   1.887
 1627TIP3    H2 4827   0.654   5.637   1.751
 1628TIP3   OH2 4828   6.731   3.074   1.651
 1628TIP3    H1 4829   6.800   3.061   1.586
 1628TIP3    H2 4830   6.776   3.110   1.727
 1629TIP3   OH2 4831   1.257   6.753   5.005
 1629TIP3    H1 4832   1.231   6.809   4.931
 1629TIP3    H2 4833   1.321   6.693   4.967
 1630TIP3   OH2 4834   1.999   7.461   4.787
 1630TIP3    H1 4835   2.016   7.549   4.820
 1630TIP3    H2 4836   2.045   7.458   4.703
 1631TIP3   OH2 4837   0.365   6.477   3.237
 1631TIP3    H1 4838   0.411   6.394   3.255
 1631TIP3    H2 4839   0.310   6.491   3.315
 1632TIP3   OH2 4840   6.044   2.514   3.591
 1632TIP3    H1 4841   5.999   2.435   3.622
 1632TIP3    H2 4842   6.136   2.499   3.612
 1633TIP3   OH2 4843   7.940   4.912   2.174
 1633TIP3    H1 4844   7.965   4.880   2.088
 1633TIP3    H2 4845   7.925   5.005   2.162
 1634TIP3   OH2 4846   5.921   4.967   3.978
 1634TIP3    H1 4847   5.970   5.047   3.994
 1634TIP3    H2 4848   5.842   4.977   4.032
 1635TIP3   OH2 4849   3.827   1.722   6.016
 1635TIP3    H1 4850   3.744   1.678   5.998
 1635TIP3    H2 4851   3.816   1.809   5.978
 1636TIP3   OH2 4852   4.086   5.948   4.291
 1636TIP3    H1 4853   4.051   5.964   4.378
 1636TIP3    H2 4854   4.050   6.018   4.237
 1637TIP3   OH2 4855   5.626   3.808   6.348
 1637TIP3    H1 4856   5.584   3.741   6.402
 1637TIP3    H2 4857   5.557   3.874   6.333
 1638TIP3   OH2 4858   1.137   4.387   2.867
 1638TIP3    H1 4859   1.086   4.467   2.881
 1638TIP3    H2 4860   1.100   4.348   2.788
 1639TIP3   OH2 4861   4.175   4.479   1.996
 1639TIP3    H1 4862   4.230   4.533   2.053
 1639TIP3    H2 4863   4.129   4.542   1.940
 1640TIP3   OH2 4864   4.618   5.494   1.447
 1640TIP3    H1 4865   4.650   5.454   1.366
 1640TIP3    H2 4866   4.697   5.532   1.487
 1641TIP3   OH2 4867   5.121   4.567   1.368
 1641TIP3    H1 4868   5.196   4.509   1.357
 1641TIP3    H2 4869   5.047   4.518   1.333
 1642TIP3   OH2 4870   4.715   0.778   3.160
 1642TIP3    H1 4871   4.750   0.782   3.071
 1642TIP3    H2 4872   4.748   0.695   3.194
 1643TIP3   OH2 4873   6.939   7.395   5.113
 1643TIP3    H1 4874   6.867   7.335   5.129
 1643TIP3    H2 4875   6.917   7.439   5.031
 1644TIP3   OH2 4876   6.669   1.390   0.823
 1644TIP3    H1 4877   6.673   1.336   0.902
 1644TIP3    H2 4878   6.760   1.403   0.798
 1645TIP3   OH2 4879   7.321   0.474   4.246
 1645TIP3    H1 4880   7.332   0.521   4.163
 1645TIP3    H2 4881   7.376   0.522   4.308
 1646TIP3   OH2 4882   6.403   0.200   0.114
 1646TIP3    H1 4883   6.496   0.193   0.090
 1646TIP3    H2 4884   6.359   0.136   0.057
 1647TIP3   OH2 4885   4.747   1.784   3.377
 1647TIP3    H1 4886   4.760   1.696   3.341
 1647TIP3    H2 4887   4.831   1.805   3.418
 1648TIP3   OH2 4888   2.495   1.185   5.462
 1648TIP3    H1 4889   2.521   1.274   5.439
 1648TIP3    H2 4890   2.437   1.158   5.391
 1649TIP3   OH2 4891   0.742   2.435   0.883
 1649TIP3    H1 4892   0.681   2.479   0.942
 1649TIP3    H2 4893   0.810   2.499   0.867
 1650TIP3   OH2 4894   7.339   4.621   1.790
 1650TIP3    H1 4895   7.351   4.529   1.767
 1650TIP3    H2 4896   7.424   4.662   1.774
 1651TIP3   OH2 4897   3.596   1.066   2.902
 1651TIP3    H1 4898   3.615   0.999   2.967
 1651TIP3    H2 4899   3.675   1.120   2.899
 1652TIP3   OH2 4900   3.700   2.488   4.391
 1652TIP3    H1 4901   3.645   2.446   4.325
 1652TIP3    H2 4902   3.727   2.570   4.351
 1653TIP3   OH2 4903   1.138   5.042   4.772
 1653TIP3    H1 4904   1.053   5.010   4.805
 1653TIP3    H2 4905   1.119   5.069   4.681
 1654TIP3   OH2 4906   5.188   7.612   5.070
 1654TIP3    H1 4907   5.162   7.654   4.988
 1654TIP3    H2 4908   5.260   7.553   5.044
 1655TIP3   OH2 4909   5.782   2.766   2.602
 1655TIP3    H1 4910   5.840   2.811   2.540
 1655TIP3    H2 4911   5.696   2.804   2.586
 1656TIP3   OH2 4912   2.133   3.717   6.019
 1656TIP3    H1 4913   2.196   3.671   5.965
 1656TIP3    H2 4914   2.176   3.800   6.041
 1657TIP3   OH2 4915   0.642   4.205   0.132
 1657TIP3    H1 4916   0.574   4.253   0.178
 1657TIP3    H2 4917   0.723   4.226   0.179
 1658TIP3   OH2 4918   7.757   6.711   4.496
 1658TIP3    H1 4919   7.672   6.754   4.487
 1658TIP3    H2 4920   7.804   6.733   4.415
 1659TIP3   OH2 4921   4.686   7.081   3.908
 1659TIP3    H1 4922   4.712   7.029   3.984
 1659TIP3    H2 4923   4.767   7.120   3.877
 1660TIP3   OH2 4924   0.532   5.477   0.833
 1660TIP3    H1 4925   0.511   5.525   0.913
 1660TIP3    H2 4926   0.469   5.509   0.769
 1661TIP3   OH2 4927   0.864   2.170   3.644
 1661TIP3    H1 4928   0.918   2.240   3.607
 1661TIP3    H2 4929   0.925   2.119   3.697
 1662TIP3   OH2 4930   0.921   5.588   4.319
 1662TIP3    H1 4931   0.860   5.646   4.365
 1662TIP3    H2 4932   0.916   5.505   4.367
 1663TIP3   OH2 4933   4.794   6.303   5.386
 1663TIP3    H1 4934   4.841   6.226   5.417
 1663TIP3    H2 4935   4.848   6.377   5.414
 1664TIP3   OH2 4936   7.467   4.486   6.433
 1664TIP3    H1 4937   7.513   4.466   6.515
 1664TIP3    H2 4938   7.420   4.406   6.411
 1665TIP3   OH2 4939   6.919   1.058   3.585
 1665TIP3    H1 4940   6.927   1.152   3.604
 1665TIP3    H2 4941   6.846   1.053   3.523
 1666TIP3   OH2 4942   4.124   3.654   1.422
 1666TIP3    H1 4943   4.076   3.623   1.499
 1666TIP3    H2 4944   4.203   3.696   1.457
 1667TIP3   OH2 4945   1.977   3.336   3.722
 1667TIP3    H1 4946   2.050   3.325   3.783
 1667TIP3    H2 4947   1.997   3.416   3.674
 1668TIP3   OH2 4948   7.514   6.205   6.684
 1668TIP3    H1 4949   7.558   6.234   6.604
 1668TIP3    H2 4950   7.552   6.119   6.701
 1669TIP3   OH2 4951   2.760   0.454   0.840
 1669TIP3    H1 4952   2.814   0.516   0.791
 1669TIP3    H2 4953   2.725   0.506   0.913
 1670TIP3   OH2 4954   3.736   4.520   5.015
 1670TIP3    H1 4955   3.692   4.586   5.070
 1670TIP3    H2 4956   3.666   4.485   4.960
 1671TIP3   OH2 4957   7.485   5.881   3.250
 1671TIP3    H1 4958   7.419   5.935   3.207
 1671TIP3    H2 4959   7.445   5.855   3.333
 1672TIP3   OH2 4960   2.257   4.627   3.232
 1672TIP3    H1 4961   2.331   4.574   3.203
 1672TIP3    H2 4962   2.257   4.703   3.174
 1673TIP3   OH2 4963   7.900   1.940   1.487
 1673TIP3    H1 4964   7.950   1.868   1.447
 1673TIP3    H2 4965   7.943   2.019   1.456
 1674TIP3   OH2 4966   8.188   2.541   2.207
 1674TIP3    H1 4967   8.113   2.600   2.200
 1674TIP3    H2 4968   8.154   2.466   2.256
 1675TIP3   OH2 4969   2.795   0.008   5.093
 1675TIP3    H1 4970   2.813   0.102   5.097
 1675TIP3    H2 4971   2.778  -0.010   5.000
 1676TIP3   OH2 4972   7.036   0.528   3.864
 1676TIP3    H1 4973   6.994   0.558   3.945
 1676TIP3    H2 4974   7.095   0.600   3.839
 1677TIP3   OH2 4975   6.576   4.833   1.615
 1677TIP3    H1 4976   6.503   4.845   1.554
 1677TIP3    H2 4977   6.635   4.906   1.596
 1678TIP3   OH2 4978   1.692   6.598   4.768
 1678TIP3    H1 4979   1.775   6.577   4.726
 1678TIP3    H2 4980   1.654   6.667   4.714
 1679TIP3   OH2 4981   4.621   1.372   4.226
 1679TIP3    H1 4982   4.654   1.297   4.276
 1679TIP3    H2 4983   4.558   1.414   4.285
 1680TIP3   OH2 4984   7.300   0.654   1.987
 1680TIP3    H1 4985   7.389   0.621   1.982
 1680TIP3    H2 4986   7.286   0.672   2.080
 1681TIP3   OH2 4987   6.703   6.353   4.133
 1681TIP3    H1 4988   6.703   6.328   4.226
 1681TIP3    H2 4989   6.731   6.274   4.087
 1682TIP3   OH2 4990   4.093   6.896   6.458
 1682TIP3    H1 4991   4.066   6.916   6.369
 1682TIP3    H2 4992   4.172   6.842   6.448
 1683TIP3   OH2 4993   1.055   5.779   2.300
 1683TIP3    H1 4994   1.002   5.751   2.226
 1683TIP3    H2 4995   1.013   5.859   2.331
 1684TIP3   OH2 4996   7.690   2.061   3.701
 1684TIP3    H1 4997   7.647   2.004   3.765
 1684TIP3    H2 4998   7.632   2.061   3.625
 1685TIP3   OH2 4999   2.252   1.881   3.008
 1685TIP3    H1 5000   2.238   1.964   2.961
 1685TIP3    H2 5001   2.175   1.828   2.987
 1686TIP3   OH2 5002   2.976   3.348   0.315
 1686TIP3    H1 5003   3.048   3.381   0.368
 1686TIP3    H2 5004   2.974   3.254   0.333
 1687TIP3   OH2 5005   4.600   5.276   6.424
 1687TIP3    H1 5006   4.584   5.272   6.330
 1687TIP3    H2 5007   4.655   5.200   6.443
 1688TIP3   OH2 5008   3.039   5.203   2.522
 1688TIP3    H1 5009   2.976   5.144   2.479
 1688TIP3    H2 5010   2.985   5.264   2.571
 1689TIP3   OH2 5011   3.511   2.067   1.213
 1689TIP3    H1 5012   3.532   1.991   1.160
 1689TIP3    H2 5013   3.537   2.043   1.301
 1690TIP3   OH2 5014   7.105   0.431   1.416
 1690TIP3    H1 5015   7.132   0.353   1.466
 1690TIP3    H2 5016   7.011   0.439   1.433
 1691TIP3   OH2 5017   8.076   2.933   0.816
 1691TIP3    H1 5018   7.990   2.945   0.776
 1691TIP3    H2 5019   8.109   2.851   0.779
 1692TIP3   OH2 5020   2.217   0.416   1.182
 1692TIP3    H1 5021   2.220   0.508   1.208
 1692TIP3    H2 5022   2.133   0.385   1.216
 1693TIP3   OH2 5023   5.647   3.606   2.619
 1693TIP3    H1 5024   5.633   3.601   2.713
 1693TIP3    H2 5025   5.601   3.686   2.592
 1694TIP3   OH2 5026   6.327   6.344   4.982
 1694TIP3    H1 5027   6.270   6.267   4.990
 1694TIP3    H2 5028   6.294   6.389   4.903
 1695TIP3   OH2 5029   5.434   5.144   2.266
 1695TIP3    H1 5030   5.422   5.237   2.285
 1695TIP3    H2 5031   5.382   5.129   2.187
 1696TIP3   OH2 5032   3.325   5.962   3.272
 1696TIP3    H1 5033   3.334   5.899   3.343
 1696TIP3    H2 5034   3.248   6.014   3.296
 1697TIP3   OH2 5035   2.751   2.842   1.277
 1697TIP3    H1 5036   2.722   2.752   1.290
 1697TIP3    H2 5037   2.686   2.880   1.217
 1698TIP3   OH2 5038   1.198   1.725   5.423
 1698TIP3    H1 5039   1.112   1.760   5.400
 1698TIP3    H2 5040   1.246   1.721   5.340
 1699TIP3   OH2 5041   2.933   4.641   3.964
 1699TIP3    H1 5042   2.918   4.550   3.991
 1699TIP3    H2 5043   2.928   4.638   3.869
 1700TIP3   OH2 5044   6.131   1.257   0.977
 1700TIP3    H1 5045   6.212   1.303   1.002
 1700TIP3    H2 5046   6.146   1.167   1.004
 1701TIP3   OH2 5047   6.904   6.602   0.650
 1701TIP3    H1 5048   6.838   6.534   0.667
 1701TIP3    H2 5049   6.879   6.638   0.565
 1702TIP3   OH2 5050   5.427   6.578   3.835
 1702TIP3    H1 5051   5.410   6.567   3.741
 1702TIP3    H2 5052   5.520   6.598   3.841
 1703TIP3   OH2 5053   8.279   6.813   0.647
 1703TIP3    H1 5054   8.347   6.856   0.594
 1703TIP3    H2 5055   8.206   6.875   0.644
 1704TIP3   OH2 5056   7.885   6.006   4.250
 1704TIP3    H1 5057   7.954   6.043   4.305
 1704TIP3    H2 5058   7.877   5.915   4.278
 1705TIP3   OH2 5059   8.072   4.780   0.398
 1705TIP3    H1 5060   8.046   4.872   0.403
 1705TIP3    H2 5061   7.990   4.732   0.412
 1706TIP3   OH2 5062   1.682   6.199   2.753
 1706TIP3    H1 5063   1.642   6.283   2.776
 1706TIP3    H2 5064   1.623   6.162   2.687
 1707TIP3   OH2 5065   5.132   2.593   2.498
 1707TIP3    H1 5066   5.224   2.576   2.519
 1707TIP3    H2 5067   5.095   2.631   2.578
 1708TIP3   OH2 5068   1.960   7.629   2.068
 1708TIP3    H1 5069   1.897   7.670   2.127
 1708TIP3    H2 5070   1.987   7.549   2.115
 1709TIP3   OH2 5071   7.348   0.603   5.871
 1709TIP3    H1 5072   7.437   0.597   5.836
 1709TIP3    H2 5073   7.322   0.513   5.887
 1710TIP3   OH2 5074   6.076   7.653   4.075
 1710TIP3    H1 5075   6.120   7.709   4.010
 1710TIP3    H2 5076   6.145   7.598   4.111
 1711TIP3   OH2 5077   1.355   1.898   4.959
 1711TIP3    H1 5078   1.272   1.943   4.973
 1711TIP3    H2 5079   1.347   1.859   4.871
 1712TIP3   OH2 5080   1.530   2.526   3.714
 1712TIP3    H1 5081   1.614   2.559   3.684
 1712TIP3    H2 5082   1.465   2.570   3.659
 1713TIP3   OH2 5083   2.254   4.855   5.890
 1713TIP3    H1 5084   2.159   4.859   5.903
 1713TIP3    H2 5085   2.289   4.835   5.977
 1714TIP3   OH2 5086   5.312   2.830   6.515
 1714TIP3    H1 5087   5.354   2.844   6.600
 1714TIP3    H2 5088   5.312   2.916   6.473
 1715TIP3   OH2 5089   0.924   3.154   0.995
 1715TIP3    H1 5090   1.014   3.140   0.967
 1715TIP3    H2 5091   0.908   3.085   1.059
 1716TIP3   OH2 5092   0.863   4.351   3.036
 1716TIP3    H1 5093   0.794   4.346   3.103
 1716TIP3    H2 5094   0.934   4.398   3.078
 1717TIP3   OH2 5095   3.195   4.888   2.054
 1717TIP3    H1 5096   3.282   4.923   2.071
 1717TIP3    H2 5097   3.155   4.948   1.992
 1718TIP3   OH2 5098   4.879   4.663   3.006
 1718TIP3    H1 5099   4.940   4.665   2.932
 1718TIP3    H2 5100   4.936   4.648   3.082
 1719TIP3   OH2 5101   1.680   3.452   5.962
 1719TIP3    H1 5102   1.742   3.510   5.919
 1719TIP3    H2 5103   1.734   3.389   6.009
 1720TIP3   OH2 5104   0.683   5.344   4.100
 1720TIP3    H1 5105   0.670   5.268   4.157
 1720TIP3    H2 5106   0.597   5.362   4.063
 1721TIP3   OH2 5107   8.001   2.853   0.291
 1721TIP3    H1 5108   8.016   2.778   0.232
 1721TIP3    H2 5109   8.089   2.884   0.312
 1722TIP3   OH2 5110   0.392   6.569   5.369
 1722TIP3    H1 5111   0.433   6.653   5.391
 1722TIP3    H2 5112   0.311   6.593   5.324
 1723TIP3   OH2 5113   2.851   2.242   4.951
 1723TIP3    H1 5114   2.891   2.315   4.904
 1723TIP3    H2 5115   2.759   2.244   4.924
 1724TIP3   OH2 5116   0.621   1.772   4.445
 1724TIP3    H1 5117   0.591   1.683   4.462
 1724TIP3    H2 5118   0.706   1.761   4.402
 1725TIP3   OH2 5119   1.445   4.821   4.114
 1725TIP3    H1 5120   1.408   4.879   4.048
 1725TIP3    H2 5121   1.539   4.820   4.095
 1726TIP3   OH2 5122   1.657   5.498   3.170
 1726TIP3    H1 5123   1.710   5.516   3.092
 1726TIP3    H2 5124   1.626   5.584   3.197
 1727TIP3   OH2 5125   6.520   4.404   2.766
 1727TIP3    H1 5126   6.433   4.385   2.729
 1727TIP3    H2 5127   6.503   4.465   2.837
 1728TIP3   OH2 5128   0.281   3.764   3.052
 1728TIP3    H1 5129   0.190   3.737   3.065
 1728TIP3    H2 5130   0.298   3.826   3.123
 1729TIP3   OH2 5131   6.805   3.415   6.619
 1729TIP3    H1 5132   6.840   3.490   6.667
 1729TIP3    H2 5133   6.829   3.339   6.672
 1730TIP3   OH2 5134   0.945   7.610   4.663
 1730TIP3    H1 5135   0.976   7.523   4.687
 1730TIP3    H2 5136   0.871   7.594   4.604
 1731TIP3   OH2 5137   7.147   4.420   4.180
 1731TIP3    H1 5138   7.160   4.350   4.245
 1731TIP3    H2 5139   7.215   4.404   4.115
 1732TIP3   OH2 5140   1.254   4.706   3.454
 1732TIP3    H1 5141   1.288   4.708   3.365
 1732TIP3    H2 5142   1.159   4.709   3.443
 1733TIP3   OH2 5143   3.745   4.069   0.244
 1733TIP3    H1 5144   3.685   4.132   0.206
 1733TIP3    H2 5145   3.726   4.072   0.338
 1734TIP3   OH2 5146   2.483   3.504   2.732
 1734TIP3    H1 5147   2.561   3.552   2.706
 1734TIP3    H2 5148   2.439   3.561   2.795
 1735TIP3   OH2 5149   0.875   3.718   4.053
 1735TIP3    H1 5150   0.831   3.774   4.117
 1735TIP3    H2 5151   0.965   3.751   4.049
 1736TIP3   OH2 5152   3.557   5.599   5.739
 1736TIP3    H1 5153   3.566   5.688   5.775
 1736TIP3    H2 5154   3.541   5.545   5.816
 1737TIP3   OH2 5155   7.027   3.443   5.202
 1737TIP3    H1 5156   6.961   3.484   5.147
 1737TIP3    H2 5157   7.093   3.410   5.141
 1738TIP3   OH2 5158   6.551   0.103   0.436
 1738TIP3    H1 5159   6.628   0.092   0.490
 1738TIP3    H2 5160   6.584   0.098   0.346
 1739TIP3   OH2 5161   7.929   1.160   4.351
 1739TIP3    H1 5162   7.919   1.246   4.312
 1739TIP3    H2 5163   7.854   1.151   4.409
 1740TIP3   OH2 5164   2.646   2.873   3.238
 1740TIP3    H1 5165   2.683   2.953   3.201
 1740TIP3    H2 5166   2.658   2.807   3.170
 1741TIP3   OH2 5167   1.306   4.200   1.594
 1741TIP3    H1 5168   1.226   4.238   1.559
 1741TIP3    H2 5169   1.297   4.207   1.689
 1742TIP3   OH2 5170   1.371   0.887   3.520
 1742TIP3    H1 5171   1.287   0.847   3.500
 1742TIP3    H2 5172   1.411   0.904   3.435
 1743TIP3   OH2 5173   7.313   5.891   5.413
 1743TIP3    H1 5174   7.296   5.976   5.372
 1743TIP3    H2 5175   7.231   5.842   5.403
 1744TIP3   OH2 5176   5.209   5.989   1.620
 1744TIP3    H1 5177   5.214   6.072   1.668
 1744TIP3    H2 5178   5.212   6.015   1.528
 1745TIP3   OH2 5179   4.424   5.553   0.462
 1745TIP3    H1 5180   4.454   5.596   0.381
 1745TIP3    H2 5181   4.482   5.589   0.530
 1746TIP3   OH2 5182   5.919   7.175   6.454
 1746TIP3    H1 5183   5.863   7.117   6.506
 1746TIP3    H2 5184   5.995   7.192   6.511
 1747TIP3   OH2 5185   5.868   1.936   0.587
 1747TIP3    H1 5186   5.946   1.975   0.546
 1747TIP3    H2 5187   5.895   1.917   0.677
 1748TIP3   OH2 5188   5.846   0.492   3.852
 1748TIP3    H1 5189   5.890   0.546   3.786
 1748TIP3    H2 5190   5.847   0.404   3.816
 1749TIP3   OH2 5191   7.709   1.146   3.820
 1749TIP3    H1 5192   7.662   1.087   3.760
 1749TIP3    H2 5193   7.799   1.115   3.818
 1750TIP3   OH2 5194   3.752   7.810   4.411
 1750TIP3    H1 5195   3.677   7.753   4.430
 1750TIP3    H2 5196   3.827   7.766   4.452
 1751TIP3   OH2 5197   5.511   1.909   2.790
 1751TIP3    H1 5198   5.524   2.001   2.767
 1751TIP3    H2 5199   5.527   1.861   2.708
 1752TIP3   OH2 5200   8.180   6.809   0.023
 1752TIP3    H1 5201   8.259   6.813   0.076
 1752TIP3    H2 5202   8.137   6.893   0.038
 1753TIP3   OH2 5203   6.763   5.750   3.255
 1753TIP3    H1 5204   6.791   5.678   3.199
 1753TIP3    H2 5205   6.832   5.816   3.246
 1754TIP3   OH2 5206   0.188   0.578   0.753
 1754TIP3    H1 5207   0.230   0.659   0.782
 1754TIP3    H2 5208   0.125   0.557   0.822
 1755TIP3   OH2 5209   2.200   6.853   5.660
 1755TIP3    H1 5210   2.217   6.937   5.703
 1755TIP3    H2 5211   2.114   6.864   5.620
 1756TIP3   OH2 5212   6.670   3.515   3.888
 1756TIP3    H1 5213   6.720   3.590   3.858
 1756TIP3    H2 5214   6.593   3.513   3.831
 1757TIP3   OH2 5215   4.306   6.706   3.439
 1757TIP3    H1 5216   4.327   6.799   3.430
 1757TIP3    H2 5217   4.216   6.698   3.409
 1758TIP3   OH2 5218   5.092   1.512   5.601
 1758TIP3    H1 5219   5.052   1.598   5.618
 1758TIP3    H2 5220   5.118   1.515   5.509
 1759TIP3   OH2 5221   5.575   2.885   0.603
 1759TIP3    H1 5222   5.581   2.810   0.662
 1759TIP3    H2 5223   5.664   2.920   0.599
 1760TIP3   OH2 5224   2.030   1.349   1.863
 1760TIP3    H1 5225   2.038   1.256   1.881
 1760TIP3    H2 5226   1.943   1.360   1.825
 1761TIP3   OH2 5227   5.869   4.244   1.777
 1761TIP3    H1 5228   5.940   4.305   1.796
 1761TIP3    H2 5229   5.898   4.196   1.699
 1762TIP3   OH2 5230   1.992   4.293   3.864
 1762TIP3    H1 5231   2.012   4.367   3.920
 1762TIP3    H2 5232   1.909   4.259   3.898
 1763TIP3   OH2 5233   3.050   6.885   2.684
 1763TIP3    H1 5234   3.037   6.792   2.670
 1763TIP3    H2 5235   2.962   6.920   2.697
 1764TIP3   OH2 5236   0.054   2.931   1.665
 1764TIP3    H1 5237   0.070   2.859   1.604
 1764TIP3    H2 5238  -0.012   2.985   1.621
 1765TIP3   OH2 5239   2.914   3.601   2.147
 1765TIP3    H1 5240   2.972   3.613   2.072
 1765TIP3    H2 5241   2.871   3.517   2.131
 1766TIP3   OH2 5242   5.951   0.858   4.244
 1766TIP3    H1 5243   5.917   0.941   4.277
 1766TIP3    H2 5244   5.873   0.810   4.216
 1767TIP3   OH2 5245   0.207   6.823   4.218
 1767TIP3    H1 5246   0.252   6.751   4.264
 1767TIP3    H2 5247   0.193   6.790   4.130
 1768TIP3   OH2 5248   0.504   6.758   1.241
 1768TIP3    H1 5249   0.597   6.762   1.262
 1768TIP3    H2 5250   0.476   6.672   1.272
 1769TIP3   OH2 5251   2.618   7.603   5.607
 1769TIP3    H1 5252   2.577   7.609   5.521
 1769TIP3    H2 5253   2.614   7.510   5.630
 1770TIP3   OH2 5254   5.826   2.995   0.544
 1770TIP3    H1 5255   5.870   3.023   0.464
 1770TIP3    H2 5256   5.872   3.042   0.614
 1771TIP3   OH2 5257   5.590   3.326   2.585
 1771TIP3    H1 5258   5.580   3.309   2.679
 1771TIP3    H2 5259   5.594   3.421   2.578
 1772TIP3   OH2 5260   1.351   0.944   6.257
 1772TIP3    H1 5261   1.314   1.029   6.232
 1772TIP3    H2 5262   1.363   0.898   6.174
 1773TIP3   OH2 5263   5.316   5.190   6.635
 1773TIP3    H1 5264   5.303   5.154   6.723
 1773TIP3    H2 5265   5.375   5.264   6.648
 1774TIP3   OH2 5266   8.129   6.041   1.640
 1774TIP3    H1 5267   8.178   6.075   1.714
 1774TIP3    H2 5268   8.196   6.018   1.575
 1775TIP3   OH2 5269   0.414   7.156   2.661
 1775TIP3    H1 5270   0.441   7.120   2.746
 1775TIP3    H2 5271   0.406   7.080   2.604
 1776TIP3   OH2 5272   6.872   4.131   1.578
 1776TIP3    H1 5273   6.967   4.138   1.587
 1776TIP3    H2 5274   6.847   4.212   1.533
 1777TIP3   OH2 5275   3.513   1.620   2.674
 1777TIP3    H1 5276   3.474   1.706   2.690
 1777TIP3    H2 5277   3.547   1.625   2.585
 1778TIP3   OH2 5278   1.519   6.974   6.118
 1778TIP3    H1 5279   1.499   7.041   6.184
 1778TIP3    H2 5280   1.435   6.937   6.095
 1779TIP3   OH2 5281   6.816   6.453   5.021
 1779TIP3    H1 5282   6.831   6.424   5.111
 1779TIP3    H2 5283   6.723   6.437   5.006
 1780TIP3   OH2 5284   1.784   0.492   6.136
 1780TIP3    H1 5285   1.720   0.483   6.065
 1780TIP3    H2 5286   1.843   0.561   6.105
 1781TIP3   OH2 5287   3.193   6.406   4.260
 1781TIP3    H1 5288   3.141   6.446   4.191
 1781TIP3    H2 5289   3.248   6.477   4.294
 1782TIP3   OH2 5290   8.209   3.391   6.695
 1782TIP3    H1 5291   8.171   3.305   6.681
 1782TIP3    H2 5292   8.303   3.378   6.685
 1783TIP3   OH2 5293   3.585   7.657   4.568
 1783TIP3    H1 5294   3.511   7.599   4.549
 1783TIP3    H2 5295   3.569   7.686   4.658
 1784TIP3   OH2 5296   2.478   4.336   3.685
 1784TIP3    H1 5297   2.566   4.360   3.711
 1784TIP3    H2 5298   2.459   4.391   3.609
 1785TIP3   OH2 5299   4.990   3.046   1.125
 1785TIP3    H1 5300   4.942   3.003   1.054
 1785TIP3    H2 5301   4.930   3.113   1.158
 1786TIP3   OH2 5302   2.493   7.169   6.080
 1786TIP3    H1 5303   2.564   7.197   6.023
 1786TIP3    H2 5304   2.419   7.224   6.054
 1787TIP3   OH2 5305   5.942   2.669   3.399
 1787TIP3    H1 5306   5.996   2.644   3.474
 1787TIP3    H2 5307   5.980   2.751   3.368
 1788TIP3   OH2 5308   7.104   4.257   3.072
 1788TIP3    H1 5309   7.141   4.169   3.080
 1788TIP3    H2 5310   7.167   4.314   3.116
 1789TIP3   OH2 5311   6.498   2.786   3.998
 1789TIP3    H1 5312   6.482   2.763   4.090
 1789TIP3    H2 5313   6.411   2.789   3.958
 1790TIP3   OH2 5314   6.389   3.768   1.326
 1790TIP3    H1 5315   6.317   3.719   1.365
 1790TIP3    H2 5316   6.347   3.845   1.287
 1791TIP3   OH2 5317   4.259   6.078   3.643
 1791TIP3    H1 5318   4.299   5.993   3.625
 1791TIP3    H2 5319   4.193   6.089   3.575
 1792TIP3   OH2 5320   3.148   3.438   4.852
 1792TIP3    H1 5321   3.190   3.364   4.896
 1792TIP3    H2 5322   3.065   3.404   4.819
 1793TIP3   OH2 5323   5.069   6.970   6.258
 1793TIP3    H1 5324   5.050   6.897   6.317
 1793TIP3    H2 5325   5.128   6.933   6.192
 1794TIP3   OH2 5326   4.891   0.166   2.881
 1794TIP3    H1 5327   4.985   0.183   2.873
 1794TIP3    H2 5328   4.851   0.253   2.879
 1795TIP3   OH2 5329   7.916   7.208   1.190
 1795TIP3    H1 5330   7.948   7.297   1.206
 1795TIP3    H2 5331   7.876   7.212   1.103
 1796TIP3   OH2 5332   5.117   6.683   4.794
 1796TIP3    H1 5333   5.159   6.648   4.872
 1796TIP3    H2 5334   5.071   6.609   4.755
 1797TIP3   OH2 5335   2.469   0.844   1.238
 1797TIP3    H1 5336   2.511   0.930   1.247
 1797TIP3    H2 5337   2.510   0.806   1.160
 1798TIP3   OH2 5338   2.770   2.009   1.672
 1798TIP3    H1 5339   2.809   1.922   1.665
 1798TIP3    H2 5340   2.679   1.997   1.645
 1799TIP3   OH2 5341   6.120   1.894   5.693
 1799TIP3    H1 5342   6.065   1.967   5.665
 1799TIP3    H2 5343   6.074   1.856   5.768
 1800TIP3   OH2 5344   5.114   6.643   2.449
 1800TIP3    H1 5345   5.040   6.681   2.401
 1800TIP3    H2 5346   5.140   6.567   2.397
 1801TIP3   OH2 5347   4.022   1.900   6.106
 1801TIP3    H1 5348   3.966   1.827   6.079
 1801TIP3    H2 5349   3.988   1.975   6.056
 1802TIP3   OH2 5350   8.000   7.528   1.688
 1802TIP3    H1 5351   7.977   7.446   1.730
 1802TIP3    H2 5352   8.079   7.557   1.732
 1803TIP3   OH2 5353   4.350   1.090   3.964
 1803TIP3    H1 5354   4.323   1.107   4.055
 1803TIP3    H2 5355   4.370   1.177   3.929
 1804TIP3   OH2 5356   3.823   3.320   2.009
 1804TIP3    H1 5357   3.785   3.242   1.969
 1804TIP3    H2 5358   3.917   3.304   2.007
 1805TIP3   OH2 5359   4.391   1.348   3.850
 1805TIP3    H1 5360   4.379   1.405   3.774
 1805TIP3    H2 5361   4.384   1.407   3.925
 1806TIP3   OH2 5362   8.190   5.043   3.988
 1806TIP3    H1 5363   8.159   5.064   3.900
 1806TIP3    H2 5364   8.126   5.085   4.047
 1807TIP3   OH2 5365   6.346   5.328   5.639
 1807TIP3    H1 5366   6.350   5.334   5.544
 1807TIP3    H2 5367   6.418   5.270   5.663
 1808TIP3   OH2 5368   0.099   5.336   5.855
 1808TIP3    H1 5369   0.170   5.353   5.793
 1808TIP3    H2 5370   0.104   5.407   5.918
 1809TIP3   OH2 5371   5.224   7.823   4.412
 1809TIP3    H1 5372   5.228   7.781   4.326
 1809TIP3    H2 5373   5.133   7.811   4.440
 1810TIP3   OH2 5374   6.099   4.104   6.724
 1810TIP3    H1 5375   6.116   4.016   6.690
 1810TIP3    H2 5376   6.051   4.148   6.654
 1811TIP3   OH2 5377   3.440   4.623   4.750
 1811TIP3    H1 5378   3.483   4.709   4.752
 1811TIP3    H2 5379   3.420   4.608   4.658
 1812TIP3   OH2 5380   2.862   1.918   2.573
 1812TIP3    H1 5381   2.957   1.909   2.577
 1812TIP3    H2 5382   2.834   1.918   2.664
 1813TIP3   OH2 5383   0.894   1.463   5.526
 1813TIP3    H1 5384   0.839   1.412   5.467
 1813TIP3    H2 5385   0.983   1.452   5.491
 1814TIP3   OH2 5386   5.669   4.018   4.832
 1814TIP3    H1 5387   5.656   4.009   4.927
 1814TIP3    H2 5388   5.651   4.111   4.814
 1815TIP3   OH2 5389   5.920   6.220   5.503
 1815TIP3    H1 5390   5.959   6.145   5.547
 1815TIP3    H2 5391   5.961   6.222   5.417
 1816TIP3   OH2 5392   0.132   3.034   2.736
 1816TIP3    H1 5393   0.106   3.124   2.753
 1816TIP3    H2 5394   0.132   2.992   2.822
 1817TIP3   OH2 5395   4.027   0.416   4.621
 1817TIP3    H1 5396   3.994   0.364   4.695
 1817TIP3    H2 5397   3.989   0.374   4.544
 1818TIP3   OH2 5398   7.384   6.682   4.227
 1818TIP3    H1 5399   7.469   6.641   4.209
 1818TIP3    H2 5400   7.334   6.667   4.147
 1819TIP3   OH2 5401   2.762   0.045   4.282
 1819TIP3    H1 5402   2.810  -0.035   4.266
 1819TIP3    H2 5403   2.753   0.086   4.196
 1820TIP3   OH2 5404   7.840   5.986   3.979
 1820TIP3    H1 5405   7.886   5.905   3.957
 1820TIP3    H2 5406   7.846   5.992   4.074
 1821TIP3   OH2 5407   7.788   1.439   4.225
 1821TIP3    H1 5408   7.770   1.458   4.317
 1821TIP3    H2 5409   7.868   1.489   4.206
 1822TIP3   OH2 5410   3.874   2.696   0.914
 1822TIP3    H1 5411   3.815   2.731   0.847
 1822TIP3    H2 5412   3.908   2.615   0.877
 1823TIP3   OH2 5413   4.804   1.398   4.645
 1823TIP3    H1 5414   4.859   1.406   4.722
 1823TIP3    H2 5415   4.715   1.386   4.680
 1824TIP3   OH2 5416   0.059   0.118   0.808
 1824TIP3    H1 5417   0.003   0.084   0.738
 1824TIP3    H2 5418   0.019   0.086   0.889
 1825TIP3   OH2 5419   0.859   7.725   3.688
 1825TIP3    H1 5420   0.779   7.774   3.707
 1825TIP3    H2 5421   0.882   7.751   3.599
 1826TIP3   OH2 5422   7.869   0.162   2.280
 1826TIP3    H1 5423   7.939   0.223   2.261
 1826TIP3    H2 5424   7.902   0.109   2.352
 1827TIP3   OH2 5425   4.498   5.329   5.942
 1827TIP3    H1 5426   4.500   5.389   5.867
 1827TIP3    H2 5427   4.405   5.322   5.964
 1828TIP3   OH2 5428   4.958   7.272   2.517
 1828TIP3    H1 5429   4.893   7.213   2.557
 1828TIP3    H2 5430   5.013   7.214   2.464
 1829TIP3   OH2 5431   5.823   6.766   0.112
 1829TIP3    H1 5432   5.871   6.722   0.042
 1829TIP3    H2 5433   5.866   6.852   0.120
 1830TIP3   OH2 5434   3.286   3.668   0.114
 1830TIP3    H1 5435   3.269   3.760   0.134
 1830TIP3    H2 5436   3.346   3.671   0.039
 1831TIP3   OH2 5437   0.353   7.201   4.572
 1831TIP3    H1 5438   0.374   7.264   4.503
 1831TIP3    H2 5439   0.268   7.165   4.547
 1832TIP3   OH2 5440   4.774   4.503   0.969
 1832TIP3    H1 5441   4.736   4.417   0.952
 1832TIP3    H2 5442   4.728   4.562   0.909
 1833TIP3   OH2 5443   0.301   1.610   0.955
 1833TIP3    H1 5444   0.297   1.527   0.907
 1833TIP3    H2 5445   0.219   1.613   1.004
 1834TIP3   OH2 5446   1.791   2.512   0.791
 1834TIP3    H1 5447   1.825   2.423   0.782
 1834TIP3    H2 5448   1.822   2.541   0.876
 1835TIP3   OH2 5449   2.263   7.683   6.468
 1835TIP3    H1 5450   2.277   7.770   6.431
 1835TIP3    H2 5451   2.224   7.700   6.554
 1836TIP3   OH2 5452   6.438   4.141   1.508
 1836TIP3    H1 5453   6.408   4.227   1.540
 1836TIP3    H2 5454   6.370   4.114   1.446
 1837TIP3   OH2 5455   8.287   6.539   3.283
 1837TIP3    H1 5456   8.230   6.469   3.250
 1837TIP3    H2 5457   8.285   6.606   3.214
 1838TIP3   OH2 5458   5.850   2.845   4.104
 1838TIP3    H1 5459   5.923   2.904   4.124
 1838TIP3    H2 5460   5.796   2.893   4.041
 1839TIP3   OH2 5461   2.414   2.847   0.797
 1839TIP3    H1 5462   2.506   2.850   0.773
 1839TIP3    H2 5463   2.376   2.926   0.759
 1840TIP3   OH2 5464   0.638   5.549   1.565
 1840TIP3    H1 5465   0.573   5.609   1.530
 1840TIP3    H2 5466   0.664   5.495   1.490
 1841TIP3   OH2 5467   6.976   4.138   1.316
 1841TIP3    H1 5468   6.881   4.128   1.321
 1841TIP3    H2 5469   6.995   4.131   1.222
 1842TIP3   OH2 5470   0.467   4.414   5.553
 1842TIP3    H1 5471   0.479   4.356   5.478
 1842TIP3    H2 5472   0.394   4.470   5.528
 1843TIP3   OH2 5473   4.846   4.465   2.542
 1843TIP3    H1 5474   4.823   4.444   2.452
 1843TIP3    H2 5475   4.942   4.464   2.544
 1844TIP3   OH2 5476   0.990   4.787   3.409
 1844TIP3    H1 5477   1.035   4.867   3.436
 1844TIP3    H2 5478   0.935   4.764   3.484
 1845TIP3   OH2 5479   0.263   1.863   0.646
 1845TIP3    H1 5480   0.235   1.849   0.556
 1845TIP3    H2 5481   0.203   1.811   0.699
 1846TIP3   OH2 5482   0.015   2.341   5.631
 1846TIP3    H1 5483   0.040   2.249   5.627
 1846TIP3    H2 5484   0.095   2.389   5.609
 1847TIP3   OH2 5485   5.537   4.259   1.595
 1847TIP3    H1 5486   5.610   4.320   1.588
 1847TIP3    H2 5487   5.494   4.263   1.510
 1848TIP3   OH2 5488   3.341   1.523   5.692
 1848TIP3    H1 5489   3.347   1.566   5.777
 1848TIP3    H2 5490   3.265   1.465   5.699
 1849TIP3   OH2 5491   4.031   6.447   6.158
 1849TIP3    H1 5492   4.057   6.403   6.077
 1849TIP3    H2 5493   4.016   6.538   6.132
 1850TIP3   OH2 5494   6.794   1.680   3.491
 1850TIP3    H1 5495   6.754   1.690   3.404
 1850TIP3    H2 5496   6.774   1.590   3.516
 1851TIP3   OH2 5497   1.276   4.782   2.731
 1851TIP3    H1 5498   1.248   4.852   2.789
 1851TIP3    H2 5499   1.363   4.809   2.700
 1852TIP3   OH2 5500   1.366   3.867   1.732
 1852TIP3    H1 5501   1.431   3.911   1.786
 1852TIP3    H2 5502   1.411   3.849   1.650
 1853TIP3   OH2 5503   6.302   5.749   3.330
 1853TIP3    H1 5504   6.226   5.803   3.310
 1853TIP3    H2 5505   6.362   5.763   3.256
 1854TIP3   OH2 5506   0.479   2.054   3.589
 1854TIP3    H1 5507   0.481   1.961   3.566
 1854TIP3    H2 5508   0.460   2.055   3.683
 1855TIP3   OH2 5509   2.063   4.296   1.030
 1855TIP3    H1 5510   2.092   4.356   1.098
 1855TIP3    H2 5511   2.135   4.295   0.967
 1856TIP3   OH2 5512   0.116   4.481   1.617
 1856TIP3    H1 5513   0.072   4.532   1.549
 1856TIP3    H2 5514   0.209   4.503   1.607
 1857TIP3   OH2 5515   1.300   4.967   0.761
 1857TIP3    H1 5516   1.356   5.016   0.700
 1857TIP3    H2 5517   1.277   4.888   0.713
 1858TIP3   OH2 5518   5.957   7.459   1.078
 1858TIP3    H1 5519   5.862   7.455   1.089
 1858TIP3    H2 5520   5.972   7.536   1.023
 1859TIP3   OH2 5521   2.643   0.492   6.690
 1859TIP3    H1 5522   2.613   0.580   6.669
 1859TIP3    H2 5523   2.620   0.480   6.783
 1860TIP3   OH2 5524   4.265   5.572   6.232
 1860TIP3    H1 5525   4.253   5.625   6.311
 1860TIP3    H2 5526   4.349   5.528   6.244
 1861TIP3   OH2 5527   5.218   4.180   4.313
 1861TIP3    H1 5528   5.256   4.236   4.245
 1861TIP3    H2 5529   5.250   4.216   4.395
 1862TIP3   OH2 5530   7.659   6.977   5.504
 1862TIP3    H1 5531   7.653   6.953   5.597
 1862TIP3    H2 5532   7.698   6.900   5.462
 1863TIP3   OH2 5533   5.947   7.016   0.560
 1863TIP3    H1 5534   5.955   7.024   0.655
 1863TIP3    H2 5535   5.976   6.927   0.541
 1864TIP3   OH2 5536   6.535   5.154   1.742
 1864TIP3    H1 5537   6.573   5.193   1.663
 1864TIP3    H2 5538   6.444   5.183   1.742
 1865TIP3   OH2 5539   3.260   6.171   1.214
 1865TIP3    H1 5540   3.303   6.195   1.296
 1865TIP3    H2 5541   3.233   6.080   1.226
 1866TIP3   OH2 5542   4.128   5.451   0.428
 1866TIP3    H1 5543   4.133   5.363   0.393
 1866TIP3    H2 5544   4.220   5.479   0.437
 1867TIP3   OH2 5545   2.233   7.150   3.357
 1867TIP3    H1 5546   2.203   7.231   3.316
 1867TIP3    H2 5547   2.158   7.091   3.351
 1868TIP3   OH2 5548   7.411   4.894   4.612
 1868TIP3    H1 5549   7.355   4.850   4.548
 1868TIP3    H2 5550   7.392   4.987   4.601
 1869TIP3   OH2 5551   4.085   3.785   6.444
 1869TIP3    H1 5552   4.052   3.734   6.370
 1869TIP3    H2 5553   4.145   3.725   6.489
 1870TIP3   OH2 5554   0.800   0.879   3.135
 1870TIP3    H1 5555   0.891   0.899   3.111
 1870TIP3    H2 5556   0.794   0.783   3.125
 1871TIP3   OH2 5557   2.518   3.131   6.197
 1871TIP3    H1 5558   2.450   3.115   6.262
 1871TIP3    H2 5559   2.474   3.181   6.128
 1872TIP3   OH2 5560   0.554   0.123   1.731
 1872TIP3    H1 5561   0.611   0.197   1.709
 1872TIP3    H2 5562   0.594   0.048   1.687
 1873TIP3   OH2 5563   2.193   6.087   1.108
 1873TIP3    H1 5564   2.247   6.073   1.030
 1873TIP3    H2 5565   2.251   6.064   1.181
 1874TIP3   OH2 5566   4.601   0.531   1.717
 1874TIP3    H1 5567   4.511   0.528   1.687
 1874TIP3    H2 5568   4.618   0.624   1.732
 1875TIP3   OH2 5569   3.510   2.424   5.523
 1875TIP3    H1 5570   3.484   2.331   5.528
 1875TIP3    H2 5571   3.565   2.437   5.600
 1876TIP3   OH2 5572   0.574   5.054   1.239
 1876TIP3    H1 5573   0.633   4.985   1.268
 1876TIP3    H2 5574   0.571   5.115   1.312
 1877TIP3   OH2 5575   0.175   0.612   0.314
 1877TIP3    H1 5576   0.223   0.566   0.383
 1877TIP3    H2 5577   0.164   0.701   0.348
 1878TIP3   OH2 5578   6.580   1.278   2.155
 1878TIP3    H1 5579   6.485   1.272   2.151
 1878TIP3    H2 5580   6.598   1.372   2.155
 1879TIP3   OH2 5581   6.522   3.299   5.503
 1879TIP3    H1 5582   6.508   3.394   5.512
 1879TIP3    H2 5583   6.571   3.275   5.582
 1880TIP3   OH2 5584   4.806   6.870   3.487
 1880TIP3    H1 5585   4.758   6.953   3.483
 1880TIP3    H2 5586   4.756   6.811   3.429
 1881TIP3   OH2 5587   4.595   4.213   1.308
 1881TIP3    H1 5588   4.662   4.259   1.358
 1881TIP3    H2 5589   4.626   4.123   1.303
 1882TIP3   OH2 5590   4.224   1.203   4.219
 1882TIP3    H1 5591   4.154   1.251   4.174
 1882TIP3    H2 5592   4.177   1.137   4.271
 1883TIP3   OH2 5593   3.179   0.339   2.669
 1883TIP3    H1 5594   3.253   0.283   2.647
 1883TIP3    H2 5595   3.104   0.279   2.670
 1884TIP3   OH2 5596   2.893   7.159   2.642
 1884TIP3    H1 5597   2.825   7.165   2.709
 1884TIP3    H2 5598   2.973   7.139   2.690
 1885TIP3   OH2 5599   6.323   5.441   0.169
 1885TIP3    H1 5600   6.383   5.440   0.094
 1885TIP3    H2 5601   6.326   5.352   0.204
 1886TIP3   OH2 5602   5.218   2.880   4.655
 1886TIP3    H1 5603   5.205   2.907   4.746
 1886TIP3    H2 5604   5.296   2.928   4.627
 1887TIP3   OH2 5605   0.146   1.301   3.944
 1887TIP3    H1 5606   0.183   1.365   4.005
 1887TIP3    H2 5607   0.061   1.337   3.920
 1888TIP3   OH2 5608   2.662   7.527   3.898
 1888TIP3    H1 5609   2.627   7.568   3.977
 1888TIP3    H2 5610   2.694   7.442   3.927
 1889TIP3   OH2 5611   4.294   5.001   6.702
 1889TIP3    H1 5612   4.346   4.970   6.627
 1889TIP3    H2 5613   4.345   4.975   6.779
 1890TIP3   OH2 5614   2.165   5.204   5.537
 1890TIP3    H1 5615   2.260   5.200   5.535
 1890TIP3    H2 5616   2.141   5.192   5.629
 1891TIP3   OH2 5617   4.360   3.537   2.963
 1891TIP3    H1 5618   4.410   3.609   3.001
 1891TIP3    H2 5619   4.377   3.543   2.869
 1892TIP3   OH2 5620   8.156   7.491   6.220
 1892TIP3    H1 5621   8.236   7.453   6.256
 1892TIP3    H2 5622   8.126   7.551   6.287
 1893TIP3   OH2 5623   6.792   6.540   6.717
 1893TIP3    H1 5624   6.754   6.481   6.782
 1893TIP3    H2 5625   6.863   6.584   6.765
 1894TIP3   OH2 5626   5.732   2.381   2.145
 1894TIP3    H1 5627   5.700   2.315   2.207
 1894TIP3    H2 5628   5.653   2.428   2.119
 1895TIP3   OH2 5629   1.700   1.377   6.125
 1895TIP3    H1 5630   1.775   1.317   6.128
 1895TIP3    H2 5631   1.703   1.414   6.037
 1896TIP3   OH2 5632   7.879   2.111   0.704
 1896TIP3    H1 5633   7.807   2.103   0.640
 1896TIP3    H2 5634   7.854   2.052   0.775
 1897TIP3   OH2 5635   3.952   0.366   0.291
 1897TIP3    H1 5636   3.862   0.357   0.321
 1897TIP3    H2 5637   3.945   0.397   0.201
 1898TIP3   OH2 5638   4.378   5.649   1.491
 1898TIP3    H1 5639   4.305   5.590   1.471
 1898TIP3    H2 5640   4.455   5.605   1.458
 1899TIP3   OH2 5641   7.207   6.426   2.871
 1899TIP3    H1 5642   7.189   6.442   2.964
 1899TIP3    H2 5643   7.271   6.493   2.848
 1900TIP3   OH2 5644   1.401   4.223   2.556
 1900TIP3    H1 5645   1.418   4.290   2.622
 1900TIP3    H2 5646   1.340   4.162   2.597
 1901TIP3   OH2 5647   7.515   3.761   6.062
 1901TIP3    H1 5648   7.469   3.836   6.101
 1901TIP3    H2 5649   7.445   3.706   6.026
 1902TIP3   OH2 5650   5.807   1.434   4.427
 1902TIP3    H1 5651   5.723   1.438   4.473
 1902TIP3    H2 5652   5.794   1.488   4.349
 1903TIP3   OH2 5653   7.495   5.916   2.935
 1903TIP3    H1 5654   7.544   5.948   3.011
 1903TIP3    H2 5655   7.429   5.983   2.919
 1904TIP3   OH2 5656   4.415   1.555   0.560
 1904TIP3    H1 5657   4.340   1.613   0.574
 1904TIP3    H2 5658   4.484   1.612   0.525
 1905TIP3   OH2 5659   8.305   4.804   4.104
 1905TIP3    H1 5660   8.277   4.722   4.063
 1905TIP3    H2 5661   8.246   4.870   4.068
 1906TIP3   OH2 5662   3.982   5.994   6.099
 1906TIP3    H1 5663   3.950   6.079   6.068
 1906TIP3    H2 5664   3.990   5.941   6.019
 1907TIP3   OH2 5665   4.897   4.454   3.470
 1907TIP3    H1 5666   4.905   4.483   3.561
 1907TIP3    H2 5667   4.849   4.371   3.476
 1908TIP3   OH2 5668   0.855   3.925   4.290
 1908TIP3    H1 5669   0.919   3.990   4.261
 1908TIP3    H2 5670   0.881   3.905   4.380
 1909TIP3   OH2 5671   4.039   5.710   4.551
 1909TIP3    H1 5672   4.013   5.802   4.560
 1909TIP3    H2 5673   4.103   5.711   4.479
 1910TIP3   OH2 5674   1.093   7.623   6.656
 1910TIP3    H1 5675   1.106   7.610   6.562
 1910TIP3    H2 5676   1.035   7.699   6.663
 1911TIP3   OH2 5677   4.371   2.241   3.376
 1911TIP3    H1 5678   4.463   2.259   3.357
 1911TIP3    H2 5679   4.370   2.153   3.413
 1912TIP3   OH2 5680   3.738   5.425   2.920
 1912TIP3    H1 5681   3.813   5.372   2.946
 1912TIP3    H2 5682   3.723   5.403   2.828
 1913TIP3   OH2 5683   1.403   6.677   2.111
 1913TIP3    H1 5684   1.418   6.663   2.017
 1913TIP3    H2 5685   1.372   6.592   2.143
 1914TIP3   OH2 5686   5.307   2.062   2.991
 1914TIP3    H1 5687   5.268   2.117   2.924
 1914TIP3    H2 5688   5.372   2.010   2.945
 1915TIP3   OH2 5689   7.502   5.470   0.434
 1915TIP3    H1 5690   7.558   5.547   0.430
 1915TIP3    H2 5691   7.486   5.457   0.528
 1916TIP3   OH2 5692   7.586   6.851   2.785
 1916TIP3    H1 5693   7.512   6.840   2.844
 1916TIP3    H2 5694   7.569   6.791   2.713
 1917TIP3   OH2 5695   1.955   3.290   5.862
 1917TIP3    H1 5696   2.045   3.257   5.858
 1917TIP3    H2 5697   1.954   3.363   5.801
 1918TIP3   OH2 5698   7.131   3.962   6.694
 1918TIP3    H1 5699   7.065   3.894   6.677
 1918TIP3    H2 5700   7.085   4.044   6.677
 1919TIP3   OH2 5701   8.019   2.962   5.640
 1919TIP3    H1 5702   7.945   2.902   5.650
 1919TIP3    H2 5703   8.008   3.001   5.554
 1920TIP3   OH2 5704   0.514   4.946   0.523
 1920TIP3    H1 5705   0.497   5.034   0.556
 1920TIP3    H2 5706   0.593   4.954   0.471
 1921TIP3   OH2 5707   7.067   5.563   4.519
 1921TIP3    H1 5708   7.153   5.557   4.478
 1921TIP3    H2 5709   7.069   5.647   4.565
 1922TIP3   OH2 5710   6.270   5.273   5.923
 1922TIP3    H1 5711   6.195   5.215   5.910
 1922TIP3    H2 5712   6.280   5.318   5.839
 1923TIP3   OH2 5713   2.723   0.335   0.432
 1923TIP3    H1 5714   2.782   0.332   0.357
 1923TIP3    H2 5715   2.638   0.309   0.397
 1924TIP3   OH2 5716   4.676   4.692   0.731
 1924TIP3    H1 5717   4.617   4.767   0.725
 1924TIP3    H2 5718   4.760   4.725   0.700
 1925TIP3   OH2 5719   3.659   0.477   0.996
 1925TIP3    H1 5720   3.692   0.520   1.074
 1925TIP3    H2 5721   3.737   0.454   0.946
 1926TIP3   OH2 5722   1.453   0.245   4.804
 1926TIP3    H1 5723   1.364   0.280   4.814
 1926TIP3    H2 5724   1.445   0.179   4.736
 1927TIP3   OH2 5725   1.184   6.347   6.628
 1927TIP3    H1 5726   1.149   6.299   6.553
 1927TIP3    H2 5727   1.236   6.418   6.589
 1928TIP3   OH2 5728   5.635   7.423   5.366
 1928TIP3    H1 5729   5.621   7.332   5.389
 1928TIP3    H2 5730   5.549   7.454   5.337
 1929TIP3   OH2 5731   3.350   2.079   6.614
 1929TIP3    H1 5732   3.355   2.029   6.696
 1929TIP3    H2 5733   3.284   2.146   6.631
 1930TIP3   OH2 5734   8.248   1.999   5.365
 1930TIP3    H1 5735   8.296   1.921   5.394
 1930TIP3    H2 5736   8.173   2.005   5.424
 1931TIP3   OH2 5737   0.605   7.785   4.741
 1931TIP3    H1 5738   0.670   7.762   4.807
 1931TIP3    H2 5739   0.561   7.862   4.777
 1932TIP3   OH2 5740   2.089   6.340   0.428
 1932TIP3    H1 5741   2.102   6.351   0.522
 1932TIP3    H2 5742   2.015   6.279   0.421
 1933TIP3   OH2 5743   6.063   4.531   1.246
 1933TIP3    H1 5744   6.109   4.557   1.325
 1933TIP3    H2 5745   5.986   4.483   1.278
 1934TIP3   OH2 5746   5.885   4.855   4.337
 1934TIP3    H1 5747   5.979   4.855   4.320
 1934TIP3    H2 5748   5.847   4.809   4.262
 1935TIP3   OH2 5749   3.555   6.627   0.650
 1935TIP3    H1 5750   3.600   6.647   0.733
 1935TIP3    H2 5751   3.497   6.554   0.672
 1936TIP3   OH2 5752   1.715   3.148   2.887
 1936TIP3    H1 5753   1.809   3.132   2.891
 1936TIP3    H2 5754   1.697   3.206   2.961
 1937TIP3   OH2 5755   6.232   4.540   2.626
 1937TIP3    H1 5756   6.175   4.586   2.564
 1937TIP3    H2 5757   6.238   4.451   2.592
 1938TIP3   OH2 5758   6.852   6.560   4.434
 1938TIP3    H1 5759   6.872   6.576   4.526
 1938TIP3    H2 5760   6.919   6.608   4.386
 1939TIP3   OH2 5761   5.151   2.033   6.599
 1939TIP3    H1 5762   5.197   2.093   6.658
 1939TIP3    H2 5763   5.078   2.085   6.565
 1940TIP3   OH2 5764   1.638   3.756   6.123
 1940TIP3    H1 5765   1.590   3.838   6.126
 1940TIP3    H2 5766   1.720   3.778   6.078
 1941TIP3   OH2 5767   4.601   3.653   6.313
 1941TIP3    H1 5768   4.572   3.566   6.285
 1941TIP3    H2 5769   4.587   3.654   6.407
 1942TIP3   OH2 5770   5.572  -0.016   2.181
 1942TIP3    H1 5771   5.537   0.071   2.200
 1942TIP3    H2 5772   5.634  -0.033   2.252
 1943TIP3   OH2 5773   4.736   4.478   6.377
 1943TIP3    H1 5774   4.756   4.548   6.440
 1943TIP3    H2 5775   4.813   4.475   6.320
 1944TIP3   OH2 5776   2.420   0.663   3.641
 1944TIP3    H1 5777   2.420   0.653   3.736
 1944TIP3    H2 5778   2.353   0.729   3.623
 1945TIP3   OH2 5779   3.311   3.045   4.317
 1945TIP3    H1 5780   3.330   3.138   4.330
 1945TIP3    H2 5781   3.328   3.029   4.224
 1946TIP3   OH2 5782   2.717   4.149   5.384
 1946TIP3    H1 5783   2.763   4.125   5.304
 1946TIP3    H2 5784   2.625   4.154   5.358
 1947TIP3   OH2 5785   1.570   6.064   1.766
 1947TIP3    H1 5786   1.654   6.109   1.771
 1947TIP3    H2 5787   1.508   6.131   1.739
 1948TIP3   OH2 5788   4.161   0.833   1.048
 1948TIP3    H1 5789   4.219   0.903   1.079
 1948TIP3    H2 5790   4.079   0.849   1.094
 1949TIP3   OH2 5791   1.813   5.007   5.678
 1949TIP3    H1 5792   1.784   5.087   5.634
 1949TIP3    H2 5793   1.732   4.965   5.709
 1950TIP3   OH2 5794   4.469   2.739   5.444
 1950TIP3    H1 5795   4.494   2.650   5.468
 1950TIP3    H2 5796   4.505   2.753   5.357
 1951TIP3   OH2 5797   0.814   1.622   1.151
 1951TIP3    H1 5798   0.750   1.637   1.082
 1951TIP3    H2 5799   0.896   1.606   1.104
 1952TIP3   OH2 5800   2.320   5.747   4.845
 1952TIP3    H1 5801   2.303   5.819   4.783
 1952TIP3    H2 5802   2.296   5.782   4.930
 1953TIP3   OH2 5803   4.703   1.023   5.583
 1953TIP3    H1 5804   4.764   1.017   5.509
 1953TIP3    H2 5805   4.718   1.110   5.620
 1954TIP3   OH2 5806   3.739   7.343   6.538
 1954TIP3    H1 5807   3.823   7.385   6.558
 1954TIP3    H2 5808   3.714   7.300   6.620
 1955TIP3   OH2 5809   3.214   2.470   4.815
 1955TIP3    H1 5810   3.231   2.402   4.750
 1955TIP3    H2 5811   3.119   2.469   4.827
 1956TIP3   OH2 5812   0.558   1.060   1.286
 1956TIP3    H1 5813   0.610   1.117   1.342
 1956TIP3    H2 5814   0.510   1.119   1.228
 1957TIP3   OH2 5815   8.038   6.776   0.868
 1957TIP3    H1 5816   8.112   6.816   0.915
 1957TIP3    H2 5817   8.009   6.845   0.808
 1958TIP3   OH2 5818   0.384   7.428   3.668
 1958TIP3    H1 5819   0.393   7.521   3.684
 1958TIP3    H2 5820   0.341   7.422   3.582
 1959TIP3   OH2 5821   5.888   3.877   1.070
 1959TIP3    H1 5822   5.902   3.821   0.993
 1959TIP3    H2 5823   5.813   3.837   1.115
 1960TIP3   OH2 5824   4.173   3.042   0.231
 1960TIP3    H1 5825   4.244   3.087   0.186
 1960TIP3    H2 5826   4.094   3.090   0.204
 1961TIP3   OH2 5827   6.113   3.262   0.614
 1961TIP3    H1 5828   6.165   3.319   0.671
 1961TIP3    H2 5829   6.102   3.312   0.534
 1962TIP3   OH2 5830   6.102   3.551   1.203
 1962TIP3    H1 5831   6.011   3.523   1.211
 1962TIP3    H2 5832   6.122   3.545   1.110
 1963TIP3   OH2 5833   7.608   3.464   0.983
 1963TIP3    H1 5834   7.548   3.492   0.913
 1963TIP3    H2 5835   7.694   3.495   0.954
 1964TIP3   OH2 5836   2.582   4.769   1.286
 1964TIP3    H1 5837   2.494   4.734   1.302
 1964TIP3    H2 5838   2.580   4.857   1.323
 1965TIP3   OH2 5839   1.751   1.023   0.419
 1965TIP3    H1 5840   1.825   1.067   0.461
 1965TIP3    H2 5841   1.674   1.061   0.461
 1966TIP3   OH2 5842   6.100   4.552   0.636
 1966TIP3    H1 5843   6.190   4.520   0.628
 1966TIP3    H2 5844   6.073   4.569   0.546
 1967TIP3   OH2 5845   1.552   5.816   4.541
 1967TIP3    H1 5846   1.628   5.820   4.599
 1967TIP3    H2 5847   1.583   5.769   4.464
 1968TIP3   OH2 5848   7.681   3.276   2.470
 1968TIP3    H1 5849   7.735   3.209   2.428
 1968TIP3    H2 5850   7.649   3.330   2.398
 1969TIP3   OH2 5851   5.888   3.716   2.287
 1969TIP3    H1 5852   5.817   3.663   2.252
 1969TIP3    H2 5853   5.938   3.743   2.209
 1970TIP3   OH2 5854   4.254   6.948   1.791
 1970TIP3    H1 5855   4.169   6.918   1.822
 1970TIP3    H2 5856   4.235   7.029   1.744
 1971TIP3   OH2 5857   2.257   5.542   6.452
 1971TIP3    H1 5858   2.197   5.525   6.525
 1971TIP3    H2 5859   2.337   5.496   6.476
 1972TIP3   OH2 5860   6.079   2.072   0.475
 1972TIP3    H1 5861   6.118   2.152   0.509
 1972TIP3    H2 5862   6.154   2.020   0.444
 1973TIP3   OH2 5863   6.108   5.585   0.979
 1973TIP3    H1 5864   6.025   5.550   1.013
 1973TIP3    H2 5865   6.082   5.645   0.910
 1974TIP3   OH2 5866   6.900   4.189   0.091
 1974TIP3    H1 5867   6.865   4.121   0.034
 1974TIP3    H2 5868   6.893   4.152   0.179
 1975TIP3   OH2 5869   4.377   6.916   0.825
 1975TIP3    H1 5870   4.322   6.916   0.903
 1975TIP3    H2 5871   4.434   6.840   0.836
 1976TIP3   OH2 5872   6.202   3.494   5.833
 1976TIP3    H1 5873   6.210   3.422   5.770
 1976TIP3    H2 5874   6.291   3.530   5.839
 1977TIP3   OH2 5875   6.758   5.689   6.231
 1977TIP3    H1 5876   6.666   5.704   6.251
 1977TIP3    H2 5877   6.795   5.657   6.314
 1978TIP3   OH2 5878   7.979   1.600   1.107
 1978TIP3    H1 5879   7.886   1.583   1.090
 1978TIP3    H2 5880   8.025   1.542   1.046
 1979TIP3   OH2 5881   5.225   2.524   6.738
 1979TIP3    H1 5882   5.131   2.538   6.731
 1979TIP3    H2 5883   5.251   2.575   6.815
 1980TIP3   OH2 5884   3.435   3.723   4.831
 1980TIP3    H1 5885   3.497   3.652   4.851
 1980TIP3    H2 5886   3.486   3.803   4.843
 1981TIP3   OH2 5887   1.936   3.088   6.359
 1981TIP3    H1 5888   1.959   3.180   6.372
 1981TIP3    H2 5889   1.927   3.052   6.447
 1982TIP3   OH2 5890   3.437   6.818   6.241
 1982TIP3    H1 5891   3.401   6.856   6.321
 1982TIP3    H2 5892   3.364   6.769   6.203
 1983TIP3   OH2 5893   0.889   6.319   2.809
 1983TIP3    H1 5894   0.810   6.361   2.776
 1983TIP3    H2 5895   0.878   6.226   2.787
 1984TIP3   OH2 5896   4.336   1.197   5.606
 1984TIP3    H1 5897   4.356   1.104   5.593
 1984TIP3    H2 5898   4.244   1.205   5.579
 1985TIP3   OH2 5899   4.054   2.606   4.117
 1985TIP3    H1 5900   4.074   2.553   4.194
 1985TIP3    H2 5901   4.110   2.572   4.048
 1986TIP3   OH2 5902   7.166   0.056   5.888
 1986TIP3    H1 5903   7.131   0.064   5.977
 1986TIP3    H2 5904   7.229   0.128   5.881
 1987TIP3   OH2 5905   3.256   7.414   2.843
 1987TIP3    H1 5906   3.193   7.427   2.914
 1987TIP3    H2 5907   3.335   7.459   2.874
 1988TIP3   OH2 5908   0.987   0.941   6.504
 1988TIP3    H1 5909   1.072   0.898   6.506
 1988TIP3    H2 5910   1.007   1.031   6.477
 1989TIP3   OH2 5911   7.406   3.012   5.254
 1989TIP3    H1 5912   7.359   2.930   5.237
 1989TIP3    H2 5913   7.482   2.985   5.306
 1990TIP3   OH2 5914   3.155   2.776   4.249
 1990TIP3    H1 5915   3.207   2.856   4.246
 1990TIP3    H2 5916   3.155   2.743   4.160
 1991TIP3   OH2 5917   1.736   4.454   0.948
 1991TIP3    H1 5918   1.755   4.401   1.025
 1991TIP3    H2 5919   1.719   4.390   0.879
 1992TIP3   OH2 5920   3.071   7.352   0.999
 1992TIP3    H1 5921   3.135   7.422   1.008
 1992TIP3    H2 5922   3.109   7.292   0.935
 1993TIP3   OH2 5923   7.408   2.410   1.749
 1993TIP3    H1 5924   7.495   2.408   1.708
 1993TIP3    H2 5925   7.374   2.496   1.728
 1994TIP3   OH2 5926   0.837   4.986   1.293
 1994TIP3    H1 5927   0.809   5.039   1.368
 1994TIP3    H2 5928   0.884   5.048   1.237
 1995TIP3   OH2 5929   4.515   2.368   2.457
 1995TIP3    H1 5930   4.563   2.436   2.409
 1995TIP3    H2 5931   4.507   2.401   2.546
 1996TIP3   OH2 5932   6.684   7.263   1.619
 1996TIP3    H1 5933   6.649   7.329   1.559
 1996TIP3    H2 5934   6.707   7.189   1.563
 1997TIP3   OH2 5935   1.056   7.340   3.009
 1997TIP3    H1 5936   1.063   7.367   3.101
 1997TIP3    H2 5937   1.126   7.388   2.965
 1998TIP3   OH2 5938   4.844   0.453   6.309
 1998TIP3    H1 5939   4.881   0.519   6.251
 1998TIP3    H2 5940   4.749   0.469   6.305
 1999TIP3   OH2 5941   7.152   2.883   3.237
 1999TIP3    H1 5942   7.180   2.953   3.179
 1999TIP3    H2 5943   7.165   2.918   3.325
 2000TIP3   OH2 5944   7.536   7.602   0.932
 2000TIP3    H1 5945   7.560   7.643   1.015
 2000TIP3    H2 5946   7.474   7.663   0.891
 2001TIP3   OH2 5947   7.968   0.605   2.441
 2001TIP3    H1 5948   7.947   0.549   2.516
 2001TIP3    H2 5949   8.001   0.686   2.480
 2002TIP3   OH2 5950   0.980   6.758   0.877
 2002TIP3    H1 5951   0.935   6.835   0.911
 2002TIP3    H2 5952   0.948   6.748   0.788
 2003TIP3   OH2 5953   5.489   7.540   2.556
 2003TIP3    H1 5954   5.504   7.464   2.612
 2003TIP3    H2 5955   5.540   7.610   2.596
 2004TIP3   OH2 5956   7.625   4.378   0.030
 2004TIP3    H1 5957   7.674   4.357  -0.049
 2004TIP3    H2 5958   7.607   4.472   0.024
 2005TIP3   OH2 5959   3.247   2.159   1.832
 2005TIP3    H1 5960   3.258   2.129   1.923
 2005TIP3    H2 5961   3.333   2.191   1.806
 2006TIP3   OH2 5962   3.460   3.712   1.637
 2006TIP3    H1 5963   3.463   3.618   1.620
 2006TIP3    H2 5964   3.551   3.739   1.640
 2007TIP3   OH2 5965   6.154   5.165   3.077
 2007TIP3    H1 5966   6.168   5.214   2.996
 2007TIP3    H2 5967   6.240   5.130   3.100
 2008TIP3   OH2 5968   2.509   5.767   1.811
 2008TIP3    H1 5969   2.457   5.696   1.775
 2008TIP3    H2 5970   2.599   5.745   1.787
 2009TIP3   OH2 5971   0.548   6.766   6.277
 2009TIP3    H1 5972   0.514   6.758   6.366
 2009TIP3    H2 5973   0.542   6.677   6.242
 2010TIP3   OH2 5974   8.159   6.413   3.955
 2010TIP3    H1 5975   8.140   6.450   4.042
 2010TIP3    H2 5976   8.214   6.337   3.974
 2011TIP3   OH2 5977   3.123   2.182   5.897
 2011TIP3    H1 5978   3.119   2.100   5.848
 2011TIP3    H2 5979   3.215   2.189   5.925
 2012TIP3   OH2 5980   4.420   3.983   3.806
 2012TIP3    H1 5981   4.327   3.969   3.789
 2012TIP3    H2 5982   4.444   4.058   3.752
 2013TIP3   OH2 5983   2.521   6.925   0.163
 2013TIP3    H1 5984   2.501   6.897   0.253
 2013TIP3    H2 5985   2.603   6.973   0.171
 2014TIP3   OH2 5986   3.486   2.021   5.046
 2014TIP3    H1 5987   3.566   1.990   5.088
 2014TIP3    H2 5988   3.514   2.049   4.959
 2015TIP3   OH2 5989   8.004   1.086   4.957
 2015TIP3    H1 5990   8.091   1.109   4.990
 2015TIP3    H2 5991   7.944   1.109   5.028
 2016TIP3   OH2 5992   1.429   5.476   1.871
 2016TIP3    H1 5993   1.410   5.557   1.918
 2016TIP3    H2 5994   1.452   5.413   1.939
 2017TIP3   OH2 5995   1.534   3.140   0.835
 2017TIP3    H1 5996   1.530   3.047   0.859
 2017TIP3    H2 5997   1.615   3.148   0.784
 2018TIP3   OH2 5998   6.543   6.592   2.967
 2018TIP3    H1 5999   6.631   6.626   2.983
 2018TIP3    H2 6000   6.540   6.511   3.018
 2019TIP3   OH2 6001   3.818   6.113   3.869
 2019TIP3    H1 6002   3.793   6.187   3.813
 2019TIP3    H2 6003   3.914   6.120   3.874
 2020TIP3   OH2 6004   7.064   0.277   6.393
 2020TIP3    H1 6005   7.093   0.335   6.463
 2020TIP3    H2 6006   7.101   0.192   6.414
 2021TIP3   OH2 6007   0.720   6.036   3.367
 2021TIP3    H1 6008   0.740   5.947   3.396
 2021TIP3    H2 6009   0.805   6.078   3.358
 2022TIP3   OH2 6010   5.721   1.334   3.619
 2022TIP3    H1 6011   5.638   1.359   3.580
 2022TIP3    H2 6012   5.712   1.241   3.639
 2023TIP3   OH2 6013   2.563   6.069   1.731
 2023TIP3    H1 6014   2.567   6.000   1.798
 2023TIP3    H2 6015   2.630   6.132   1.757
 2024TIP3   OH2 6016   7.144   2.587   3.609
 2024TIP3    H1 6017   7.103   2.570   3.524
 2024TIP3    H2 6018   7.136   2.504   3.656
 2025TIP3   OH2 6019   6.127   1.563   2.262
 2025TIP3    H1 6020   6.148   1.642   2.312
 2025TIP3    H2 6021   6.120   1.494   2.329
 2026TIP3   OH2 6022   3.684   6.102   5.180
 2026TIP3    H1 6023   3.765   6.071   5.220
 2026TIP3    H2 6024   3.647   6.025   5.136
 2027TIP3   OH2 6025   2.524   7.767   4.668
 2027TIP3    H1 6026   2.534   7.782   4.574
 2027TIP3    H2 6027   2.458   7.831   4.696
 2028TIP3   OH2 6028   3.872   4.801   5.457
 2028TIP3    H1 6029   3.845   4.709   5.444
 2028TIP3    H2 6030   3.955   4.808   5.410
 2029TIP3   OH2 6031   1.953   6.886   2.279
 2029TIP3    H1 6032   2.017   6.956   2.292
 2029TIP3    H2 6033   1.970   6.854   2.191
 2030TIP3   OH2 6034   5.146   0.193   2.987
 2030TIP3    H1 6035   5.167   0.111   2.942
 2030TIP3    H2 6036   5.120   0.167   3.075
 2031TIP3   OH2 6037   2.666   6.285   0.654
 2031TIP3    H1 6038   2.610   6.356   0.622
 2031TIP3    H2 6039   2.630   6.206   0.615
 2032TIP3   OH2 6040   1.766   1.903   2.929
 2032TIP3    H1 6041   1.819   1.919   3.007
 2032TIP3    H2 6042   1.809   1.954   2.860
 2033TIP3   OH2 6043   3.067   5.753   1.108
 2033TIP3    H1 6044   3.147   5.713   1.074
 2033TIP3    H2 6045   2.999   5.687   1.095
 2034TIP3   OH2 6046   7.604   5.285   3.070
 2034TIP3    H1 6047   7.688   5.256   3.104
 2034TIP3    H2 6048   7.591   5.234   2.990
 2035TIP3   OH2 6049   3.142   4.642   3.504
 2035TIP3    H1 6050   3.080   4.651   3.431
 2035TIP3    H2 6051   3.215   4.592   3.467
 2036TIP3   OH2 6052   4.480   3.069   3.670
 2036TIP3    H1 6053   4.569   3.077   3.703
 2036TIP3    H2 6054   4.443   2.996   3.719
 2037TIP3   OH2 6055   5.397   6.948   2.901
 2037TIP3    H1 6056   5.354   7.033   2.898
 2037TIP3    H2 6057   5.325   6.885   2.906
 2038TIP3   OH2 6058   2.030   5.026   1.504
 2038TIP3    H1 6059   1.986   5.094   1.454
 2038TIP3    H2 6060   1.960   4.973   1.540
 2039TIP3   OH2 6061   5.178   1.163   3.905
 2039TIP3    H1 6062   5.129   1.103   3.961
 2039TIP3    H2 6063   5.112   1.199   3.845
 2040TIP3   OH2 6064   4.601   1.942   2.468
 2040TIP3    H1 6065   4.681   1.956   2.520
 2040TIP3    H2 6066   4.537   2.002   2.506
 2041TIP3   OH2 6067   7.471   2.246   0.745
 2041TIP3    H1 6068   7.508   2.331   0.723
 2041TIP3    H2 6069   7.428   2.260   0.830
 2042TIP3   OH2 6070   4.658   1.159   2.060
 2042TIP3    H1 6071   4.718   1.227   2.091
 2042TIP3    H2 6072   4.583   1.164   2.119
 2043TIP3   OH2 6073   0.832   4.133   4.004
 2043TIP3    H1 6074   0.793   4.126   4.091
 2043TIP3    H2 6075   0.807   4.051   3.960
 2044TIP3   OH2 6076   5.678   1.391   2.136
 2044TIP3    H1 6077   5.721   1.441   2.206
 2044TIP3    H2 6078   5.672   1.453   2.063
 2045TIP3   OH2 6079   1.643   2.625   0.409
 2045TIP3    H1 6080   1.562   2.598   0.365
 2045TIP3    H2 6081   1.709   2.565   0.375
 2046TIP3   OH2 6082   2.888   0.290   2.682
 2046TIP3    H1 6083   2.846   0.239   2.751
 2046TIP3    H2 6084   2.829   0.284   2.607
 2047TIP3   OH2 6085   8.045   6.447   4.972
 2047TIP3    H1 6086   8.076   6.417   4.886
 2047TIP3    H2 6087   7.961   6.404   4.983
 2048TIP3   OH2 6088   1.165   7.213   5.756
 2048TIP3    H1 6089   1.184   7.220   5.850
 2048TIP3    H2 6090   1.159   7.119   5.739
 2049TIP3   OH2 6091   1.214   0.494   6.207
 2049TIP3    H1 6092   1.289   0.485   6.266
 2049TIP3    H2 6093   1.188   0.404   6.186
 2050TIP3   OH2 6094   8.158   6.155   4.928
 2050TIP3    H1 6095   8.175   6.220   4.860
 2050TIP3    H2 6096   8.244   6.119   4.950
 2051TIP3   OH2 6097   6.892   2.484   4.913
 2051TIP3    H1 6098   6.958   2.511   4.849
 2051TIP3    H2 6099   6.935   2.417   4.966
 2052TIP3   OH2 6100   4.868   4.183   6.150
 2052TIP3    H1 6101   4.774   4.161   6.149
 2052TIP3    H2 6102   4.907   4.124   6.085
 2053TIP3   OH2 6103   2.667   1.057   4.378
 2053TIP3    H1 6104   2.691   1.017   4.294
 2053TIP3    H2 6105   2.612   1.132   4.353
 2054TIP3   OH2 6106   6.259   4.470   3.612
 2054TIP3    H1 6107   6.243   4.440   3.522
 2054TIP3    H2 6108   6.354   4.480   3.616
 2055TIP3   OH2 6109   7.257   5.698   2.718
 2055TIP3    H1 6110   7.330   5.641   2.742
 2055TIP3    H2 6111   7.298   5.776   2.682
 2056TIP3   OH2 6112   2.207   6.052   6.448
 2056TIP3    H1 6113   2.244   6.140   6.453
 2056TIP3    H2 6114   2.177   6.044   6.358
 2057TIP3   OH2 6115   4.309   7.158   6.741
 2057TIP3    H1 6116   4.258   7.191   6.667
 2057TIP3    H2 6117   4.290   7.064   6.744
 2058TIP3   OH2 6118   3.976   1.338   5.573
 2058TIP3    H1 6119   4.055   1.365   5.526
 2058TIP3    H2 6120   4.003   1.334   5.665
 2059TIP3   OH2 6121   0.107   4.926   3.808
 2059TIP3    H1 6122   0.024   4.916   3.854
 2059TIP3    H2 6123   0.151   4.999   3.851
 2060TIP3   OH2 6124   3.036   6.795   4.474
 2060TIP3    H1 6125   2.969   6.728   4.483
 2060TIP3    H2 6126   2.992   6.877   4.499
 2061TIP3   OH2 6127   0.454   2.497   5.029
 2061TIP3    H1 6128   0.542   2.468   5.051
 2061TIP3    H2 6129   0.416   2.525   5.112
 2062TIP3   OH2 6130   5.227   7.056   1.553
 2062TIP3    H1 6131   5.283   7.134   1.549
 2062TIP3    H2 6132   5.153   7.077   1.497
 2063TIP3   OH2 6133   7.347   2.773   2.646
 2063TIP3    H1 6134   7.310   2.690   2.615
 2063TIP3    H2 6135   7.437   2.772   2.615
 2064TIP3   OH2 6136   6.089   7.783   6.397
 2064TIP3    H1 6137   6.145   7.830   6.458
 2064TIP3    H2 6138   6.149   7.739   6.337
 2065TIP3   OH2 6139   2.264   7.628   2.267
 2065TIP3    H1 6140   2.357   7.654   2.267
 2065TIP3    H2 6141   2.249   7.594   2.355
 2066TIP3   OH2 6142   5.174   1.739   4.464
 2066TIP3    H1 6143   5.234   1.778   4.400
 2066TIP3    H2 6144   5.102   1.704   4.411
 2067TIP3   OH2 6145   3.918   0.546   4.005
 2067TIP3    H1 6146   3.874   0.542   3.920
 2067TIP3    H2 6147   4.009   0.522   3.986
 2068TIP3   OH2 6148   3.572   6.740   2.520
 2068TIP3    H1 6149   3.666   6.750   2.501
 2068TIP3    H2 6150   3.529   6.799   2.458
 2069TIP3   OH2 6151   2.558   3.696   5.250
 2069TIP3    H1 6152   2.549   3.643   5.330
 2069TIP3    H2 6153   2.652   3.717   5.246
 2070TIP3   OH2 6154   0.352   2.182   4.414
 2070TIP3    H1 6155   0.436   2.222   4.432
 2070TIP3    H2 6156   0.307   2.178   4.498
 2071TIP3   OH2 6157   4.260   6.894   6.678
 2071TIP3    H1 6158   4.217   6.938   6.605
 2071TIP3    H2 6159   4.276   6.805   6.647
 2072TIP3   OH2 6160   1.770   0.464   2.682
 2072TIP3    H1 6161   1.834   0.516   2.633
 2072TIP3    H2 6162   1.733   0.525   2.745
 2073TIP3   OH2 6163   2.454   1.150   0.088
 2073TIP3    H1 6164   2.380   1.160   0.148
 2073TIP3    H2 6165   2.473   1.056   0.088
 2074TIP3   OH2 6166   1.306   2.653   3.613
 2074TIP3    H1 6167   1.245   2.674   3.542
 2074TIP3    H2 6168   1.259   2.676   3.693
 2075TIP3   OH2 6169   6.511   4.968   4.367
 2075TIP3    H1 6170   6.547   4.964   4.279
 2075TIP3    H2 6171   6.467   5.053   4.371
 2076TIP3   OH2 6172   2.916   7.579   1.928
 2076TIP3    H1 6173   2.985   7.585   1.993
 2076TIP3    H2 6174   2.850   7.642   1.956
 2077TIP3   OH2 6175   5.664   6.313   3.757
 2077TIP3    H1 6176   5.676   6.286   3.848
 2077TIP3    H2 6177   5.575   6.284   3.735
 2078TIP3   OH2 6178   0.385   3.205   0.952
 2078TIP3    H1 6179   0.293   3.228   0.966
 2078TIP3    H2 6180   0.407   3.246   0.868
 2079TIP3   OH2 6181   5.006   6.358   0.461
 2079TIP3    H1 6182   4.927   6.377   0.511
 2079TIP3    H2 6183   5.066   6.318   0.525
 2080TIP3   OH2 6184   6.177   5.288   5.121
 2080TIP3    H1 6185   6.143   5.347   5.053
 2080TIP3    H2 6186   6.107   5.283   5.186
 2081TIP3   OH2 6187   4.823   3.370   4.855
 2081TIP3    H1 6188   4.762   3.316   4.805
 2081TIP3    H2 6189   4.860   3.431   4.791
 2082TIP3   OH2 6190   7.479   3.211   2.047
 2082TIP3    H1 6191   7.418   3.158   1.995
 2082TIP3    H2 6192   7.556   3.220   1.992
 2083TIP3   OH2 6193   1.388   2.514   4.371
 2083TIP3    H1 6194   1.468   2.478   4.408
 2083TIP3    H2 6195   1.412   2.601   4.340
 2084TIP3   OH2 6196   4.843   4.633   1.764
 2084TIP3    H1 6197   4.874   4.577   1.693
 2084TIP3    H2 6198   4.791   4.575   1.819
 2085TIP3   OH2 6199   2.179   4.116   4.649
 2085TIP3    H1 6200   2.167   4.067   4.730
 2085TIP3    H2 6201   2.096   4.162   4.637
 2086TIP3   OH2 6202   3.852   1.859   1.757
 2086TIP3    H1 6203   3.941   1.869   1.791
 2086TIP3    H2 6204   3.847   1.767   1.732
 2087TIP3   OH2 6205   3.288   0.348   5.126
 2087TIP3    H1 6206   3.235   0.386   5.195
 2087TIP3    H2 6207   3.242   0.267   5.102
 2088TIP3   OH2 6208   5.629   2.604   5.965
 2088TIP3    H1 6209   5.706   2.572   6.013
 2088TIP3    H2 6210   5.569   2.633   6.033
 2089TIP3   OH2 6211   4.607   3.360   2.621
 2089TIP3    H1 6212   4.553   3.366   2.542
 2089TIP3    H2 6213   4.580   3.435   2.674
 2090TIP3   OH2 6214   0.766   3.977   6.445
 2090TIP3    H1 6215   0.851   3.938   6.426
 2090TIP3    H2 6216   0.782   4.071   6.449
 2091TIP3   OH2 6217   3.749   3.835   5.433
 2091TIP3    H1 6218   3.786   3.839   5.345
 2091TIP3    H2 6219   3.737   3.742   5.449
 2092TIP3   OH2 6220   4.396   7.738   1.745
 2092TIP3    H1 6221   4.434   7.739   1.832
 2092TIP3    H2 6222   4.413   7.825   1.709
 2093TIP3   OH2 6223   5.618   6.254   2.685
 2093TIP3    H1 6224   5.676   6.279   2.613
 2093TIP3    H2 6225   5.565   6.332   2.701
 2094TIP3   OH2 6226   1.340   5.880   5.857
 2094TIP3    H1 6227   1.408   5.915   5.915
 2094TIP3    H2 6228   1.259   5.920   5.889
 2095TIP3   OH2 6229   1.972   2.394   4.376
 2095TIP3    H1 6230   1.982   2.354   4.289
 2095TIP3    H2 6231   1.908   2.338   4.420
 2096TIP3   OH2 6232   4.491   1.222   6.612
 2096TIP3    H1 6233   4.558   1.154   6.604
 2096TIP3    H2 6234   4.484   1.259   6.524
 2097TIP3   OH2 6235   2.550   3.081   0.414
 2097TIP3    H1 6236   2.520   3.158   0.462
 2097TIP3    H2 6237   2.493   3.010   0.445
 2098TIP3   OH2 6238   6.745   4.150   5.467
 2098TIP3    H1 6239   6.689   4.139   5.390
 2098TIP3    H2 6240   6.830   4.175   5.431
 2099TIP3   OH2 6241   1.774   4.842   3.394
 2099TIP3    H1 6242   1.714   4.801   3.332
 2099TIP3    H2 6243   1.795   4.927   3.354
 2100TIP3   OH2 6244   4.077   1.804   2.713
 2100TIP3    H1 6245   4.044   1.793   2.802
 2100TIP3    H2 6246   4.150   1.865   2.723
 2101TIP3   OH2 6247   3.589   5.285   5.006
 2101TIP3    H1 6248   3.585   5.193   5.033
 2101TIP3    H2 6249   3.500   5.305   4.976
 2102TIP3   OH2 6250   6.844   6.839   1.905
 2102TIP3    H1 6251   6.856   6.932   1.886
 2102TIP3    H2 6252   6.749   6.827   1.906
 2103TIP3   OH2 6253   0.288   3.426   1.163
 2103TIP3    H1 6254   0.328   3.452   1.080
 2103TIP3    H2 6255   0.304   3.331   1.168
 2104TIP3   OH2 6256   3.476   6.961   2.352
 2104TIP3    H1 6257   3.405   6.991   2.409
 2104TIP3    H2 6258   3.435   6.949   2.266
 2105TIP3   OH2 6259   4.734   2.199   1.891
 2105TIP3    H1 6260   4.727   2.184   1.797
 2105TIP3    H2 6261   4.705   2.117   1.931
 2106TIP3   OH2 6262   3.619   5.447   6.209
 2106TIP3    H1 6263   3.688   5.392   6.246
 2106TIP3    H2 6264   3.612   5.521   6.269
 2107TIP3   OH2 6265   1.801   3.810   2.725
 2107TIP3    H1 6266   1.819   3.876   2.658
 2107TIP3    H2 6267   1.713   3.779   2.704
 2108TIP3   OH2 6268   6.775   2.713   1.294
 2108TIP3    H1 6269   6.809   2.624   1.302
 2108TIP3    H2 6270   6.764   2.742   1.385
 2109TIP3   OH2 6271   2.939   2.458   1.304
 2109TIP3    H1 6272   3.023   2.503   1.294
 2109TIP3    H2 6273   2.958   2.382   1.358
 2110TIP3   OH2 6274   7.272   1.124   0.936
 2110TIP3    H1 6275   7.350   1.179   0.947
 2110TIP3    H2 6276   7.299   1.038   0.969
 2111TIP3   OH2 6277   4.749   3.799   3.242
 2111TIP3    H1 6278   4.744   3.705   3.257
 2111TIP3    H2 6279   4.665   3.833   3.275
 2112TIP3   OH2 6280   4.325   5.612   3.815
 2112TIP3    H1 6281   4.255   5.553   3.844
 2112TIP3    H2 6282   4.361   5.648   3.896
 2113TIP3   OH2 6283   5.992   1.342   0.312
 2113TIP3    H1 6284   5.917   1.387   0.349
 2113TIP3    H2 6285   6.026   1.402   0.246
 2114TIP3   OH2 6286   7.675   6.617   6.352
 2114TIP3    H1 6287   7.643   6.704   6.328
 2114TIP3    H2 6288   7.722   6.586   6.275
 2115TIP3   OH2 6289   7.105   7.746   1.341
 2115TIP3    H1 6290   7.054   7.737   1.421
 2115TIP3    H2 6291   7.043   7.724   1.271
 2116TIP3   OH2 6292   0.018   4.715   4.462
 2116TIP3    H1 6293   0.047   4.731   4.551
 2116TIP3    H2 6294   0.000   4.802   4.426
 2117TIP3   OH2 6295   2.987   4.530   1.204
 2117TIP3    H1 6296   3.008   4.438   1.190
 2117TIP3    H2 6297   3.003   4.545   1.297
 2118TIP3   OH2 6298   0.100   4.802   6.617
 2118TIP3    H1 6299   0.008   4.828   6.617
 2118TIP3    H2 6300   0.116   4.770   6.527
 2119TIP3   OH2 6301   2.220   0.206   0.655
 2119TIP3    H1 6302   2.134   0.240   0.681
 2119TIP3    H2 6303   2.221   0.116   0.687
 2120TIP3   OH2 6304   3.844   6.939   1.621
 2120TIP3    H1 6305   3.867   7.029   1.645
 2120TIP3    H2 6306   3.914   6.886   1.657
 2121TIP3   OH2 6307   6.904   6.057   1.268
 2121TIP3    H1 6308   6.894   5.973   1.314
 2121TIP3    H2 6309   6.993   6.053   1.231
 2122TIP3   OH2 6310   1.080   5.304   4.948
 2122TIP3    H1 6311   1.031   5.280   5.026
 2122TIP3    H2 6312   1.152   5.241   4.944
 2123TIP3   OH2 6313   4.200   6.362   6.589
 2123TIP3    H1 6314   4.284   6.350   6.544
 2123TIP3    H2 6315   4.138   6.385   6.519
 2124TIP3   OH2 6316   0.227   4.002   6.503
 2124TIP3    H1 6317   0.133   4.020   6.500
 2124TIP3    H2 6318   0.233   3.909   6.525
 2125TIP3   OH2 6319   4.285   5.818   0.672
 2125TIP3    H1 6320   4.366   5.767   0.674
 2125TIP3    H2 6321   4.256   5.820   0.763
 2126TIP3   OH2 6322   5.398   6.532   3.563
 2126TIP3    H1 6323   5.465   6.576   3.510
 2126TIP3    H2 6324   5.325   6.521   3.502
 2127TIP3   OH2 6325   7.925   4.337   4.806
 2127TIP3    H1 6326   8.002   4.374   4.848
 2127TIP3    H2 6327   7.948   4.330   4.713
 2128TIP3   OH2 6328   4.143   4.054   4.248
 2128TIP3    H1 6329   4.102   4.133   4.283
 2128TIP3    H2 6330   4.228   4.084   4.216
 2129TIP3   OH2 6331   7.357   7.356   6.376
 2129TIP3    H1 6332   7.353   7.367   6.471
 2129TIP3    H2 6333   7.379   7.264   6.363
 2130TIP3   OH2 6334   7.618   5.451   1.797
 2130TIP3    H1 6335   7.580   5.488   1.876
 2130TIP3    H2 6336   7.626   5.526   1.737
 2131TIP3   OH2 6337   6.365   4.533   2.069
 2131TIP3    H1 6338   6.384   4.478   1.993
 2131TIP3    H2 6339   6.416   4.495   2.140
 2132TIP3   OH2 6340   0.888   4.164   2.830
 2132TIP3    H1 6341   0.854   4.211   2.906
 2132TIP3    H2 6342   0.908   4.233   2.766
 2133TIP3   OH2 6343   3.649   2.136   0.623
 2133TIP3    H1 6344   3.663   2.229   0.605
 2133TIP3    H2 6345   3.599   2.134   0.704
 2134TIP3   OH2 6346   1.970   4.422   5.910
 2134TIP3    H1 6347   1.966   4.492   5.974
 2134TIP3    H2 6348   1.908   4.448   5.842
 2135TIP3   OH2 6349   6.854   6.595   4.015
 2135TIP3    H1 6350   6.791   6.529   4.043
 2135TIP3    H2 6351   6.923   6.592   4.082
 2136TIP3   OH2 6352   7.802   4.797   2.685
 2136TIP3    H1 6353   7.843   4.862   2.741
 2136TIP3    H2 6354   7.777   4.845   2.606
 2137TIP3   OH2 6355   4.849   3.536   3.266
 2137TIP3    H1 6356   4.757   3.509   3.263
 2137TIP3    H2 6357   4.898   3.454   3.274
 2138TIP3   OH2 6358   1.885   1.267   2.986
 2138TIP3    H1 6359   1.882   1.264   2.890
 2138TIP3    H2 6360   1.808   1.218   3.014
 2139TIP3   OH2 6361   2.922   5.180   4.770
 2139TIP3    H1 6362   3.016   5.177   4.786
 2139TIP3    H2 6363   2.913   5.222   4.685
 2140TIP3   OH2 6364   5.227   7.010   0.112
 2140TIP3    H1 6365   5.199   7.101   0.122
 2140TIP3    H2 6366   5.188   6.982   0.029
 2141TIP3   OH2 6367   1.203   6.111   2.020
 2141TIP3    H1 6368   1.202   6.130   2.114
 2141TIP3    H2 6369   1.271   6.045   2.010
 2142TIP3   OH2 6370   7.286   3.023   4.841
 2142TIP3    H1 6371   7.266   3.002   4.750
 2142TIP3    H2 6372   7.317   2.941   4.879
 2143TIP3   OH2 6373   0.960   3.396   4.333
 2143TIP3    H1 6374   0.899   3.372   4.403
 2143TIP3    H2 6375   1.019   3.460   4.374
 2144TIP3   OH2 6376   3.394   7.267   3.151
 2144TIP3    H1 6377   3.452   7.192   3.138
 2144TIP3    H2 6378   3.439   7.321   3.216
 2145TIP3   OH2 6379   0.083   5.546   5.178
 2145TIP3    H1 6380   0.068   5.511   5.265
 2145TIP3    H2 6381   0.174   5.523   5.158
 2146TIP3   OH2 6382   8.029   0.130   5.960
 2146TIP3    H1 6383   8.038   0.223   5.979
 2146TIP3    H2 6384   8.112   0.105   5.920
 2147TIP3   OH2 6385   0.990   0.674   0.285
 2147TIP3    H1 6386   1.076   0.716   0.281
 2147TIP3    H2 6387   0.966   0.660   0.194
 2148TIP3   OH2 6388   4.003   2.478   3.828
 2148TIP3    H1 6389   4.065   2.406   3.842
 2148TIP3    H2 6390   3.972   2.501   3.915
 2149TIP3   OH2 6391   1.973   2.816   3.590
 2149TIP3    H1 6392   1.935   2.848   3.672
 2149TIP3    H2 6393   2.063   2.849   3.591
 2150TIP3   OH2 6394   5.322   7.427   1.085
 2150TIP3    H1 6395   5.313   7.450   1.177
 2150TIP3    H2 6396   5.388   7.358   1.084
 2151TIP3   OH2 6397   6.741   3.857   2.353
 2151TIP3    H1 6398   6.736   3.835   2.446
 2151TIP3    H2 6399   6.835   3.860   2.335
 2152TIP3   OH2 6400   5.083   4.322   0.933
 2152TIP3    H1 6401   5.042   4.378   0.866
 2152TIP3    H2 6402   5.034   4.240   0.929
 2153TIP3   OH2 6403   7.163   2.430   0.602
 2153TIP3    H1 6404   7.205   2.394   0.524
 2153TIP3    H2 6405   7.226   2.495   0.635
 2154TIP3   OH2 6406   3.470   2.983   4.540
 2154TIP3    H1 6407   3.400   3.010   4.482
 2154TIP3    H2 6408   3.517   2.915   4.491
 2155TIP3   OH2 6409   3.430   5.669   1.534
 2155TIP3    H1 6410   3.442   5.652   1.440
 2155TIP3    H2 6411   3.487   5.744   1.552
 2156TIP3   OH2 6412   5.974   2.360   0.894
 2156TIP3    H1 6413   5.954   2.342   0.985
 2156TIP3    H2 6414   5.895   2.333   0.846
 2157TIP3   OH2 6415   2.236   1.502   4.380
 2157TIP3    H1 6416   2.294   1.578   4.376
 2157TIP3    H2 6417   2.295   1.427   4.383
 2158TIP3   OH2 6418   6.180   7.820   0.639
 2158TIP3    H1 6419   6.162   7.731   0.610
 2158TIP3    H2 6420   6.103   7.870   0.613
 2159TIP3   OH2 6421   8.091   6.203   6.136
 2159TIP3    H1 6422   8.031   6.269   6.100
 2159TIP3    H2 6423   8.041   6.122   6.134
 2160TIP3   OH2 6424   3.490   3.510   1.018
 2160TIP3    H1 6425   3.562   3.476   1.072
 2160TIP3    H2 6426   3.412   3.499   1.072
 2161TIP3   OH2 6427   3.728   0.089   4.668
 2161TIP3    H1 6428   3.729   0.073   4.574
 2161TIP3    H2 6429   3.735   0.002   4.708
 2162TIP3   OH2 6430   2.980   2.497   3.018
 2162TIP3    H1 6431   2.912   2.442   2.978
 2162TIP3    H2 6432   2.942   2.585   3.020
 2163TIP3   OH2 6433   5.186   0.209   0.233
 2163TIP3    H1 6434   5.202   0.142   0.300
 2163TIP3    H2 6435   5.211   0.167   0.151
 2164TIP3   OH2 6436   2.135   1.586   1.799
 2164TIP3    H1 6437   2.094   1.507   1.834
 2164TIP3    H2 6438   2.107   1.656   1.858
 2165TIP3   OH2 6439   0.861   4.608   4.931
 2165TIP3    H1 6440   0.826   4.621   4.843
 2165TIP3    H2 6441   0.841   4.689   4.977
 2166TIP3   OH2 6442   2.768   7.218   3.674
 2166TIP3    H1 6443   2.712   7.242   3.600
 2166TIP3    H2 6444   2.707   7.192   3.742
 2167TIP3   OH2 6445   2.969   4.453   0.932
 2167TIP3    H1 6446   2.989   4.535   0.979
 2167TIP3    H2 6447   3.053   4.427   0.894
 2168TIP3   OH2 6448   0.570   3.586   0.491
 2168TIP3    H1 6449   0.596   3.505   0.535
 2168TIP3    H2 6450   0.632   3.596   0.419
 2169TIP3   OH2 6451   1.032   4.464   2.236
 2169TIP3    H1 6452   1.077   4.388   2.274
 2169TIP3    H2 6453   0.948   4.467   2.280
 2170TIP3   OH2 6454   2.387   4.022   6.486
 2170TIP3    H1 6455   2.412   3.990   6.573
 2170TIP3    H2 6456   2.380   4.117   6.496
 2171TIP3   OH2 6457   3.047   2.595   5.954
 2171TIP3    H1 6458   3.022   2.503   5.960
 2171TIP3    H2 6459   2.986   2.640   6.013
 2172TIP3   OH2 6460   7.488   4.499   0.309
 2172TIP3    H1 6461   7.418   4.463   0.254
 2172TIP3    H2 6462   7.442   4.535   0.385
 2173TIP3   OH2 6463   3.580   3.959   4.853
 2173TIP3    H1 6464   3.558   3.950   4.760
 2173TIP3    H2 6465   3.622   4.044   4.860
 2174TIP3   OH2 6466   2.900   7.315   4.284
 2174TIP3    H1 6467   2.947   7.241   4.321
 2174TIP3    H2 6468   2.809   7.302   4.311
 2175TIP3   OH2 6469   6.198   5.721   6.699
 2175TIP3    H1 6470   6.206   5.766   6.783
 2175TIP3    H2 6471   6.133   5.653   6.714
 2176TIP3   OH2 6472   7.254   7.055   6.343
 2176TIP3    H1 6473   7.279   7.050   6.251
 2176TIP3    H2 6474   7.246   6.963   6.371
 2177TIP3   OH2 6475   4.553   5.213   3.776
 2177TIP3    H1 6476   4.555   5.262   3.859
 2177TIP3    H2 6477   4.548   5.121   3.803
 2178TIP3   OH2 6478   5.082   0.157   1.656
 2178TIP3    H1 6479   5.165   0.118   1.629
 2178TIP3    H2 6480   5.085   0.246   1.621
 2179TIP3   OH2 6481   6.072   1.459   5.018
 2179TIP3    H1 6482   6.164   1.480   5.000
 2179TIP3    H2 6483   6.024   1.511   4.953
 2180TIP3   OH2 6484   0.572   2.307   4.114
 2180TIP3    H1 6485   0.565   2.216   4.144
 2180TIP3    H2 6486   0.622   2.302   4.033
 2181TIP3   OH2 6487   4.009   2.331   2.686
 2181TIP3    H1 6488   3.964   2.403   2.642
 2181TIP3    H2 6489   4.063   2.291   2.618
 2182TIP3   OH2 6490   7.311   5.793   1.950
 2182TIP3    H1 6491   7.320   5.709   1.905
 2182TIP3    H2 6492   7.238   5.837   1.906
 2183TIP3   OH2 6493   2.604   4.855   0.478
 2183TIP3    H1 6494   2.598   4.843   0.573
 2183TIP3    H2 6495   2.698   4.864   0.462
 2184TIP3   OH2 6496   3.226   5.576   1.679
 2184TIP3    H1 6497   3.195   5.661   1.708
 2184TIP3    H2 6498   3.281   5.595   1.602
 2185TIP3   OH2 6499   3.152   4.976   2.977
 2185TIP3    H1 6500   3.123   4.931   2.897
 2185TIP3    H2 6501   3.247   4.967   2.976
 2186TIP3   OH2 6502   6.405   0.487   5.941
 2186TIP3    H1 6503   6.409   0.400   5.900
 2186TIP3    H2 6504   6.333   0.531   5.895
 2187TIP3   OH2 6505   2.893   1.686   5.595
 2187TIP3    H1 6506   2.942   1.654   5.519
 2187TIP3    H2 6507   2.882   1.780   5.579
 2188TIP3   OH2 6508   1.121   6.618   3.645
 2188TIP3    H1 6509   1.076   6.583   3.722
 2188TIP3    H2 6510   1.051   6.635   3.582
 2189TIP3   OH2 6511   4.065   6.730   6.182
 2189TIP3    H1 6512   4.147   6.732   6.133
 2189TIP3    H2 6513   3.997   6.746   6.116
 2190TIP3   OH2 6514   7.568   4.736   6.425
 2190TIP3    H1 6515   7.521   4.654   6.411
 2190TIP3    H2 6516   7.519   4.781   6.494
 2191TIP3   OH2 6517   2.238   3.399   1.030
 2191TIP3    H1 6518   2.312   3.438   1.076
 2191TIP3    H2 6519   2.165   3.407   1.091
 2192TIP3   OH2 6520   5.492   6.781   3.462
 2192TIP3    H1 6521   5.574   6.830   3.465
 2192TIP3    H2 6522   5.474   6.770   3.369
 2193TIP3   OH2 6523   7.815   0.211   5.779
 2193TIP3    H1 6524   7.755   0.141   5.750
 2193TIP3    H2 6525   7.874   0.168   5.840
 2194TIP3   OH2 6526   2.541   6.197   5.460
 2194TIP3    H1 6527   2.486   6.124   5.433
 2194TIP3    H2 6528   2.604   6.208   5.389
 2195TIP3   OH2 6529   5.129   7.378   4.573
 2195TIP3    H1 6530   5.092   7.377   4.661
 2195TIP3    H2 6531   5.063   7.337   4.518
 2196TIP3   OH2 6532   4.697   2.045   3.195
 2196TIP3    H1 6533   4.713   1.987   3.269
 2196TIP3    H2 6534   4.734   2.129   3.222
 2197TIP3   OH2 6535   7.983   5.447   2.490
 2197TIP3    H1 6536   7.944   5.506   2.554
 2197TIP3    H2 6537   8.066   5.489   2.466
 2198TIP3   OH2 6538   5.998   5.659   4.284
 2198TIP3    H1 6539   6.068   5.593   4.289
 2198TIP3    H2 6540   5.991   5.679   4.190
 2199TIP3   OH2 6541   2.571   6.054   0.425
 2199TIP3    H1 6542   2.545   5.975   0.378
 2199TIP3    H2 6543   2.555   6.125   0.364
 2200TIP3   OH2 6544   1.233   4.573   4.779
 2200TIP3    H1 6545   1.154   4.596   4.729
 2200TIP3    H2 6546   1.287   4.651   4.775
 2201TIP3   OH2 6547   1.563   2.238   5.381
 2201TIP3    H1 6548   1.631   2.256   5.317
 2201TIP3    H2 6549   1.499   2.184   5.334
 2202TIP3   OH2 6550   5.576   2.634   6.677
 2202TIP3    H1 6551   5.505   2.685   6.716
 2202TIP3    H2 6552   5.544   2.611   6.589
 2203TIP3   OH2 6553   6.563   1.536   2.119
 2203TIP3    H1 6554   6.521   1.573   2.196
 2203TIP3    H2 6555   6.521   1.580   2.045
 2204TIP3   OH2 6556   0.653   1.412   6.163
 2204TIP3    H1 6557   0.581   1.463   6.124
 2204TIP3    H2 6558   0.688   1.361   6.090
 2205TIP3   OH2 6559   3.837   4.287   1.391
 2205TIP3    H1 6560   3.809   4.376   1.368
 2205TIP3    H2 6561   3.891   4.299   1.470
 2206TIP3   OH2 6562   0.853   3.629   6.210
 2206TIP3    H1 6563   0.775   3.683   6.223
 2206TIP3    H2 6564   0.881   3.606   6.298
 2207TIP3   OH2 6565   3.296   2.647   5.162
 2207TIP3    H1 6566   3.281   2.566   5.212
 2207TIP3    H2 6567   3.348   2.618   5.087
 2208TIP3   OH2 6568   1.932   6.943   3.959
 2208TIP3    H1 6569   2.022   6.959   3.930
 2208TIP3    H2 6570   1.878   6.987   3.893
 2209TIP3   OH2 6571   1.098   1.071   3.679
 2209TIP3    H1 6572   1.045   1.094   3.602
 2209TIP3    H2 6573   1.087   1.145   3.738
 2210TIP3   OH2 6574   1.809   5.771   5.893
 2210TIP3    H1 6575   1.734   5.817   5.856
 2210TIP3    H2 6576   1.838   5.826   5.966
 2211TIP3   OH2 6577   4.308   7.380   2.569
 2211TIP3    H1 6578   4.243   7.385   2.500
 2211TIP3    H2 6579   4.375   7.444   2.544
 2212TIP3   OH2 6580   4.209   1.486   2.762
 2212TIP3    H1 6581   4.248   1.566   2.797
 2212TIP3    H2 6582   4.173   1.441   2.838
 2213TIP3   OH2 6583   0.399   0.310   2.248
 2213TIP3    H1 6584   0.468   0.347   2.194
 2213TIP3    H2 6585   0.439   0.233   2.289
 2214TIP3   OH2 6586   7.350   3.291   1.502
 2214TIP3    H1 6587   7.396   3.314   1.583
 2214TIP3    H2 6588   7.404   3.328   1.432
 2215TIP3   OH2 6589   2.481   6.877   5.797
 2215TIP3    H1 6590   2.493   6.862   5.891
 2215TIP3    H2 6591   2.416   6.946   5.792
 2216TIP3   OH2 6592   4.884   3.257   3.572
 2216TIP3    H1 6593   4.886   3.348   3.598
 2216TIP3    H2 6594   4.836   3.213   3.642
 2217TIP3   OH2 6595   0.272   0.790   4.306
 2217TIP3    H1 6596   0.302   0.835   4.385
 2217TIP3    H2 6597   0.181   0.818   4.294
 2218TIP3   OH2 6598   0.498   1.129   4.098
 2218TIP3    H1 6599   0.451   1.059   4.143
 2218TIP3    H2 6600   0.541   1.085   4.024
 2219TIP3   OH2 6601   4.468   5.750   5.078
 2219TIP3    H1 6602   4.443   5.822   5.135
 2219TIP3    H2 6603   4.423   5.767   4.996
 2220TIP3   OH2 6604   3.112   2.453   1.686
 2220TIP3    H1 6605   3.196   2.498   1.676
 2220TIP3    H2 6606   3.115   2.416   1.774
 2221TIP3   OH2 6607   2.441   0.655   2.284
 2221TIP3    H1 6608   2.406   0.707   2.211
 2221TIP3    H2 6609   2.365   0.611   2.321
 2222TIP3   OH2 6610   4.558   6.270   5.831
 2222TIP3    H1 6611   4.597   6.340   5.779
 2222TIP3    H2 6612   4.494   6.229   5.772
 2223TIP3   OH2 6613   2.573   3.632   2.091
 2223TIP3    H1 6614   2.530   3.547   2.079
 2223TIP3    H2 6615   2.652   3.612   2.142
 2224TIP3   OH2 6616   3.664   2.297   6.586
 2224TIP3    H1 6617   3.608   2.248   6.526
 2224TIP3    H2 6618   3.632   2.275   6.673
 2225TIP3   OH2 6619   1.003   4.845   6.353
 2225TIP3    H1 6620   0.940   4.799   6.407
 2225TIP3    H2 6621   0.966   4.843   6.265
 2226TIP3   OH2 6622   7.204   5.165   3.504
 2226TIP3    H1 6623   7.256   5.130   3.432
 2226TIP3    H2 6624   7.170   5.087   3.548
 2227TIP3   OH2 6625   4.875   7.775   1.061
 2227TIP3    H1 6626   4.780   7.774   1.051
 2227TIP3    H2 6627   4.904   7.694   1.018
 2228TIP3   OH2 6628   3.579   5.261   6.623
 2228TIP3    H1 6629   3.506   5.222   6.574
 2228TIP3    H2 6630   3.621   5.320   6.561
 2229TIP3   OH2 6631   7.620   1.747   5.025
 2229TIP3    H1 6632   7.657   1.789   4.948
 2229TIP3    H2 6633   7.587   1.663   4.992
 2230TIP3   OH2 6634   7.991   5.129   6.479
 2230TIP3    H1 6635   7.940   5.199   6.437
 2230TIP3    H2 6636   8.080   5.144   6.450
 2231TIP3   OH2 6637   3.216   1.549   5.403
 2231TIP3    H1 6638   3.186   1.458   5.403
 2231TIP3    H2 6639   3.251   1.563   5.491
 2232TIP3   OH2 6640   1.000   7.079   4.260
 2232TIP3    H1 6641   0.951   7.011   4.306
 2232TIP3    H2 6642   0.997   7.155   4.319
 2233TIP3   OH2 6643   6.190   2.799   1.231
 2233TIP3    H1 6644   6.226   2.788   1.319
 2233TIP3    H2 6645   6.103   2.837   1.246
 2234TIP3   OH2 6646   3.175   1.424   5.047
 2234TIP3    H1 6647   3.088   1.453   5.073
 2234TIP3    H2 6648   3.229   1.504   5.048
 2235TIP3   OH2 6649   2.215   6.249   3.537
 2235TIP3    H1 6650   2.307   6.239   3.560
 2235TIP3    H2 6651   2.202   6.344   3.529
 2236TIP3   OH2 6652   0.390   1.393   5.066
 2236TIP3    H1 6653   0.363   1.474   5.023
 2236TIP3    H2 6654   0.424   1.421   5.151
 2237TIP3   OH2 6655   6.741   7.057   1.213
 2237TIP3    H1 6656   6.688   6.978   1.208
 2237TIP3    H2 6657   6.694   7.121   1.159
 2238TIP3   OH2 6658   0.946   0.630   6.370
 2238TIP3    H1 6659   0.958   0.591   6.284
 2238TIP3    H2 6660   1.021   0.687   6.382
 2239TIP3   OH2 6661   7.882   3.202   4.900
 2239TIP3    H1 6662   7.835   3.262   4.842
 2239TIP3    H2 6663   7.975   3.225   4.887
 2240TIP3   OH2 6664   2.020   7.725   4.836
 2240TIP3    H1 6665   1.960   7.735   4.762
 2240TIP3    H2 6666   2.097   7.776   4.811
 2241TIP3   OH2 6667   8.147   5.180   1.305
 2241TIP3    H1 6668   8.124   5.259   1.256
 2241TIP3    H2 6669   8.072   5.122   1.292
 2242TIP3   OH2 6670   3.024   0.477   2.930
 2242TIP3    H1 6671   3.107   0.520   2.910
 2242TIP3    H2 6672   3.036   0.386   2.902
 2243TIP3   OH2 6673   8.297   5.426   5.407
 2243TIP3    H1 6674   8.248   5.344   5.404
 2243TIP3    H2 6675   8.294   5.452   5.499
 2244TIP3   OH2 6676   7.095   7.206   3.002
 2244TIP3    H1 6677   7.035   7.135   3.028
 2244TIP3    H2 6678   7.176   7.187   3.048
 2245TIP3   OH2 6679   6.818   2.806   5.907
 2245TIP3    H1 6680   6.833   2.844   5.994
 2245TIP3    H2 6681   6.863   2.866   5.847
 2246TIP3   OH2 6682   6.830   2.312   1.487
 2246TIP3    H1 6683   6.798   2.225   1.510
 2246TIP3    H2 6684   6.826   2.315   1.392
 2247TIP3   OH2 6685   3.953   5.899   1.007
 2247TIP3    H1 6686   3.984   5.827   1.061
 2247TIP3    H2 6687   3.874   5.866   0.965
 2248TIP3   OH2 6688   7.234   1.558   2.534
 2248TIP3    H1 6689   7.170   1.533   2.467
 2248TIP3    H2 6690   7.186   1.616   2.593
 2249TIP3   OH2 6691   4.326   4.316   1.660
 2249TIP3    H1 6692   4.245   4.367   1.669
 2249TIP3    H2 6693   4.381   4.368   1.602
 2250TIP3   OH2 6694   4.648   7.075   6.690
 2250TIP3    H1 6695   4.719   7.140   6.698
 2250TIP3    H2 6696   4.609   7.093   6.604
 2251TIP3   OH2 6697   5.123   3.439   5.598
 2251TIP3    H1 6698   5.196   3.500   5.612
 2251TIP3    H2 6699   5.088   3.423   5.685
 2252TIP3   OH2 6700   3.345   7.384   2.156
 2252TIP3    H1 6701   3.402   7.431   2.095
 2252TIP3    H2 6702   3.355   7.430   2.239
 2253TIP3   OH2 6703   7.796   6.652   3.448
 2253TIP3    H1 6704   7.816   6.572   3.496
 2253TIP3    H2 6705   7.881   6.696   3.439
 2254TIP3   OH2 6706   6.846   2.567   0.691
 2254TIP3    H1 6707   6.936   2.545   0.715
 2254TIP3    H2 6708   6.822   2.500   0.627
 2255TIP3   OH2 6709   4.066   1.448   6.644
 2255TIP3    H1 6710   4.048   1.371   6.590
 2255TIP3    H2 6711   4.088   1.412   6.730
 2256TIP3   OH2 6712   4.870   2.512   5.776
 2256TIP3    H1 6713   4.813   2.567   5.722
 2256TIP3    H2 6714   4.851   2.538   5.866
 2257TIP3   OH2 6715   2.463   4.362   4.617
 2257TIP3    H1 6716   2.453   4.272   4.647
 2257TIP3    H2 6717   2.509   4.354   4.533
 2258TIP3   OH2 6718   0.679   6.271   0.716
 2258TIP3    H1 6719   0.761   6.285   0.764
 2258TIP3    H2 6720   0.707   6.246   0.628
 2259TIP3   OH2 6721   2.784   1.788   3.588
 2259TIP3    H1 6722   2.840   1.710   3.590
 2259TIP3    H2 6723   2.707   1.763   3.639
 2260TIP3   OH2 6724   3.987   4.443   1.149
 2260TIP3    H1 6725   3.935   4.522   1.140
 2260TIP3    H2 6726   3.930   4.373   1.117
 2261TIP3   OH2 6727   2.085   4.761   4.153
 2261TIP3    H1 6728   2.078   4.856   4.149
 2261TIP3    H2 6729   2.174   4.744   4.183
 2262TIP3   OH2 6730   3.654   7.386   5.079
 2262TIP3    H1 6731   3.577   7.414   5.031
 2262TIP3    H2 6732   3.636   7.295   5.103
 2263TIP3   OH2 6733   4.032   1.901   4.391
 2263TIP3    H1 6734   4.082   1.983   4.391
 2263TIP3    H2 6735   3.952   1.923   4.439
 2264TIP3   OH2 6736   7.524   3.058   1.619
 2264TIP3    H1 6737   7.492   3.134   1.572
 2264TIP3    H2 6738   7.620   3.068   1.619
 2265TIP3   OH2 6739   6.771   6.401   6.014
 2265TIP3    H1 6740   6.842   6.382   6.076
 2265TIP3    H2 6741   6.697   6.350   6.047
 2266TIP3   OH2 6742   4.601   7.148   0.341
 2266TIP3    H1 6743   4.524   7.205   0.334
 2266TIP3    H2 6744   4.675   7.207   0.327
 2267TIP3   OH2 6745   4.712   5.817   4.959
 2267TIP3    H1 6746   4.630   5.804   5.007
 2267TIP3    H2 6747   4.776   5.838   5.027
 2268TIP3   OH2 6748   6.590   2.489   1.370
 2268TIP3    H1 6749   6.632   2.565   1.409
 2268TIP3    H2 6750   6.652   2.456   1.305
 2269TIP3   OH2 6751   1.030   3.675   5.986
 2269TIP3    H1 6752   0.938   3.699   5.973
 2269TIP3    H2 6753   1.029   3.616   6.061
 2270TIP3   OH2 6754   5.390   5.227   3.717
 2270TIP3    H1 6755   5.381   5.311   3.673
 2270TIP3    H2 6756   5.473   5.233   3.763
 2271TIP3   OH2 6757   7.181   3.272   1.129
 2271TIP3    H1 6758   7.116   3.209   1.098
 2271TIP3    H2 6759   7.141   3.357   1.114
 2272TIP3   OH2 6760   0.712   7.793   0.362
 2272TIP3    H1 6761   0.734   7.706   0.329
 2272TIP3    H2 6762   0.747   7.795   0.451
 2273TIP3   OH2 6763   1.134   6.161   6.400
 2273TIP3    H1 6764   1.150   6.086   6.457
 2273TIP3    H2 6765   1.067   6.131   6.338
 2274TIP3   OH2 6766   2.222   4.472   1.194
 2274TIP3    H1 6767   2.272   4.456   1.113
 2274TIP3    H2 6768   2.242   4.563   1.216
 2275TIP3   OH2 6769   1.636   7.758   2.409
 2275TIP3    H1 6770   1.703   7.757   2.340
 2275TIP3    H2 6771   1.635   7.668   2.442
 2276TIP3   OH2 6772   3.939   4.688   5.720
 2276TIP3    H1 6773   3.979   4.621   5.664
 2276TIP3    H2 6774   3.847   4.690   5.693
 2277TIP3   OH2 6775   3.533   1.386   2.262
 2277TIP3    H1 6776   3.483   1.364   2.341
 2277TIP3    H2 6777   3.569   1.302   2.233
 2278TIP3   OH2 6778   4.095   3.976   0.497
 2278TIP3    H1 6779   4.148   3.911   0.543
 2278TIP3    H2 6780   4.075   3.935   0.413
 2279TIP3   OH2 6781   4.490   6.350   1.031
 2279TIP3    H1 6782   4.481   6.445   1.036
 2279TIP3    H2 6783   4.414   6.321   0.980
 2280TIP3   OH2 6784   5.412   3.961   1.054
 2280TIP3    H1 6785   5.353   4.035   1.040
 2280TIP3    H2 6786   5.452   3.978   1.139
 2281TIP3   OH2 6787   1.154   2.057   0.540
 2281TIP3    H1 6788   1.153   2.123   0.608
 2281TIP3    H2 6789   1.144   2.106   0.458
 2282TIP3   OH2 6790   6.597   5.149   0.996
 2282TIP3    H1 6791   6.550   5.136   0.913
 2282TIP3    H2 6792   6.584   5.241   1.017
 2283TIP3   OH2 6793   1.841   6.779   5.106
 2283TIP3    H1 6794   1.861   6.821   5.190
 2283TIP3    H2 6795   1.907   6.710   5.097
 2284TIP3   OH2 6796   6.883   1.182   1.810
 2284TIP3    H1 6797   6.902   1.246   1.742
 2284TIP3    H2 6798   6.907   1.098   1.770
 2285TIP3   OH2 6799   2.049   5.768   2.673
 2285TIP3    H1 6800   1.958   5.797   2.665
 2285TIP3    H2 6801   2.053   5.691   2.616
 2286TIP3   OH2 6802   4.092   4.222   0.256
 2286TIP3    H1 6803   4.070   4.131   0.276
 2286TIP3    H2 6804   4.011   4.271   0.275
 2287TIP3   OH2 6805   1.129   0.820   3.347
 2287TIP3    H1 6806   1.076   0.741   3.332
 2287TIP3    H2 6807   1.100   0.881   3.279
 2288TIP3   OH2 6808   0.266   0.180   5.939
 2288TIP3    H1 6809   0.277   0.110   6.003
 2288TIP3    H2 6810   0.339   0.169   5.879
 2289TIP3   OH2 6811   5.051   7.314   3.541
 2289TIP3    H1 6812   5.110   7.318   3.616
 2289TIP3    H2 6813   4.969   7.352   3.573
 2290TIP3   OH2 6814   7.464   6.177   1.717
 2290TIP3    H1 6815   7.395   6.196   1.654
 2290TIP3    H2 6816   7.491   6.263   1.751
 2291TIP3   OH2 6817   6.637   7.629   5.117
 2291TIP3    H1 6818   6.592   7.673   5.189
 2291TIP3    H2 6819   6.584   7.551   5.100
 2292TIP3   OH2 6820   5.249   5.079   3.889
 2292TIP3    H1 6821   5.187   5.151   3.876
 2292TIP3    H2 6822   5.317   5.095   3.824
 2293TIP3   OH2 6823   8.163   3.640   3.462
 2293TIP3    H1 6824   8.248   3.676   3.437
 2293TIP3    H2 6825   8.106   3.717   3.471
 2294TIP3   OH2 6826   3.657   2.416   3.274
 2294TIP3    H1 6827   3.661   2.365   3.356
 2294TIP3    H2 6828   3.564   2.421   3.253
 2295TIP3   OH2 6829   2.400   0.246   5.492
 2295TIP3    H1 6830   2.402   0.305   5.568
 2295TIP3    H2 6831   2.362   0.165   5.527
 2296TIP3   OH2 6832   8.138   7.431   4.026
 2296TIP3    H1 6833   8.225   7.400   4.052
 2296TIP3    H2 6834   8.141   7.432   3.931
 2297TIP3   OH2 6835   4.127   2.805   5.719
 2297TIP3    H1 6836   4.178   2.884   5.736
 2297TIP3    H2 6837   4.036   2.835   5.716
 2298TIP3   OH2 6838   3.119   1.817   0.315
 2298TIP3    H1 6839   3.125   1.740   0.257
 2298TIP3    H2 6840   3.069   1.785   0.391
 2299TIP3   OH2 6841   3.751   3.740   4.512
 2299TIP3    H1 6842   3.796   3.662   4.480
 2299TIP3    H2 6843   3.666   3.709   4.542
 2300TIP3   OH2 6844   0.544   4.579   0.960
 2300TIP3    H1 6845   0.461   4.627   0.955
 2300TIP3    H2 6846   0.600   4.621   0.895
 2301TIP3   OH2 6847   2.389   4.121   3.533
 2301TIP3    H1 6848   2.341   4.044   3.564
 2301TIP3    H2 6849   2.404   4.173   3.612
 2302TIP3   OH2 6850   7.319   3.561   6.029
 2302TIP3    H1 6851   7.229   3.547   6.001
 2302TIP3    H2 6852   7.314   3.567   6.124
 2303TIP3   OH2 6853   4.616   4.987   2.547
 2303TIP3    H1 6854   4.618   4.893   2.566
 2303TIP3    H2 6855   4.532   5.001   2.504
 2304TIP3   OH2 6856   0.256   4.227   2.279
 2304TIP3    H1 6857   0.231   4.165   2.210
 2304TIP3    H2 6858   0.190   4.213   2.348
 2305TIP3   OH2 6859   1.179   5.211   6.408
 2305TIP3    H1 6860   1.188   5.118   6.427
 2305TIP3    H2 6861   1.238   5.227   6.335
 2306TIP3   OH2 6862   7.897   2.800   6.149
 2306TIP3    H1 6863   7.870   2.818   6.059
 2306TIP3    H2 6864   7.959   2.728   6.142
 2307TIP3   OH2 6865   4.057   1.444   1.169
 2307TIP3    H1 6866   4.054   1.539   1.182
 2307TIP3    H2 6867   4.044   1.433   1.074
 2308TIP3   OH2 6868   6.612   4.995   0.394
 2308TIP3    H1 6869   6.644   4.958   0.476
 2308TIP3    H2 6870   6.553   4.928   0.359
 2309TIP3   OH2 6871   4.367   4.341   2.623
 2309TIP3    H1 6872   4.389   4.413   2.564
 2309TIP3    H2 6873   4.400   4.263   2.578
 2310TIP3   OH2 6874   1.271   2.987   3.549
 2310TIP3    H1 6875   1.355   2.945   3.569
 2310TIP3    H2 6876   1.224   2.923   3.497
 2311TIP3   OH2 6877   4.560   0.395   5.737
 2311TIP3    H1 6878   4.466   0.398   5.720
 2311TIP3    H2 6879   4.582   0.302   5.733
 2312TIP3   OH2 6880   6.757   3.156   2.808
 2312TIP3    H1 6881   6.737   3.239   2.764
 2312TIP3    H2 6882   6.781   3.182   2.897
 2313TIP3   OH2 6883   5.377   6.941   1.144
 2313TIP3    H1 6884   5.359   7.022   1.192
 2313TIP3    H2 6885   5.391   6.969   1.053
 2314TIP3   OH2 6886   4.302   6.548   4.103
 2314TIP3    H1 6887   4.275   6.534   4.194
 2314TIP3    H2 6888   4.397   6.531   4.104
 2315TIP3   OH2 6889   6.882   2.312   0.015
 2315TIP3    H1 6890   6.836   2.232   0.040
 2315TIP3    H2 6891   6.814   2.369  -0.019
 2316TIP3   OH2 6892   3.481   1.003   4.451
 2316TIP3    H1 6893   3.445   1.036   4.534
 2316TIP3    H2 6894   3.448   0.914   4.445
 2317TIP3   OH2 6895   3.240   2.113   1.231
 2317TIP3    H1 6896   3.335   2.100   1.225
 2317TIP3    H2 6897   3.231   2.188   1.289
 2318TIP3   OH2 6898   2.889   5.331   6.325
 2318TIP3    H1 6899   2.821   5.369   6.269
 2318TIP3    H2 6900   2.971   5.370   6.294
 2319TIP3   OH2 6901   3.589   7.758   1.443
 2319TIP3    H1 6902   3.560   7.694   1.508
 2319TIP3    H2 6903   3.514   7.818   1.434
 2320TIP3   OH2 6904   7.880   6.486   3.232
 2320TIP3    H1 6905   7.886   6.550   3.160
 2320TIP3    H2 6906   7.812   6.521   3.289
 2321TIP3   OH2 6907   5.060   4.014   6.629
 2321TIP3    H1 6908   5.008   4.047   6.702
 2321TIP3    H2 6909   5.025   4.059   6.553
 2322TIP3   OH2 6910   0.774   4.242   5.520
 2322TIP3    H1 6911   0.852   4.265   5.468
 2322TIP3    H2 6912   0.764   4.314   5.581
 2323TIP3   OH2 6913   5.758   0.284   1.524
 2323TIP3    H1 6914   5.769   0.301   1.431
 2323TIP3    H2 6915   5.840   0.313   1.564
 2324TIP3   OH2 6916   7.385   5.179   4.645
 2324TIP3    H1 6917   7.444   5.154   4.716
 2324TIP3    H2 6918   7.299   5.186   4.687
 2325TIP3   OH2 6919   3.527   0.149   0.827
 2325TIP3    H1 6920   3.597   0.142   0.892
 2325TIP3    H2 6921   3.571   0.137   0.743
 2326TIP3   OH2 6922   2.376   4.185   4.104
 2326TIP3    H1 6923   2.299   4.239   4.090
 2326TIP3    H2 6924   2.376   4.166   4.198
 2327TIP3   OH2 6925   6.917   0.574   6.203
 2327TIP3    H1 6926   6.925   0.527   6.120
 2327TIP3    H2 6927   6.851   0.641   6.186
 2328TIP3   OH2 6928   3.975   6.505   0.059
 2328TIP3    H1 6929   3.893   6.459   0.045
 2328TIP3    H2 6930   4.038   6.459   0.003
 2329TIP3   OH2 6931   2.952   5.531   4.251
 2329TIP3    H1 6932   2.953   5.518   4.156
 2329TIP3    H2 6933   3.034   5.491   4.282
 2330TIP3   OH2 6934   6.341   2.696   2.103
 2330TIP3    H1 6935   6.322   2.613   2.060
 2330TIP3    H2 6936   6.422   2.726   2.062
 2331TIP3   OH2 6937   0.110   0.851   3.277
 2331TIP3    H1 6938   0.067   0.862   3.362
 2331TIP3    H2 6939   0.196   0.816   3.298
 2332TIP3   OH2 6940   6.453   1.482   3.014
 2332TIP3    H1 6941   6.538   1.438   3.018
 2332TIP3    H2 6942   6.397   1.432   3.073
 2333TIP3   OH2 6943   7.846   6.306   5.911
 2333TIP3    H1 6944   7.889   6.235   5.862
 2333TIP3    H2 6945   7.817   6.265   5.992
 2334TIP3   OH2 6946   0.694   2.411   5.134
 2334TIP3    H1 6947   0.731   2.325   5.111
 2334TIP3    H2 6948   0.749   2.442   5.206
 2335TIP3   OH2 6949   1.053   3.598   4.504
 2335TIP3    H1 6950   1.039   3.566   4.593
 2335TIP3    H2 6951   0.968   3.631   4.477
 2336TIP3   OH2 6952   0.511   0.798   1.367
 2336TIP3    H1 6953   0.558   0.787   1.450
 2336TIP3    H2 6954   0.525   0.889   1.344
 2337TIP3   OH2 6955   2.716   0.096   6.295
 2337TIP3    H1 6956   2.681   0.041   6.366
 2337TIP3    H2 6957   2.785   0.042   6.256
 2338TIP3   OH2 6958   0.859   4.716   3.629
 2338TIP3    H1 6959   0.799   4.790   3.636
 2338TIP3    H2 6960   0.879   4.692   3.720
 2339TIP3   OH2 6961   3.227   5.953   6.222
 2339TIP3    H1 6962   3.153   6.004   6.190
 2339TIP3    H2 6963   3.203   5.862   6.205
 2340TIP3   OH2 6964   2.968   3.957   1.996
 2340TIP3    H1 6965   2.968   3.877   2.050
 2340TIP3    H2 6966   2.915   3.934   1.920
 2341TIP3   OH2 6967   4.177   1.283   2.102
 2341TIP3    H1 6968   4.161   1.204   2.050
 2341TIP3    H2 6969   4.163   1.255   2.192
 2342TIP3   OH2 6970   0.994   5.189   1.603
 2342TIP3    H1 6971   1.044   5.164   1.526
 2342TIP3    H2 6972   0.903   5.167   1.581
 2343TIP3   OH2 6973   3.244   0.488   6.615
 2343TIP3    H1 6974   3.199   0.567   6.646
 2343TIP3    H2 6975   3.212   0.475   6.526
 2344TIP3   OH2 6976   6.771   7.480   5.441
 2344TIP3    H1 6977   6.792   7.431   5.521
 2344TIP3    H2 6978   6.676   7.478   5.436
 2345TIP3   OH2 6979   7.299   5.513   6.302
 2345TIP3    H1 6980   7.310   5.439   6.242
 2345TIP3    H2 6981   7.226   5.562   6.265
 2346TIP3   OH2 6982   6.453   1.717   2.859
 2346TIP3    H1 6983   6.366   1.753   2.849
 2346TIP3    H2 6984   6.441   1.639   2.912
 2347TIP3   OH2 6985   0.583   0.754   6.546
 2347TIP3    H1 6986   0.650   0.814   6.579
 2347TIP3    H2 6987   0.610   0.735   6.456
 2348TIP3   OH2 6988   6.579   3.697   0.714
 2348TIP3    H1 6989   6.657   3.642   0.709
 2348TIP3    H2 6990   6.576   3.742   0.629
 2349TIP3   OH2 6991   4.280   4.188   5.449
 2349TIP3    H1 6992   4.187   4.163   5.451
 2349TIP3    H2 6993   4.299   4.203   5.357
 2350TIP3   OH2 6994   7.322   6.121   3.151
 2350TIP3    H1 6995   7.389   6.151   3.090
 2350TIP3    H2 6996   7.244   6.172   3.129
 2351TIP3   OH2 6997   1.637   0.135   2.380
 2351TIP3    H1 6998   1.612   0.197   2.449
 2351TIP3    H2 6999   1.665   0.057   2.427
 2352TIP3   OH2 7000   2.088   1.684   4.781
 2352TIP3    H1 7001   2.001   1.674   4.819
 2352TIP3    H2 7002   2.144   1.709   4.855
 2353TIP3   OH2 7003   1.671   0.734   4.888
 2353TIP3    H1 7004   1.605   0.715   4.822
 2353TIP3    H2 7005   1.638   0.694   4.968
 2354TIP3   OH2 7006   7.464   7.052   4.302
 2354TIP3    H1 7007   7.388   7.070   4.246
 2354TIP3    H2 7008   7.520   7.129   4.291
 2355TIP3   OH2 7009   7.228   2.952   6.654
 2355TIP3    H1 7010   7.263   2.957   6.743
 2355TIP3    H2 7011   7.134   2.968   6.664
 2356TIP3   OH2 7012   2.696   0.221   5.962
 2356TIP3    H1 7013   2.697   0.179   6.048
 2356TIP3    H2 7014   2.643   0.163   5.907
 2357TIP3   OH2 7015   0.565   6.972   2.386
 2357TIP3    H1 7016   0.565   7.055   2.338
 2357TIP3    H2 7017   0.619   6.989   2.464
 2358TIP3   OH2 7018   1.700   5.778   5.207
 2358TIP3    H1 7019   1.677   5.723   5.281
 2358TIP3    H2 7020   1.760   5.843   5.242
 2359TIP3   OH2 7021   8.031   4.176   2.380
 2359TIP3    H1 7022   8.014   4.254   2.433
 2359TIP3    H2 7023   7.951   4.125   2.386
 2360TIP3   OH2 7024   6.032   2.266   4.332
 2360TIP3    H1 7025   5.943   2.292   4.311
 2360TIP3    H2 7026   6.024   2.220   4.416
 2361TIP3   OH2 7027   2.055   1.231   2.396
 2361TIP3    H1 7028   2.126   1.289   2.370
 2361TIP3    H2 7029   2.010   1.278   2.467
 2362TIP3   OH2 7030   3.134   0.909   1.493
 2362TIP3    H1 7031   3.214   0.889   1.542
 2362TIP3    H2 7032   3.081   0.960   1.554
 2363TIP3   OH2 7033   4.925   0.435   2.601
 2363TIP3    H1 7034   4.875   0.403   2.676
 2363TIP3    H2 7035   5.015   0.441   2.634
 2364TIP3   OH2 7036   3.591   1.908   1.665
 2364TIP3    H1 7037   3.525   1.879   1.729
 2364TIP3    H2 7038   3.674   1.884   1.705
 2365TIP3   OH2 7039   6.308   1.482   3.387
 2365TIP3    H1 7040   6.229   1.428   3.379
 2365TIP3    H2 7041   6.276   1.572   3.391
 2366TIP3   OH2 7042   7.472   4.604   4.300
 2366TIP3    H1 7043   7.381   4.629   4.315
 2366TIP3    H2 7044   7.504   4.669   4.238
 2367TIP3   OH2 7045   6.048   6.492   5.609
 2367TIP3    H1 7046   5.958   6.479   5.639
 2367TIP3    H2 7047   6.084   6.556   5.671
 2368TIP3   OH2 7048   2.024   0.360   2.609
 2368TIP3    H1 7049   2.105   0.309   2.617
 2368TIP3    H2 7050   2.048   0.447   2.640
 2369TIP3   OH2 7051   3.303   1.664   4.190
 2369TIP3    H1 7052   3.247   1.700   4.259
 2369TIP3    H2 7053   3.390   1.697   4.210
 2370TIP3   OH2 7054   5.756   3.933   4.333
 2370TIP3    H1 7055   5.803   3.851   4.316
 2370TIP3    H2 7056   5.759   3.942   4.429
 2371TIP3   OH2 7057   0.377   6.019   0.775
 2371TIP3    H1 7058   0.442   5.958   0.740
 2371TIP3    H2 7059   0.429   6.082   0.826
 2372TIP3   OH2 7060   3.260   4.388   1.183
 2372TIP3    H1 7061   3.316   4.398   1.260
 2372TIP3    H2 7062   3.253   4.477   1.148
 2373TIP3   OH2 7063   8.200   3.414   3.586
 2373TIP3    H1 7064   8.213   3.349   3.517
 2373TIP3    H2 7065   8.205   3.498   3.542
 2374TIP3   OH2 7066   8.083   7.053   0.093
 2374TIP3    H1 7067   8.070   7.141   0.059
 2374TIP3    H2 7068   8.158   7.061   0.153
 2375TIP3   OH2 7069   4.220   2.270   4.854
 2375TIP3    H1 7070   4.228   2.176   4.869
 2375TIP3    H2 7071   4.192   2.305   4.939
 2376TIP3   OH2 7072   2.203   2.787   1.560
 2376TIP3    H1 7073   2.126   2.812   1.610
 2376TIP3    H2 7074   2.277   2.812   1.615
 2377TIP3   OH2 7075   4.231   5.725   2.193
 2377TIP3    H1 7076   4.166   5.662   2.162
 2377TIP3    H2 7077   4.222   5.800   2.135
 2378TIP3   OH2 7078   5.875   0.249   3.740
 2378TIP3    H1 7079   5.907   0.207   3.660
 2378TIP3    H2 7080   5.948   0.242   3.801
 2379TIP3   OH2 7081   7.835   5.319   1.086
 2379TIP3    H1 7082   7.794   5.235   1.065
 2379TIP3    H2 7083   7.813   5.376   1.013
 2380TIP3   OH2 7084   1.863   6.419   0.789
 2380TIP3    H1 7085   1.784   6.398   0.839
 2380TIP3    H2 7086   1.846   6.506   0.753
 2381TIP3   OH2 7087   3.612   6.995   0.932
 2381TIP3    H1 7088   3.548   7.067   0.926
 2381TIP3    H2 7089   3.686   7.033   0.980
 2382TIP3   OH2 7090   4.237   2.408   3.075
 2382TIP3    H1 7091   4.297   2.466   3.122
 2382TIP3    H2 7092   4.159   2.461   3.061
 2383TIP3   OH2 7093   3.890   5.650   1.383
 2383TIP3    H1 7094   3.897   5.724   1.443
 2383TIP3    H2 7095   3.948   5.673   1.310
 2384TIP3   OH2 7096   7.331   2.044   6.519
 2384TIP3    H1 7097   7.372   2.034   6.605
 2384TIP3    H2 7098   7.272   1.970   6.511
 2385TIP3   OH2 7099   7.491   0.103   5.362
 2385TIP3    H1 7100   7.452   0.102   5.274
 2385TIP3    H2 7101   7.565   0.164   5.353
 2386TIP3   OH2 7102   5.421   1.648   1.861
 2386TIP3    H1 7103   5.395   1.689   1.943
 2386TIP3    H2 7104   5.409   1.554   1.876
 2387TIP3   OH2 7105   4.334   6.325   3.625
 2387TIP3    H1 7106   4.354   6.233   3.609
 2387TIP3    H2 7107   4.242   6.324   3.654
 2388TIP3   OH2 7108   7.670   3.734   2.582
 2388TIP3    H1 7109   7.710   3.653   2.551
 2388TIP3    H2 7110   7.698   3.800   2.519
 2389TIP3   OH2 7111   7.235   4.725   6.091
 2389TIP3    H1 7112   7.219   4.764   6.177
 2389TIP3    H2 7113   7.147   4.705   6.057
 2390TIP3   OH2 7114   4.749   4.662   4.018
 2390TIP3    H1 7115   4.790   4.694   4.098
 2390TIP3    H2 7116   4.821   4.653   3.955
 2391TIP3   OH2 7117   0.000   5.835   0.527
 2391TIP3    H1 7118  -0.046   5.905   0.573
 2391TIP3    H2 7119   0.093   5.853   0.542
 2392TIP3   OH2 7120   2.119   6.690   0.720
 2392TIP3    H1 7121   2.130   6.595   0.709
 2392TIP3    H2 7122   2.140   6.706   0.812
 2393TIP3   OH2 7123   0.947   3.307   4.906
 2393TIP3    H1 7124   1.037   3.327   4.934
 2393TIP3    H2 7125   0.948   3.324   4.811
 2394TIP3   OH2 7126   4.699   1.203   4.451
 2394TIP3    H1 7127   4.737   1.279   4.497
 2394TIP3    H2 7128   4.731   1.127   4.500
 2395TIP3   OH2 7129   2.803   7.449   3.392
 2395TIP3    H1 7130   2.815   7.514   3.461
 2395TIP3    H2 7131   2.718   7.409   3.411
 2396TIP3   OH2 7132   5.854   2.283   0.525
 2396TIP3    H1 7133   5.853   2.332   0.443
 2396TIP3    H2 7134   5.926   2.221   0.515
 2397TIP3   OH2 7135   5.258   3.034   4.879
 2397TIP3    H1 7136   5.297   2.990   4.955
 2397TIP3    H2 7137   5.198   3.098   4.917
 2398TIP3   OH2 7138   3.162   0.094   2.527
 2398TIP3    H1 7139   3.130   0.005   2.512
 2398TIP3    H2 7140   3.211   0.116   2.448
 2399TIP3   OH2 7141   0.141   6.838   0.139
 2399TIP3    H1 7142   0.197   6.833   0.216
 2399TIP3    H2 7143   0.182   6.905   0.084
 2400TIP3   OH2 7144   0.486   4.938   2.755
 2400TIP3    H1 7145   0.551   4.918   2.688
 2400TIP3    H2 7146   0.511   4.884   2.831
 2401TIP3   OH2 7147   7.296   0.976   3.993
 2401TIP3    H1 7148   7.229   0.949   4.055
 2401TIP3    H2 7149   7.374   0.925   4.017
 2402TIP3   OH2 7150   7.773   7.601   5.523
 2402TIP3    H1 7151   7.731   7.590   5.438
 2402TIP3    H2 7152   7.708   7.567   5.586
 2403TIP3   OH2 7153   6.623   1.019   0.265
 2403TIP3    H1 7154   6.707   0.993   0.226
 2403TIP3    H2 7155   6.558   0.993   0.200
 2404TIP3   OH2 7156   1.158   6.969   3.073
 2404TIP3    H1 7157   1.179   6.990   2.982
 2404TIP3    H2 7158   1.148   7.055   3.115
 2405TIP3   OH2 7159   7.378   3.967   6.165
 2405TIP3    H1 7160   7.413   4.056   6.159
 2405TIP3    H2 7161   7.382   3.946   6.259
 2406TIP3   OH2 7162   2.444   5.200   5.548
 2406TIP3    H1 7163   2.498   5.122   5.533
 2406TIP3    H2 7164   2.499   5.272   5.519
 2407TIP3   OH2 7165   3.600   7.061   6.550
 2407TIP3    H1 7166   3.674   7.000   6.555
 2407TIP3    H2 7167   3.561   7.045   6.464
 2408TIP3   OH2 7168   2.728   1.254   2.765
 2408TIP3    H1 7169   2.766   1.167   2.765
 2408TIP3    H2 7170   2.649   1.247   2.712
 2409TIP3   OH2 7171   2.472   6.159   3.562
 2409TIP3    H1 7172   2.544   6.156   3.624
 2409TIP3    H2 7173   2.486   6.082   3.506
 2410TIP3   OH2 7174   2.786   5.045   0.319
 2410TIP3    H1 7175   2.880   5.048   0.335
 2410TIP3    H2 7176   2.775   4.974   0.255
 2411TIP3   OH2 7177   4.792   7.068   2.627
 2411TIP3    H1 7178   4.708   7.113   2.638
 2411TIP3    H2 7179   4.769   6.976   2.618
 2412TIP3   OH2 7180   2.493   0.846   1.577
 2412TIP3    H1 7181   2.537   0.823   1.659
 2412TIP3    H2 7182   2.551   0.814   1.508
 2413TIP3   OH2 7183   0.177   3.937   5.439
 2413TIP3    H1 7184   0.234   3.986   5.380
 2413TIP3    H2 7185   0.213   3.848   5.438
 2414TIP3   OH2 7186   5.160   0.077   0.773
 2414TIP3    H1 7187   5.125  -0.003   0.813
 2414TIP3    H2 7188   5.083   0.132   0.760
 2415TIP3   OH2 7189   4.691   1.565   2.931
 2415TIP3    H1 7190   4.683   1.642   2.987
 2415TIP3    H2 7191   4.712   1.494   2.992
 2416TIP3   OH2 7192   0.481   1.162   0.532
 2416TIP3    H1 7193   0.394   1.178   0.497
 2416TIP3    H2 7194   0.474   1.079   0.579
 2417TIP3   OH2 7195   3.283   4.834   0.139
 2417TIP3    H1 7196   3.285   4.917   0.091
 2417TIP3    H2 7197   3.192   4.825   0.167
 2418TIP3   OH2 7198   7.735   0.743   0.996
 2418TIP3    H1 7199   7.801   0.768   1.061
 2418TIP3    H2 7200   7.744   0.648   0.988
 2419TIP3   OH2 7201   4.261   7.083   6.041
 2419TIP3    H1 7202   4.299   7.001   6.074
 2419TIP3    H2 7203   4.187   7.100   6.100
 2420TIP3   OH2 7204   5.231   3.506   2.572
 2420TIP3    H1 7205   5.273   3.420   2.583
 2420TIP3    H2 7206   5.171   3.513   2.646
 2421TIP3   OH2 7207   1.795   5.709   6.698
 2421TIP3    H1 7208   1.829   5.798   6.701
 2421TIP3    H2 7209   1.792   5.688   6.604
 2422TIP3   OH2 7210   3.836   5.252   3.300
 2422TIP3    H1 7211   3.852   5.169   3.345
 2422TIP3    H2 7212   3.924   5.286   3.282
 2423TIP3   OH2 7213   6.625   2.857   0.549
 2423TIP3    H1 7214   6.603   2.887   0.461
 2423TIP3    H2 7215   6.680   2.926   0.586
 2424TIP3   OH2 7216   0.764   1.312   0.396
 2424TIP3    H1 7217   0.680   1.279   0.427
 2424TIP3    H2 7218   0.749   1.337   0.305
 2425TIP3   OH2 7219   4.510   4.084   6.578
 2425TIP3    H1 7220   4.436   4.085   6.638
 2425TIP3    H2 7221   4.574   4.026   6.620
 2426TIP3   OH2 7222   7.228   4.053   5.599
 2426TIP3    H1 7223   7.260   4.132   5.643
 2426TIP3    H2 7224   7.305   3.998   5.590
 2427TIP3   OH2 7225   3.867   0.726   5.763
 2427TIP3    H1 7226   3.892   0.679   5.683
 2427TIP3    H2 7227   3.880   0.663   5.833
 2428TIP3   OH2 7228   6.537   3.777   1.735
 2428TIP3    H1 7229   6.484   3.698   1.746
 2428TIP3    H2 7230   6.599   3.755   1.666
 2429TIP3   OH2 7231   4.227   4.958   6.145
 2429TIP3    H1 7232   4.206   4.880   6.196
 2429TIP3    H2 7233   4.197   5.031   6.200
 2430TIP3   OH2 7234   3.614   1.211   3.999
 2430TIP3    H1 7235   3.580   1.204   3.909
 2430TIP3    H2 7236   3.546   1.172   4.053
 2431TIP3   OH2 7237   8.166   0.453   3.568
 2431TIP3    H1 7238   8.211   0.369   3.564
 2431TIP3    H2 7239   8.087   0.436   3.620
 2432TIP3   OH2 7240   0.552   3.970   1.563
 2432TIP3    H1 7241   0.622   4.026   1.528
 2432TIP3    H2 7242   0.590   3.930   1.641
 2433TIP3   OH2 7243   6.538   2.433   1.072
 2433TIP3    H1 7244   6.574   2.423   0.984
 2433TIP3    H2 7245   6.542   2.527   1.088
 2434TIP3   OH2 7246   8.143   7.248   3.320
 2434TIP3    H1 7247   8.217   7.308   3.311
 2434TIP3    H2 7248   8.181   7.161   3.309
 2435TIP3   OH2 7249   2.407   5.203   1.856
 2435TIP3    H1 7250   2.365   5.118   1.839
 2435TIP3    H2 7251   2.464   5.186   1.932
 2436TIP3   OH2 7252   4.161   2.130   4.402
 2436TIP3    H1 7253   4.248   2.099   4.427
 2436TIP3    H2 7254   4.134   2.187   4.475
 2437TIP3   OH2 7255   1.487   0.654   4.713
 2437TIP3    H1 7256   1.454   0.698   4.634
 2437TIP3    H2 7257   1.409   0.636   4.765
 2438TIP3   OH2 7258   4.724   2.866   6.707
 2438TIP3    H1 7259   4.660   2.911   6.761
 2438TIP3    H2 7260   4.697   2.774   6.708
 2439TIP3   OH2 7261   8.135   2.163   5.995
 2439TIP3    H1 7262   8.137   2.156   6.090
 2439TIP3    H2 7263   8.056   2.116   5.969
 2440TIP3   OH2 7264   2.039   4.862   1.206
 2440TIP3    H1 7265   1.962   4.913   1.230
 2440TIP3    H2 7266   2.015   4.771   1.223
 2441TIP3   OH2 7267   4.766   0.815   4.234
 2441TIP3    H1 7268   4.754   0.842   4.143
 2441TIP3    H2 7269   4.861   0.802   4.242
 2442TIP3   OH2 7270   5.103   6.223   0.667
 2442TIP3    H1 7271   5.018   6.248   0.704
 2442TIP3    H2 7272   5.118   6.135   0.702
 2443TIP3   OH2 7273   1.651   2.868   5.874
 2443TIP3    H1 7274   1.658   2.962   5.890
 2443TIP3    H2 7275   1.617   2.832   5.955
 2444TIP3   OH2 7276   0.386   0.206   0.331
 2444TIP3    H1 7277   0.456   0.197   0.267
 2444TIP3    H2 7278   0.356   0.117   0.347
 2445TIP3   OH2 7279   0.966   5.327   3.067
 2445TIP3    H1 7280   1.041   5.351   3.013
 2445TIP3    H2 7281   0.889   5.351   3.015
 2446TIP3   OH2 7282   7.024   5.375   6.574
 2446TIP3    H1 7283   6.955   5.436   6.548
 2446TIP3    H2 7284   6.977   5.301   6.612
 2447TIP3   OH2 7285   5.156   0.936   1.121
 2447TIP3    H1 7286   5.123   1.023   1.143
 2447TIP3    H2 7287   5.086   0.876   1.148
 2448TIP3   OH2 7288   6.373   3.493   0.102
 2448TIP3    H1 7289   6.358   3.556   0.173
 2448TIP3    H2 7290   6.340   3.410   0.137
 2449TIP3   OH2 7291   5.716   5.560   3.006
 2449TIP3    H1 7292   5.793   5.540   3.059
 2449TIP3    H2 7293   5.732   5.516   2.923
 2450TIP3   OH2 7294   3.854   0.122   1.489
 2450TIP3    H1 7295   3.804   0.194   1.450
 2450TIP3    H2 7296   3.869   0.149   1.580
 2451TIP3   OH2 7297   6.005   3.566   3.853
 2451TIP3    H1 7298   6.028   3.574   3.946
 2451TIP3    H2 7299   5.960   3.648   3.832
 2452TIP3   OH2 7300   2.062   5.087   5.309
 2452TIP3    H1 7301   2.097   5.132   5.385
 2452TIP3    H2 7302   2.123   5.014   5.295
 2453TIP3   OH2 7303   0.326   3.660   1.852
 2453TIP3    H1 7304   0.396   3.668   1.787
 2453TIP3    H2 7305   0.249   3.633   1.801
 2454TIP3   OH2 7306   4.135   3.623   5.708
 2454TIP3    H1 7307   4.137   3.538   5.665
 2454TIP3    H2 7308   4.060   3.617   5.768
 2455TIP3   OH2 7309   0.639   0.782   5.264
 2455TIP3    H1 7310   0.570   0.847   5.273
 2455TIP3    H2 7311   0.617   0.715   5.329
 2456TIP3   OH2 7312   2.412   0.353   0.541
 2456TIP3    H1 7313   2.440   0.410   0.613
 2456TIP3    H2 7314   2.370   0.279   0.585
 2457TIP3   OH2 7315   1.003   7.807   4.375
 2457TIP3    H1 7316   0.912   7.796   4.347
 2457TIP3    H2 7317   1.053   7.793   4.294
 2458TIP3   OH2 7318   7.378   6.162   2.825
 2458TIP3    H1 7319   7.363   6.239   2.769
 2458TIP3    H2 7320   7.452   6.188   2.881
 2459TIP3   OH2 7321   7.340   7.626   3.101
 2459TIP3    H1 7322   7.288   7.705   3.084
 2459TIP3    H2 7323   7.283   7.570   3.152
 2460TIP3   OH2 7324   7.011   0.180   5.710
 2460TIP3    H1 7325   7.069   0.170   5.634
 2460TIP3    H2 7326   7.054   0.133   5.781
 2461TIP3   OH2 7327   4.971   1.523   2.509
 2461TIP3    H1 7328   4.880   1.532   2.536
 2461TIP3    H2 7329   5.006   1.452   2.564
 2462TIP3   OH2 7330   5.394   4.402   3.791
 2462TIP3    H1 7331   5.366   4.465   3.725
 2462TIP3    H2 7332   5.490   4.399   3.781
 2463TIP3   OH2 7333   0.221   3.840   1.186
 2463TIP3    H1 7334   0.222   3.822   1.092
 2463TIP3    H2 7335   0.309   3.873   1.205
 2464TIP3   OH2 7336   4.448   6.755   4.927
 2464TIP3    H1 7337   4.480   6.802   5.004
 2464TIP3    H2 7338   4.391   6.687   4.962
 2465TIP3   OH2 7339   5.251   7.569   2.953
 2465TIP3    H1 7340   5.205   7.492   2.986
 2465TIP3    H2 7341   5.333   7.534   2.917
 2466TIP3   OH2 7342   6.261   1.125   3.042
 2466TIP3    H1 7343   6.312   1.044   3.045
 2466TIP3    H2 7344   6.296   1.179   3.113
 2467TIP3   OH2 7345   4.548   6.417   5.264
 2467TIP3    H1 7346   4.633   6.386   5.296
 2467TIP3    H2 7347   4.554   6.513   5.268
 2468TIP3   OH2 7348   5.686   7.475   1.175
 2468TIP3    H1 7349   5.683   7.558   1.222
 2468TIP3    H2 7350   5.634   7.491   1.096
 2469TIP3   OH2 7351   5.717   1.527   1.148
 2469TIP3    H1 7352   5.732   1.435   1.126
 2469TIP3    H2 7353   5.656   1.558   1.082
 2470TIP3   OH2 7354   1.037   2.491   5.140
 2470TIP3    H1 7355   1.122   2.535   5.133
 2470TIP3    H2 7356   0.980   2.540   5.081
 2471TIP3   OH2 7357   3.415   2.353   6.386
 2471TIP3    H1 7358   3.334   2.404   6.393
 2471TIP3    H2 7359   3.388   2.271   6.346
 2472TIP3   OH2 7360   1.875   2.582   1.024
 2472TIP3    H1 7361   1.813   2.550   1.090
 2472TIP3    H2 7362   1.908   2.664   1.060
 2473TIP3   OH2 7363   1.713   1.691   0.465
 2473TIP3    H1 7364   1.795   1.740   0.460
 2473TIP3    H2 7365   1.739   1.600   0.480
 2474TIP3   OH2 7366   4.136   4.835   1.543
 2474TIP3    H1 7367   4.181   4.803   1.465
 2474TIP3    H2 7368   4.127   4.929   1.529
 2475TIP3   OH2 7369   4.799   2.960   6.463
 2475TIP3    H1 7370   4.750   3.042   6.461
 2475TIP3    H2 7371   4.780   2.922   6.549
 2476TIP3   OH2 7372   1.436   3.651   0.610
 2476TIP3    H1 7373   1.405   3.577   0.662
 2476TIP3    H2 7374   1.362   3.712   0.609
 2477TIP3   OH2 7375   0.668   3.223   0.794
 2477TIP3    H1 7376   0.606   3.293   0.777
 2477TIP3    H2 7377   0.625   3.144   0.761
 2478TIP3   OH2 7378   2.324   5.123   3.575
 2478TIP3    H1 7379   2.400   5.070   3.600
 2478TIP3    H2 7380   2.270   5.064   3.521
 2479TIP3   OH2 7381   5.336   5.731   4.466
 2479TIP3    H1 7382   5.407   5.791   4.488
 2479TIP3    H2 7383   5.257   5.772   4.500
 2480TIP3   OH2 7384   0.655   0.723   4.984
 2480TIP3    H1 7385   0.641   0.754   5.074
 2480TIP3    H2 7386   0.609   0.639   4.981
 2481TIP3   OH2 7387   3.742   0.859   2.710
 2481TIP3    H1 7388   3.719   0.935   2.763
 2481TIP3    H2 7389   3.825   0.881   2.670
 2482TIP3   OH2 7390   0.558   7.195   2.217
 2482TIP3    H1 7391   0.526   7.262   2.277
 2482TIP3    H2 7392   0.553   7.236   2.130
 2483TIP3   OH2 7393   5.923   0.460   3.428
 2483TIP3    H1 7394   5.844   0.485   3.381
 2483TIP3    H2 7395   5.913   0.366   3.442
 2484TIP3   OH2 7396   2.522   0.007   5.199
 2484TIP3    H1 7397   2.617   0.009   5.187
 2484TIP3    H2 7398   2.499   0.099   5.216
 2485TIP3   OH2 7399   0.066   4.156   5.752
 2485TIP3    H1 7400   0.143   4.105   5.728
 2485TIP3    H2 7401  -0.008   4.099   5.730
 2486TIP3   OH2 7402   7.936   5.862   5.166
 2486TIP3    H1 7403   7.971   5.923   5.230
 2486TIP3    H2 7404   7.858   5.826   5.208
 2487TIP3   OH2 7405   4.648   4.123   1.805
 2487TIP3    H1 7406   4.720   4.103   1.865
 2487TIP3    H2 7407   4.672   4.208   1.768
 2488TIP3   OH2 7408   6.001   7.322   3.031
 2488TIP3    H1 7409   5.944   7.245   3.022
 2488TIP3    H2 7410   5.951   7.382   3.086
 2489TIP3   OH2 7411   7.247   4.946   0.622
 2489TIP3    H1 7412   7.290   5.000   0.556
 2489TIP3    H2 7413   7.236   5.004   0.698
 2490TIP3   OH2 7414   4.556   6.322   2.593
 2490TIP3    H1 7415   4.517   6.237   2.613
 2490TIP3    H2 7416   4.649   6.311   2.614
 2491TIP3   OH2 7417   6.688   5.574   3.947
 2491TIP3    H1 7418   6.720   5.653   3.904
 2491TIP3    H2 7419   6.653   5.604   4.030
 2492TIP3   OH2 7420   3.052   6.357   6.181
 2492TIP3    H1 7421   3.139   6.339   6.145
 2492TIP3    H2 7422   2.992   6.329   6.112
 2493TIP3   OH2 7423   7.683   3.114   4.317
 2493TIP3    H1 7424   7.637   3.184   4.363
 2493TIP3    H2 7425   7.621   3.081   4.252
 2494TIP3   OH2 7426   2.471   4.143   5.272
 2494TIP3    H1 7427   2.416   4.065   5.269
 2494TIP3    H2 7428   2.410   4.216   5.281
 2495TIP3   OH2 7429   7.929   2.864   2.451
 2495TIP3    H1 7430   7.846   2.821   2.473
 2495TIP3    H2 7431   7.947   2.920   2.527
 2496TIP3   OH2 7432   3.822   3.989   2.048
 2496TIP3    H1 7433   3.785   3.901   2.040
 2496TIP3    H2 7434   3.834   4.002   2.142
 2497TIP3   OH2 7435   7.841   3.719   0.577
 2497TIP3    H1 7436   7.813   3.640   0.529
 2497TIP3    H2 7437   7.853   3.785   0.508
 2498TIP3   OH2 7438   1.700   1.096   3.723
 2498TIP3    H1 7439   1.609   1.112   3.749
 2498TIP3    H2 7440   1.693   1.048   3.641
 2499TIP3   OH2 7441   7.578   4.929   3.394
 2499TIP3    H1 7442   7.556   4.906   3.304
 2499TIP3    H2 7443   7.611   5.019   3.388
 2500TIP3   OH2 7444   6.611   5.500   1.510
 2500TIP3    H1 7445   6.623   5.567   1.577
 2500TIP3    H2 7446   6.674   5.431   1.533
 2501TIP3   OH2 7447   3.713   2.769   0.061
 2501TIP3    H1 7448   3.621   2.754   0.086
 2501TIP3    H2 7449   3.725   2.864   0.071
 2502TIP3   OH2 7450   7.461   3.343  -0.007
 2502TIP3    H1 7451   7.476   3.253  -0.037
 2502TIP3    H2 7452   7.485   3.341   0.086
 2503TIP3   OH2 7453   8.032   3.867   4.514
 2503TIP3    H1 7454   8.053   3.901   4.601
 2503TIP3    H2 7455   8.097   3.798   4.499
 2504TIP3   OH2 7456   0.282   5.885   6.241
 2504TIP3    H1 7457   0.189   5.870   6.222
 2504TIP3    H2 7458   0.304   5.819   6.307
 2505TIP3   OH2 7459   2.102   0.038   6.476
 2505TIP3    H1 7460   2.130  -0.035   6.531
 2505TIP3    H2 7461   2.092  -0.001   6.388
 2506TIP3   OH2 7462   0.673   4.575   6.721
 2506TIP3    H1 7463   0.663   4.607   6.810
 2506TIP3    H2 7464   0.681   4.480   6.730
 2507TIP3   OH2 7465   0.735   1.175   1.544
 2507TIP3    H1 7466   0.646   1.209   1.553
 2507TIP3    H2 7467   0.747   1.120   1.622
 2508TIP3   OH2 7468   7.400   1.440   6.238
 2508TIP3    H1 7469   7.469   1.473   6.295
 2508TIP3    H2 7470   7.443   1.427   6.153
 2509TIP3   OH2 7471   7.080   4.902   1.412
 2509TIP3    H1 7472   7.098   4.818   1.454
 2509TIP3    H2 7473   7.143   4.907   1.339
 2510TIP3   OH2 7474   3.345   6.573   5.540
 2510TIP3    H1 7475   3.296   6.491   5.546
 2510TIP3    H2 7476   3.381   6.573   5.452
 2511TIP3   OH2 7477   8.114   0.891   0.357
 2511TIP3    H1 7478   8.129   0.985   0.347
 2511TIP3    H2 7479   8.163   0.867   0.436
 2512TIP3   OH2 7480   5.365   4.139   3.254
 2512TIP3    H1 7481   5.310   4.210   3.222
 2512TIP3    H2 7482   5.373   4.154   3.348
 2513TIP3   OH2 7483   6.347   2.411   3.816
 2513TIP3    H1 7484   6.386   2.432   3.901
 2513TIP3    H2 7485   6.393   2.468   3.754
 2514TIP3   OH2 7486   5.663   3.867   4.073
 2514TIP3    H1 7487   5.704   3.878   4.159
 2514TIP3    H2 7488   5.650   3.957   4.041
 2515TIP3   OH2 7489   6.557   0.874   4.282
 2515TIP3    H1 7490   6.509   0.795   4.257
 2515TIP3    H2 7491   6.649   0.847   4.281
 2516TIP3   OH2 7492   6.696   3.706   5.543
 2516TIP3    H1 7493   6.698   3.694   5.448
 2516TIP3    H2 7494   6.725   3.622   5.578
 2517TIP3   OH2 7495   3.647   5.923   1.202
 2517TIP3    H1 7496   3.723   5.919   1.145
 2517TIP3    H2 7497   3.632   6.017   1.217
 2518TIP3   OH2 7498   0.676   5.715   2.841
 2518TIP3    H1 7499   0.619   5.786   2.869
 2518TIP3    H2 7500   0.726   5.752   2.768
 2519TIP3   OH2 7501   7.316   5.138   3.256
 2519TIP3    H1 7502   7.237   5.191   3.244
 2519TIP3    H2 7503   7.342   5.114   3.167
 2520TIP3   OH2 7504   5.861   3.317   3.935
 2520TIP3    H1 7505   5.890   3.395   3.888
 2520TIP3    H2 7506   5.940   3.285   3.978
 2521TIP3   OH2 7507   1.288   5.661   3.822
 2521TIP3    H1 7508   1.368   5.679   3.871
 2521TIP3    H2 7509   1.229   5.732   3.846
 2522TIP3   OH2 7510   7.099   2.200   1.770
 2522TIP3    H1 7511   7.178   2.248   1.745
 2522TIP3    H2 7512   7.027   2.258   1.743
 2523TIP3   OH2 7513   8.203   6.826   4.349
 2523TIP3    H1 7514   8.232   6.813   4.440
 2523TIP3    H2 7515   8.282   6.811   4.297
 2524TIP3   OH2 7516   5.732   4.064   0.293
 2524TIP3    H1 7517   5.649   4.112   0.289
 2524TIP3    H2 7518   5.724   3.996   0.226
 2525TIP3   OH2 7519   3.791   7.789   1.662
 2525TIP3    H1 7520   3.711   7.797   1.611
 2525TIP3    H2 7521   3.833   7.710   1.628
 2526TIP3   OH2 7522   5.702   6.204   6.748
 2526TIP3    H1 7523   5.683   6.144   6.676
 2526TIP3    H2 7524   5.753   6.151   6.810
 2527TIP3   OH2 7525   5.986   2.638   1.120
 2527TIP3    H1 7526   6.066   2.673   1.158
 2527TIP3    H2 7527   6.016   2.575   1.054
 2528TIP3   OH2 7528   5.399   6.455   0.934
 2528TIP3    H1 7529   5.392   6.534   0.987
 2528TIP3    H2 7530   5.354   6.476   0.852
 2529TIP3   OH2 7531   6.050   6.066   6.726
 2529TIP3    H1 7532   6.086   6.010   6.795
 2529TIP3    H2 7533   5.969   6.023   6.700
 2530TIP3   OH2 7534   2.448   5.583   1.581
 2530TIP3    H1 7535   2.464   5.488   1.587
 2530TIP3    H2 7536   2.356   5.593   1.605
 2531TIP3   OH2 7537   0.104   4.739   6.352
 2531TIP3    H1 7538   0.040   4.669   6.343
 2531TIP3    H2 7539   0.079   4.802   6.284
 2532TIP3   OH2 7540   2.207   4.205   5.440
 2532TIP3    H1 7541   2.203   4.292   5.481
 2532TIP3    H2 7542   2.264   4.154   5.497
 2533TIP3   OH2 7543   5.072   7.655   5.560
 2533TIP3    H1 7544   5.103   7.567   5.541
 2533TIP3    H2 7545   5.052   7.693   5.475
 2534TIP3   OH2 7546   7.925   5.595   0.443
 2534TIP3    H1 7547   7.865   5.557   0.507
 2534TIP3    H2 7548   7.936   5.528   0.376
 2535TIP3   OH2 7549   0.603   5.163   0.194
 2535TIP3    H1 7550   0.647   5.242   0.164
 2535TIP3    H2 7551   0.668   5.119   0.249
 2536TIP3   OH2 7552   2.026   4.562   6.162
 2536TIP3    H1 7553   2.109   4.577   6.207
 2536TIP3    H2 7554   1.959   4.591   6.224
 2537TIP3   OH2 7555   7.452   4.260   3.061
 2537TIP3    H1 7556   7.523   4.200   3.038
 2537TIP3    H2 7557   7.412   4.283   2.977
 2538TIP3   OH2 7558   0.445   3.412   3.849
 2538TIP3    H1 7559   0.392   3.383   3.923
 2538TIP3    H2 7560   0.472   3.332   3.805
 2539TIP3   OH2 7561   2.018   5.273   0.869
 2539TIP3    H1 7562   2.028   5.190   0.915
 2539TIP3    H2 7563   1.971   5.250   0.789
 2540TIP3   OH2 7564   6.678   3.953   2.608
 2540TIP3    H1 7565   6.709   3.946   2.699
 2540TIP3    H2 7566   6.709   4.040   2.580
 2541TIP3   OH2 7567   2.459   0.317   2.482
 2541TIP3    H1 7568   2.419   0.230   2.473
 2541TIP3    H2 7569   2.393   0.377   2.449
 2542TIP3   OH2 7570   3.979   7.452   4.147
 2542TIP3    H1 7571   3.910   7.518   4.154
 2542TIP3    H2 7572   3.937   7.378   4.103
 2543TIP3   OH2 7573   6.113   0.580   4.067
 2543TIP3    H1 7574   6.062   0.566   3.987
 2543TIP3    H2 7575   6.140   0.493   4.094
 2544TIP3   OH2 7576   1.662   5.595   5.410
 2544TIP3    H1 7577   1.626   5.621   5.495
 2544TIP3    H2 7578   1.652   5.500   5.408
 2545TIP3   OH2 7579   5.091   0.264   3.261
 2545TIP3    H1 7580   5.114   0.222   3.343
 2545TIP3    H2 7581   5.139   0.347   3.262
 2546TIP3   OH2 7582   5.720   0.239   0.508
 2546TIP3    H1 7583   5.813   0.257   0.495
 2546TIP3    H2 7584   5.718   0.162   0.566
 2547TIP3   OH2 7585   4.579   6.017   1.215
 2547TIP3    H1 7586   4.594   6.053   1.128
 2547TIP3    H2 7587   4.615   6.082   1.275
 2548TIP3   OH2 7588   1.998   2.289   0.796
 2548TIP3    H1 7589   1.930   2.270   0.861
 2548TIP3    H2 7590   2.065   2.336   0.845
 2549TIP3   OH2 7591   3.559   3.419   4.063
 2549TIP3    H1 7592   3.634   3.442   4.008
 2549TIP3    H2 7593   3.493   3.386   4.001
 2550TIP3   OH2 7594   0.679   2.550   4.244
 2550TIP3    H1 7595   0.712   2.592   4.165
 2550TIP3    H2 7596   0.645   2.466   4.215
 2551TIP3   OH2 7597   3.842   4.747   2.632
 2551TIP3    H1 7598   3.812   4.761   2.722
 2551TIP3    H2 7599   3.762   4.742   2.580
 2552TIP3   OH2 7600   6.566   4.982   6.673
 2552TIP3    H1 7601   6.615   4.963   6.753
 2552TIP3    H2 7602   6.604   4.924   6.607
 2553TIP3   OH2 7603   5.005   1.837   3.413
 2553TIP3    H1 7604   5.039   1.916   3.372
 2553TIP3    H2 7605   5.082   1.783   3.431
 2554TIP3   OH2 7606   3.293   3.527   1.460
 2554TIP3    H1 7607   3.321   3.491   1.545
 2554TIP3    H2 7608   3.198   3.524   1.463
 2555TIP3   OH2 7609   1.420   6.490   4.872
 2555TIP3    H1 7610   1.414   6.508   4.779
 2555TIP3    H2 7611   1.349   6.428   4.889
 2556TIP3   OH2 7612   6.840   3.682   1.202
 2556TIP3    H1 7613   6.832   3.685   1.107
 2556TIP3    H2 7614   6.877   3.768   1.225
 2557TIP3   OH2 7615   1.349   7.010   0.939
 2557TIP3    H1 7616   1.265   7.045   0.967
 2557TIP3    H2 7617   1.384   7.076   0.879
 2558TIP3   OH2 7618   3.662   6.322   0.739
 2558TIP3    H1 7619   3.656   6.227   0.724
 2558TIP3    H2 7620   3.572   6.350   0.754
 2559TIP3   OH2 7621   5.495   3.652   4.107
 2559TIP3    H1 7622   5.547   3.732   4.103
 2559TIP3    H2 7623   5.472   3.642   4.199
 2560TIP3   OH2 7624   0.421   4.609   5.899
 2560TIP3    H1 7625   0.347   4.614   5.959
 2560TIP3    H2 7626   0.434   4.515   5.884
 2561TIP3   OH2 7627   3.275   4.677   5.627
 2561TIP3    H1 7628   3.319   4.638   5.552
 2561TIP3    H2 7629   3.207   4.733   5.589
 2562TIP3   OH2 7630   7.524   2.726   5.669
 2562TIP3    H1 7631   7.487   2.700   5.584
 2562TIP3    H2 7632   7.459   2.785   5.706
 2563TIP3   OH2 7633   8.006   2.609   4.420
 2563TIP3    H1 7634   8.065   2.684   4.422
 2563TIP3    H2 7635   7.919   2.647   4.434
 2564TIP3   OH2 7636   3.705   5.326   5.289
 2564TIP3    H1 7637   3.733   5.388   5.222
 2564TIP3    H2 7638   3.758   5.248   5.274
 2565TIP3   OH2 7639   1.412   5.916   1.444
 2565TIP3    H1 7640   1.339   5.872   1.400
 2565TIP3    H2 7641   1.426   5.865   1.523
 2566TIP3   OH2 7642   3.189   3.670   0.642
 2566TIP3    H1 7643   3.141   3.615   0.704
 2566TIP3    H2 7644   3.201   3.615   0.564
 2567TIP3   OH2 7645   1.244   0.472   4.069
 2567TIP3    H1 7646   1.212   0.448   3.982
 2567TIP3    H2 7647   1.220   0.564   4.079
 2568TIP3   OH2 7648   3.333   2.061   2.937
 2568TIP3    H1 7649   3.274   1.998   2.978
 2568TIP3    H2 7650   3.399   2.078   3.004
 2569TIP3   OH2 7651   3.541   0.920   5.903
 2569TIP3    H1 7652   3.527   0.833   5.865
 2569TIP3    H2 7653   3.547   0.904   5.997
 2570TIP3   OH2 7654   8.125   0.748   4.766
 2570TIP3    H1 7655   8.067   0.745   4.842
 2570TIP3    H2 7656   8.211   0.722   4.800
 2571TIP3   OH2 7657   0.665   4.201   4.251
 2571TIP3    H1 7658   0.632   4.149   4.325
 2571TIP3    H2 7659   0.650   4.292   4.277
 2572TIP3   OH2 7660   5.402   1.438   1.039
 2572TIP3    H1 7661   5.425   1.529   1.022
 2572TIP3    H2 7662   5.466   1.387   0.988
 2573TIP3   OH2 7663   1.728   4.425   2.441
 2573TIP3    H1 7664   1.771   4.365   2.380
 2573TIP3    H2 7665   1.775   4.508   2.429
 2574TIP3   OH2 7666   2.358   1.884   6.541
 2574TIP3    H1 7667   2.290   1.864   6.605
 2574TIP3    H2 7668   2.313   1.934   6.473
 2575TIP3   OH2 7669   3.092   6.119   5.722
 2575TIP3    H1 7670   3.037   6.041   5.718
 2575TIP3    H2 7671   3.172   6.094   5.674
 2576TIP3   OH2 7672   1.496   5.206   0.376
 2576TIP3    H1 7673   1.401   5.198   0.367
 2576TIP3    H2 7674   1.525   5.242   0.292
 2577TIP3   OH2 7675   2.053   6.008   4.858
 2577TIP3    H1 7676   2.105   5.987   4.781
 2577TIP3    H2 7677   2.037   5.923   4.899
 2578TIP3   OH2 7678   5.709   4.101   2.287
 2578TIP3    H1 7679   5.674   4.014   2.268
 2578TIP3    H2 7680   5.727   4.138   2.200
 2579TIP3   OH2 7681   7.256   2.688   1.921
 2579TIP3    H1 7682   7.308   2.617   1.959
 2579TIP3    H2 7683   7.267   2.679   1.827
 2580TIP3   OH2 7684   3.258   1.560   1.905
 2580TIP3    H1 7685   3.255   1.534   1.997
 2580TIP3    H2 7686   3.326   1.627   1.901
 2581TIP3   OH2 7687   6.058   4.484   4.838
 2581TIP3    H1 7688   6.105   4.429   4.775
 2581TIP3    H2 7689   5.970   4.446   4.842
 2582TIP3   OH2 7690   0.156   4.501   0.286
 2582TIP3    H1 7691   0.163   4.594   0.266
 2582TIP3    H2 7692   0.165   4.458   0.201
 2583TIP3   OH2 7693   5.253   4.087   0.796
 2583TIP3    H1 7694   5.296   4.082   0.711
 2583TIP3    H2 7695   5.276   4.174   0.829
 2584TIP3   OH2 7696   1.617   3.893   5.035
 2584TIP3    H1 7697   1.603   3.847   4.951
 2584TIP3    H2 7698   1.704   3.864   5.063
 2585TIP3   OH2 7699   3.904   4.389   1.646
 2585TIP3    H1 7700   3.898   4.484   1.655
 2585TIP3    H2 7701   3.920   4.358   1.735
 2586TIP3   OH2 7702   4.245   0.656   3.412
 2586TIP3    H1 7703   4.294   0.633   3.491
 2586TIP3    H2 7704   4.154   0.636   3.434
 2587TIP3   OH2 7705   6.670   3.225   3.370
 2587TIP3    H1 7706   6.743   3.244   3.429
 2587TIP3    H2 7707   6.650   3.309   3.329
 2588TIP3   OH2 7708   4.593   4.193   1.021
 2588TIP3    H1 7709   4.567   4.223   1.108
 2588TIP3    H2 7710   4.528   4.229   0.962
 2589TIP3   OH2 7711   0.162   6.600   6.567
 2589TIP3    H1 7712   0.098   6.530   6.584
 2589TIP3    H2 7713   0.115   6.681   6.589
 2590TIP3   OH2 7714   2.671   6.349   4.137
 2590TIP3    H1 7715   2.729   6.295   4.084
 2590TIP3    H2 7716   2.729   6.410   4.182
 2591TIP3   OH2 7717   2.813   3.344   1.508
 2591TIP3    H1 7718   2.732   3.389   1.530
 2591TIP3    H2 7719   2.807   3.260   1.553
 2592TIP3   OH2 7720   2.594   2.970   2.231
 2592TIP3    H1 7721   2.511   2.925   2.246
 2592TIP3    H2 7722   2.658   2.920   2.283
 2593TIP3   OH2 7723   2.964   3.532   3.094
 2593TIP3    H1 7724   3.031   3.541   3.026
 2593TIP3    H2 7725   2.904   3.466   3.061
 2594TIP3   OH2 7726   8.024   5.200   4.225
 2594TIP3    H1 7727   7.954   5.243   4.273
 2594TIP3    H2 7728   7.980   5.127   4.180
 2595TIP3   OH2 7729   6.811   2.961   0.288
 2595TIP3    H1 7730   6.830   2.902   0.361
 2595TIP3    H2 7731   6.804   2.902   0.212
 2596TIP3   OH2 7732   4.796   5.505   6.454
 2596TIP3    H1 7733   4.721   5.446   6.453
 2596TIP3    H2 7734   4.810   5.525   6.547
 2597TIP3   OH2 7735   4.139   3.099   6.582
 2597TIP3    H1 7736   4.218   3.107   6.529
 2597TIP3    H2 7737   4.125   3.004   6.589
 2598TIP3   OH2 7738   7.650   2.642   4.943
 2598TIP3    H1 7739   7.738   2.605   4.952
 2598TIP3    H2 7740   7.640   2.699   5.019
 2599TIP3   OH2 7741   5.422   5.784   2.729
 2599TIP3    H1 7742   5.403   5.734   2.808
 2599TIP3    H2 7743   5.471   5.860   2.760
 2600TIP3   OH2 7744   1.849   2.829   0.424
 2600TIP3    H1 7745   1.782   2.768   0.396
 2600TIP3    H2 7746   1.840   2.834   0.519
 2601TIP3   OH2 7747   4.601   2.459   4.754
 2601TIP3    H1 7748   4.634   2.540   4.794
 2601TIP3    H2 7749   4.610   2.393   4.823
 2602TIP3   OH2 7750   5.815   3.329   3.304
 2602TIP3    H1 7751   5.728   3.368   3.304
 2602TIP3    H2 7752   5.858   3.366   3.381
 2603TIP3   OH2 7753   6.532   5.801   3.122
 2603TIP3    H1 7754   6.608   5.793   3.179
 2603TIP3    H2 7755   6.568   5.806   3.033
 2604TIP3   OH2 7756   7.030   1.782   1.690
 2604TIP3    H1 7757   7.109   1.810   1.643
 2604TIP3    H2 7758   6.974   1.746   1.622
 2605TIP3   OH2 7759   7.756   4.797   4.648
 2605TIP3    H1 7760   7.664   4.820   4.652
 2605TIP3    H2 7761   7.762   4.715   4.698
 2606TIP3   OH2 7762   2.830   7.297   3.994
 2606TIP3    H1 7763   2.879   7.304   4.076
 2606TIP3    H2 7764   2.833   7.204   3.972
 2607TIP3   OH2 7765   6.810   4.196   2.553
 2607TIP3    H1 7766   6.816   4.183   2.458
 2607TIP3    H2 7767   6.761   4.278   2.563
 2608TIP3   OH2 7768   4.190   1.598   5.050
 2608TIP3    H1 7769   4.148   1.627   5.131
 2608TIP3    H2 7770   4.233   1.676   5.016
 2609TIP3   OH2 7771   7.280   0.021   1.257
 2609TIP3    H1 7772   7.187   0.005   1.242
 2609TIP3    H2 7773   7.304   0.086   1.190
 2610TIP3   OH2 7774   4.316   5.009   0.338
 2610TIP3    H1 7775   4.364   5.089   0.316
 2610TIP3    H2 7776   4.286   5.023   0.428
 2611TIP3   OH2 7777   3.184   7.588  -0.015
 2611TIP3    H1 7778   3.135   7.519   0.029
 2611TIP3    H2 7779   3.237   7.627   0.055
 2612TIP3   OH2 7780   4.409   3.538   4.316
 2612TIP3    H1 7781   4.406   3.584   4.400
 2612TIP3    H2 7782   4.499   3.550   4.286
 2613TIP3   OH2 7783   2.597   7.041   2.376
 2613TIP3    H1 7784   2.599   6.994   2.292
 2613TIP3    H2 7785   2.611   7.133   2.352
 2614TIP3   OH2 7786   4.811   0.131   5.007
 2614TIP3    H1 7787   4.765   0.065   4.957
 2614TIP3    H2 7788   4.749   0.158   5.075
 2615TIP3   OH2 7789   1.953   6.186   3.450
 2615TIP3    H1 7790   2.039   6.217   3.479
 2615TIP3    H2 7791   1.960   6.179   3.355
 2616TIP3   OH2 7792   3.825   1.782   5.428
 2616TIP3    H1 7793   3.802   1.734   5.507
 2616TIP3    H2 7794   3.741   1.814   5.394
 2617TIP3   OH2 7795   4.612   4.154   2.249
 2617TIP3    H1 7796   4.697   4.115   2.231
 2617TIP3    H2 7797   4.621   4.244   2.218
 2618TIP3   OH2 7798   3.356   6.935   2.715
 2618TIP3    H1 7799   3.264   6.952   2.734
 2618TIP3    H2 7800   3.362   6.839   2.711
 2619TIP3   OH2 7801   0.756   5.801   1.053
 2619TIP3    H1 7802   0.790   5.761   1.133
 2619TIP3    H2 7803   0.744   5.727   0.993
 2620TIP3   OH2 7804   5.031   2.788   6.550
 2620TIP3    H1 7805   5.025   2.762   6.641
 2620TIP3    H2 7806   5.125   2.797   6.534
 2621TIP3   OH2 7807   1.674   6.430   6.094
 2621TIP3    H1 7808   1.664   6.517   6.133
 2621TIP3    H2 7809   1.698   6.448   6.003
 2622TIP3   OH2 7810   8.222   5.009   0.852
 2622TIP3    H1 7811   8.135   4.987   0.820
 2622TIP3    H2 7812   8.280   4.986   0.779
 2623TIP3   OH2 7813   1.994   1.524   6.151
 2623TIP3    H1 7814   2.016   1.609   6.114
 2623TIP3    H2 7815   2.015   1.461   6.082
 2624TIP3   OH2 7816   0.943   3.362   5.250
 2624TIP3    H1 7817   0.977   3.389   5.165
 2624TIP3    H2 7818   0.979   3.426   5.312
 2625TIP3   OH2 7819   3.561   7.105   3.575
 2625TIP3    H1 7820   3.628   7.037   3.573
 2625TIP3    H2 7821   3.489   7.068   3.626
 2626TIP3   OH2 7822   6.498   4.232   5.609
 2626TIP3    H1 7823   6.473   4.201   5.696
 2626TIP3    H2 7824   6.585   4.197   5.595
 2627TIP3   OH2 7825   0.532   2.711   6.571
 2627TIP3    H1 7826   0.517   2.803   6.548
 2627TIP3    H2 7827   0.627   2.703   6.575
 2628TIP3   OH2 7828   6.889   3.152   1.893
 2628TIP3    H1 7829   6.870   3.245   1.876
 2628TIP3    H2 7830   6.853   3.136   1.980
 2629TIP3   OH2 7831   7.667   0.836   0.741
 2629TIP3    H1 7832   7.670   0.799   0.829
 2629TIP3    H2 7833   7.689   0.763   0.683
 2630TIP3   OH2 7834   4.601   3.192   5.467
 2630TIP3    H1 7835   4.518   3.230   5.495
 2630TIP3    H2 7836   4.582   3.150   5.384
 2631TIP3   OH2 7837   2.868   5.757   3.527
 2631TIP3    H1 7838   2.851   5.699   3.602
 2631TIP3    H2 7839   2.838   5.707   3.451
 2632TIP3   OH2 7840   5.330   0.267   1.009
 2632TIP3    H1 7841   5.289   0.199   0.955
 2632TIP3    H2 7842   5.310   0.349   0.964
 2633TIP3   OH2 7843   5.890   6.546   3.804
 2633TIP3    H1 7844   5.948   6.602   3.856
 2633TIP3    H2 7845   5.942   6.468   3.785
 2634TIP3   OH2 7846   6.333   5.157   4.945
 2634TIP3    H1 7847   6.331   5.231   4.884
 2634TIP3    H2 7848   6.259   5.174   5.004
 2635TIP3   OH2 7849   7.216   0.701   3.780
 2635TIP3    H1 7850   7.275   0.690   3.705
 2635TIP3    H2 7851   7.271   0.685   3.857
 2636TIP3   OH2 7852   6.178   6.593   4.098
 2636TIP3    H1 7853   6.266   6.559   4.113
 2636TIP3    H2 7854   6.124   6.516   4.086
 2637TIP3   OH2 7855   7.531   3.575   6.436
 2637TIP3    H1 7856   7.449   3.557   6.389
 2637TIP3    H2 7857   7.599   3.567   6.370
 2638TIP3   OH2 7858   3.905   0.692   4.291
 2638TIP3    H1 7859   3.875   0.602   4.282
 2638TIP3    H2 7860   3.921   0.721   4.201
 2639TIP3   OH2 7861   3.934   3.543   5.294
 2639TIP3    H1 7862   3.985   3.583   5.223
 2639TIP3    H2 7863   3.916   3.454   5.262
 2640TIP3   OH2 7864   2.808   0.222   1.692
 2640TIP3    H1 7865   2.842   0.260   1.772
 2640TIP3    H2 7866   2.879   0.166   1.660
 2641TIP3   OH2 7867   3.427   0.724   4.763
 2641TIP3    H1 7868   3.504   0.775   4.786
 2641TIP3    H2 7869   3.422   0.655   4.830
 2642TIP3   OH2 7870   0.564   4.782   1.446
 2642TIP3    H1 7871   0.648   4.762   1.486
 2642TIP3    H2 7872   0.519   4.837   1.511
 2643TIP3   OH2 7873   2.882   5.426   2.665
 2643TIP3    H1 7874   2.871   5.520   2.683
 2643TIP3    H2 7875   2.830   5.411   2.586
 2644TIP3   OH2 7876   4.321   0.576   5.910
 2644TIP3    H1 7877   4.249   0.589   5.849
 2644TIP3    H2 7878   4.335   0.482   5.912
 2645TIP3   OH2 7879   2.501   1.888   5.052
 2645TIP3    H1 7880   2.590   1.858   5.072
 2645TIP3    H2 7881   2.471   1.929   5.133
 2646TIP3   OH2 7882   2.705   3.245   2.420
 2646TIP3    H1 7883   2.761   3.289   2.484
 2646TIP3    H2 7884   2.756   3.247   2.339
 2647TIP3   OH2 7885   2.189   6.978   3.870
 2647TIP3    H1 7886   2.273   6.978   3.918
 2647TIP3    H2 7887   2.194   7.056   3.814
 2648TIP3   OH2 7888   1.084   7.520   0.178
 2648TIP3    H1 7889   1.123   7.441   0.217
 2648TIP3    H2 7890   1.093   7.507   0.084
 2649TIP3   OH2 7891   0.610   7.279   6.606
 2649TIP3    H1 7892   0.679   7.334   6.571
 2649TIP3    H2 7893   0.553   7.339   6.654
 2650TIP3   OH2 7894   3.868   6.888   4.785
 2650TIP3    H1 7895   3.910   6.968   4.754
 2650TIP3    H2 7896   3.780   6.891   4.749
 2651TIP3   OH2 7897   2.177   3.028   3.593
 2651TIP3    H1 7898   2.244   2.970   3.558
 2651TIP3    H2 7899   2.218   3.114   3.595
 2652TIP3   OH2 7900   5.081   0.259   5.102
 2652TIP3    H1 7901   5.175   0.277   5.112
 2652TIP3    H2 7902   5.056   0.215   5.184
 2653TIP3   OH2 7903   0.094   0.855   0.844
 2653TIP3    H1 7904   0.175   0.894   0.877
 2653TIP3    H2 7905   0.025   0.888   0.902
 2654TIP3   OH2 7906   4.643   1.866   4.575
 2654TIP3    H1 7907   4.694   1.927   4.629
 2654TIP3    H2 7908   4.683   1.780   4.592
 2655TIP3   OH2 7909   0.510   1.428   1.577
 2655TIP3    H1 7910   0.505   1.447   1.671
 2655TIP3    H2 7911   0.466   1.343   1.567
 2656TIP3   OH2 7912   0.219   7.399   4.813
 2656TIP3    H1 7913   0.290   7.464   4.818
 2656TIP3    H2 7914   0.227   7.362   4.725
 2657TIP3   OH2 7915   2.114   7.401   0.461
 2657TIP3    H1 7916   2.207   7.386   0.441
 2657TIP3    H2 7917   2.070   7.386   0.377
 2658TIP3   OH2 7918   0.944   6.923   5.391
 2658TIP3    H1 7919   0.970   6.904   5.481
 2658TIP3    H2 7920   0.868   6.981   5.399
 2659TIP3   OH2 7921   6.574   0.056   1.298
 2659TIP3    H1 7922   6.585   0.038   1.205
 2659TIP3    H2 7923   6.521  -0.017   1.330
 2660TIP3   OH2 7924   0.156   5.036   2.276
 2660TIP3    H1 7925   0.121   5.125   2.273
 2660TIP3    H2 7926   0.196   5.024   2.190
 2661TIP3   OH2 7927   5.446   3.033   5.708
 2661TIP3    H1 7928   5.354   3.013   5.692
 2661TIP3    H2 7929   5.485   2.949   5.734
 2662TIP3   OH2 7930   2.946   2.757   3.115
 2662TIP3    H1 7931   2.957   2.815   3.189
 2662TIP3    H2 7932   2.881   2.800   3.059
 2663TIP3   OH2 7933   7.703   4.386   2.729
 2663TIP3    H1 7934   7.616   4.427   2.736
 2663TIP3    H2 7935   7.720   4.352   2.817
 2664TIP3   OH2 7936   7.254   2.192   4.917
 2664TIP3    H1 7937   7.325   2.141   4.877
 2664TIP3    H2 7938   7.233   2.145   4.997
 2665TIP3   OH2 7939   8.017   6.541   1.891
 2665TIP3    H1 7940   7.992   6.603   1.823
 2665TIP3    H2 7941   8.047   6.463   1.844
 2666TIP3   OH2 7942   4.858   2.637   2.057
 2666TIP3    H1 7943   4.765   2.644   2.076
 2666TIP3    H2 7944   4.864   2.651   1.962
 2667TIP3   OH2 7945   8.155   5.425   5.659
 2667TIP3    H1 7946   8.189   5.352   5.710
 2667TIP3    H2 7947   8.191   5.503   5.703
 2668TIP3   OH2 7948   3.663   2.443   3.869
 2668TIP3    H1 7949   3.569   2.440   3.853
 2668TIP3    H2 7950   3.693   2.353   3.857
 2669TIP3   OH2 7951   6.575   0.799   3.476
 2669TIP3    H1 7952   6.494   0.799   3.528
 2669TIP3    H2 7953   6.644   0.820   3.539
 2670TIP3   OH2 7954   6.647   2.905   0.847
 2670TIP3    H1 7955   6.732   2.895   0.891
 2670TIP3    H2 7956   6.586   2.927   0.918
 2671TIP3   OH2 7957   3.223   3.849   6.331
 2671TIP3    H1 7958   3.217   3.866   6.237
 2671TIP3    H2 7959   3.261   3.929   6.367
 2672TIP3   OH2 7960   4.448   1.429   2.987
 2672TIP3    H1 7961   4.525   1.481   2.963
 2672TIP3    H2 7962   4.483   1.341   3.003
 2673TIP3   OH2 7963   5.788   1.072   2.511
 2673TIP3    H1 7964   5.706   1.060   2.558
 2673TIP3    H2 7965   5.819   1.159   2.537
 2674TIP3   OH2 7966   3.509   2.655   0.359
 2674TIP3    H1 7967   3.498   2.663   0.454
 2674TIP3    H2 7968   3.549   2.738   0.333
 2675TIP3   OH2 7969   0.300   6.072   0.069
 2675TIP3    H1 7970   0.245   6.124   0.010
 2675TIP3    H2 7971   0.239   6.026   0.126
 2676TIP3   OH2 7972   5.073   0.730   1.702
 2676TIP3    H1 7973   5.016   0.807   1.699
 2676TIP3    H2 7974   5.155   0.760   1.662
 2677TIP3   OH2 7975   4.154   3.643   3.378
 2677TIP3    H1 7976   4.135   3.593   3.458
 2677TIP3    H2 7977   4.088   3.713   3.377
 2678TIP3   OH2 7978   6.743   5.000   5.785
 2678TIP3    H1 7979   6.705   4.923   5.742
 2678TIP3    H2 7980   6.784   4.965   5.865
 2679TIP3   OH2 7981   5.227   5.802   0.989
 2679TIP3    H1 7982   5.292   5.787   1.058
 2679TIP3    H2 7983   5.144   5.779   1.029
 2680TIP3   OH2 7984   7.506   3.518   0.740
 2680TIP3    H1 7985   7.563   3.448   0.707
 2680TIP3    H2 7986   7.432   3.520   0.680
 2681TIP3   OH2 7987   4.488   4.579   0.153
 2681TIP3    H1 7988   4.547   4.560   0.226
 2681TIP3    H2 7989   4.535   4.642   0.099
 2682TIP3   OH2 7990   3.372   5.879   0.523
 2682TIP3    H1 7991   3.316   5.864   0.600
 2682TIP3    H2 7992   3.334   5.956   0.480
 2683TIP3   OH2 7993   7.479   3.339   5.486
 2683TIP3    H1 7994   7.405   3.311   5.432
 2683TIP3    H2 7995   7.555   3.336   5.427
 2684TIP3   OH2 7996   7.753   3.943   4.505
 2684TIP3    H1 7997   7.772   4.011   4.570
 2684TIP3    H2 7998   7.834   3.893   4.499
 2685TIP3   OH2 7999   5.835   4.275   4.544
 2685TIP3    H1 8000   5.874   4.267   4.457
 2685TIP3    H2 8001   5.851   4.190   4.585
 2686TIP3   OH2 8002   5.816   1.127   1.935
 2686TIP3    H1 8003   5.854   1.163   1.855
 2686TIP3    H2 8004   5.826   1.032   1.927
 2687TIP3   OH2 8005   1.592   1.868   2.335
 2687TIP3    H1 8006   1.533   1.934   2.299
 2687TIP3    H2 8007   1.632   1.826   2.259
 2688TIP3   OH2 8008   1.302   5.219   3.556
 2688TIP3    H1 8009   1.300   5.296   3.613
 2688TIP3    H2 8010   1.300   5.145   3.616
 2689TIP3   OH2 8011   0.372   4.953   3.076
 2689TIP3    H1 8012   0.460   4.923   3.052
 2689TIP3    H2 8013   0.319   4.934   2.999
 2690TIP3   OH2 8014   1.050   6.471   6.310
 2690TIP3    H1 8015   1.042   6.542   6.374
 2690TIP3    H2 8016   0.966   6.425   6.315
 2691TIP3   OH2 8017   5.305   1.822   3.803
 2691TIP3    H1 8018   5.372   1.778   3.751
 2691TIP3    H2 8019   5.251   1.868   3.739
 2692TIP3   OH2 8020   5.190   0.139   3.485
 2692TIP3    H1 8021   5.247   0.073   3.523
 2692TIP3    H2 8022   5.183   0.207   3.552
 2693TIP3   OH2 8023   3.111   1.905   5.874
 2693TIP3    H1 8024   3.191   1.852   5.872
 2693TIP3    H2 8025   3.048   1.854   5.822
 2694TIP3   OH2 8026   1.069   1.260   0.395
 2694TIP3    H1 8027   1.107   1.348   0.387
 2694TIP3    H2 8028   0.975   1.274   0.382
 2695TIP3   OH2 8029   4.561   5.818   5.404
 2695TIP3    H1 8030   4.572   5.808   5.498
 2695TIP3    H2 8031   4.468   5.839   5.393
 2696TIP3   OH2 8032   4.298   1.968   2.726
 2696TIP3    H1 8033   4.265   2.043   2.775
 2696TIP3    H2 8034   4.339   2.006   2.649
 2697TIP3   OH2 8035   4.248   7.490   0.977
 2697TIP3    H1 8036   4.336   7.470   1.007
 2697TIP3    H2 8037   4.220   7.410   0.932
 2698TIP3   OH2 8038   2.825   0.777   6.682
 2698TIP3    H1 8039   2.761   0.848   6.685
 2698TIP3    H2 8040   2.811   0.735   6.598
 2699TIP3   OH2 8041   4.104   3.429   5.514
 2699TIP3    H1 8042   4.081   3.484   5.439
 2699TIP3    H2 8043   4.054   3.348   5.500
 2700TIP3   OH2 8044   1.706   1.920   5.238
 2700TIP3    H1 8045   1.670   1.847   5.287
 2700TIP3    H2 8046   1.788   1.941   5.283
 2701TIP3   OH2 8047   7.040   7.197   0.148
 2701TIP3    H1 8048   7.089   7.130   0.194
 2701TIP3    H2 8049   6.960   7.153   0.119
 2702TIP3   OH2 8050   0.850   3.434   4.084
 2702TIP3    H1 8051   0.862   3.527   4.062
 2702TIP3    H2 8052   0.880   3.427   4.174
 2703TIP3   OH2 8053   5.991   1.235   1.745
 2703TIP3    H1 8054   6.023   1.169   1.684
 2703TIP3    H2 8055   5.963   1.308   1.689
 2704TIP3   OH2 8056   3.406   0.484   4.314
 2704TIP3    H1 8057   3.313   0.492   4.335
 2704TIP3    H2 8058   3.446   0.450   4.394
 2705TIP3   OH2 8059   7.648   5.305   4.622
 2705TIP3    H1 8060   7.559   5.269   4.623
 2705TIP3    H2 8061   7.651   5.362   4.699
 2706TIP3   OH2 8062   7.527   3.549   2.972
 2706TIP3    H1 8063   7.549   3.606   2.899
 2706TIP3    H2 8064   7.597   3.564   3.036
 2707TIP3   OH2 8065   7.833   6.126   1.348
 2707TIP3    H1 8066   7.926   6.118   1.332
 2707TIP3    H2 8067   7.805   6.039   1.376
 2708TIP3   OH2 8068   7.697   0.844   4.909
 2708TIP3    H1 8069   7.638   0.836   4.984
 2708TIP3    H2 8070   7.687   0.935   4.880
 2709TIP3   OH2 8071   7.753   5.930   3.333
 2709TIP3    H1 8072   7.661   5.935   3.306
 2709TIP3    H2 8073   7.802   5.966   3.259
 2710TIP3   OH2 8074   0.469   4.277   6.398
 2710TIP3    H1 8075   0.420   4.224   6.335
 2710TIP3    H2 8076   0.415   4.355   6.409
 2711TIP3   OH2 8077   1.612   6.862   1.978
 2711TIP3    H1 8078   1.553   6.804   2.027
 2711TIP3    H2 8079   1.605   6.946   2.023
 2712TIP3   OH2 8080   5.017   2.616   5.211
 2712TIP3    H1 8081   5.013   2.617   5.115
 2712TIP3    H2 8082   5.069   2.694   5.233
 2713TIP3   OH2 8083   8.086   5.046   3.686
 2713TIP3    H1 8084   8.103   4.962   3.729
 2713TIP3    H2 8085   8.040   5.023   3.605
 2714TIP3   OH2 8086   7.774   3.422   4.327
 2714TIP3    H1 8087   7.847   3.386   4.275
 2714TIP3    H2 8088   7.702   3.427   4.265
 2715TIP3   OH2 8089   4.883   5.546   4.585
 2715TIP3    H1 8090   4.931   5.571   4.664
 2715TIP3    H2 8091   4.811   5.608   4.581
 2716TIP3   OH2 8092   8.241   6.689   2.822
 2716TIP3    H1 8093   8.208   6.773   2.790
 2716TIP3    H2 8094   8.320   6.711   2.871
 2717TIP3   OH2 8095   1.267   4.576   2.153
 2717TIP3    H1 8096   1.191   4.533   2.193
 2717TIP3    H2 8097   1.257   4.559   2.059
 2718TIP3   OH2 8098   7.541   0.749   1.239
 2718TIP3    H1 8099   7.540   0.665   1.194
 2718TIP3    H2 8100   7.468   0.798   1.199
 2719TIP3   OH2 8101   3.572   1.099   2.207
 2719TIP3    H1 8102   3.598   1.008   2.194
 2719TIP3    H2 8103   3.542   1.102   2.298
 2720TIP3   OH2 8104   8.003   6.958   2.984
 2720TIP3    H1 8105   7.927   7.009   3.013
 2720TIP3    H2 8106   7.980   6.930   2.896
 2721TIP3   OH2 8107   5.242   1.323   0.063
 2721TIP3    H1 8108   5.272   1.338   0.153
 2721TIP3    H2 8109   5.181   1.396   0.046
 2722TIP3   OH2 8110   4.049   5.339   6.490
 2722TIP3    H1 8111   4.039   5.428   6.457
 2722TIP3    H2 8112   4.062   5.349   6.584
 2723TIP3   OH2 8113   6.197   4.961   0.135
 2723TIP3    H1 8114   6.138   4.905   0.184
 2723TIP3    H2 8115   6.141   5.031   0.100
 2724TIP3   OH2 8116   7.539   4.136   0.578
 2724TIP3    H1 8117   7.598   4.062   0.592
 2724TIP3    H2 8118   7.553   4.162   0.487
 2725TIP3   OH2 8119   2.229   5.365   2.970
 2725TIP3    H1 8120   2.268   5.284   2.937
 2725TIP3    H2 8121   2.296   5.432   2.955
 2726TIP3   OH2 8122   3.399   5.422   2.491
 2726TIP3    H1 8123   3.474   5.463   2.535
 2726TIP3    H2 8124   3.327   5.433   2.552
 2727TIP3   OH2 8125   0.513   5.229   4.870
 2727TIP3    H1 8126   0.492   5.143   4.907
 2727TIP3    H2 8127   0.568   5.271   4.936
 2728TIP3   OH2 8128   2.322   3.645   0.530
 2728TIP3    H1 8129   2.289   3.648   0.620
 2728TIP3    H2 8130   2.262   3.702   0.481
 2729TIP3   OH2 8131   6.618   7.685   0.404
 2729TIP3    H1 8132   6.650   7.616   0.346
 2729TIP3    H2 8133   6.607   7.761   0.346
 2730TIP3   OH2 8134   5.452   3.522   1.872
 2730TIP3    H1 8135   5.513   3.542   1.943
 2730TIP3    H2 8136   5.479   3.436   1.841
 2731TIP3   OH2 8137   0.838   3.301   0.251
 2731TIP3    H1 8138   0.814   3.372   0.192
 2731TIP3    H2 8139   0.795   3.323   0.333
 2732TIP3   OH2 8140   0.340   7.447   0.068
 2732TIP3    H1 8141   0.370   7.431   0.158
 2732TIP3    H2 8142   0.406   7.505   0.031
 2733TIP3   OH2 8143   3.487   7.744   4.790
 2733TIP3    H1 8144   3.492   7.728   4.885
 2733TIP3    H2 8145   3.473   7.839   4.783
 2734TIP3   OH2 8146   7.754   1.961   2.200
 2734TIP3    H1 8147   7.740   1.867   2.198
 2734TIP3    H2 8148   7.750   1.984   2.293
 2735TIP3   OH2 8149   1.955   6.700   1.379
 2735TIP3    H1 8150   1.868   6.697   1.340
 2735TIP3    H2 8151   1.971   6.611   1.410
 2736TIP3   OH2 8152   3.043   4.949   3.411
 2736TIP3    H1 8153   3.119   4.937   3.468
 2736TIP3    H2 8154   3.016   4.861   3.387
 2737TIP3   OH2 8155   3.700   4.218   4.831
 2737TIP3    H1 8156   3.735   4.230   4.920
 2737TIP3    H2 8157   3.647   4.297   4.816
 2738TIP3   OH2 8158   5.778   1.575   2.316
 2738TIP3    H1 8159   5.727   1.655   2.328
 2738TIP3    H2 8160   5.867   1.599   2.341
 2739TIP3   OH2 8161   2.571   3.722   4.087
 2739TIP3    H1 8162   2.656   3.691   4.118
 2739TIP3    H2 8163   2.576   3.715   3.992
 2740TIP3   OH2 8164   2.874   1.024   6.375
 2740TIP3    H1 8165   2.858   0.970   6.298
 2740TIP3    H2 8166   2.794   1.075   6.386
 2741TIP3   OH2 8167   5.243   2.389   0.236
 2741TIP3    H1 8168   5.180   2.412   0.304
 2741TIP3    H2 8169   5.261   2.296   0.250
 2742TIP3   OH2 8170   2.877   2.688   5.587
 2742TIP3    H1 8171   2.867   2.624   5.657
 2742TIP3    H2 8172   2.923   2.641   5.518
 2743TIP3   OH2 8173   1.282   3.197   5.502
 2743TIP3    H1 8174   1.235   3.172   5.423
 2743TIP3    H2 8175   1.241   3.279   5.530
 2744TIP3   OH2 8176   3.718   5.045   1.970
 2744TIP3    H1 8177   3.680   5.103   1.904
 2744TIP3    H2 8178   3.812   5.043   1.949
 2745TIP3   OH2 8179   0.840   7.559   3.225
 2745TIP3    H1 8180   0.792   7.642   3.218
 2745TIP3    H2 8181   0.932   7.585   3.220
 2746TIP3   OH2 8182   4.467   6.152   3.330
 2746TIP3    H1 8183   4.543   6.133   3.385
 2746TIP3    H2 8184   4.418   6.070   3.327
 2747TIP3   OH2 8185   7.811   2.391   0.494
 2747TIP3    H1 8186   7.781   2.305   0.525
 2747TIP3    H2 8187   7.885   2.371   0.437
 2748TIP3   OH2 8188   7.642   0.571   1.647
 2748TIP3    H1 8189   7.582   0.511   1.691
 2748TIP3    H2 8190   7.729   0.541   1.672
 2749TIP3   OH2 8191   1.830   6.471   1.741
 2749TIP3    H1 8192   1.804   6.502   1.655
 2749TIP3    H2 8193   1.903   6.527   1.766
 2750TIP3   OH2 8194   0.682   3.477   5.266
 2750TIP3    H1 8195   0.762   3.424   5.267
 2750TIP3    H2 8196   0.654   3.475   5.174
 2751TIP3   OH2 8197   2.836   5.080   6.413
 2751TIP3    H1 8198   2.870   5.158   6.370
 2751TIP3    H2 8199   2.887   5.072   6.493
 2752TIP3   OH2 8200   7.038   3.596   5.922
 2752TIP3    H1 8201   6.982   3.644   5.860
 2752TIP3    H2 8202   7.079   3.665   5.974
 2753TIP3   OH2 8203   6.903   6.696   2.327
 2753TIP3    H1 8204   6.836   6.727   2.388
 2753TIP3    H2 8205   6.923   6.607   2.357
 2754TIP3   OH2 8206   3.464   7.752   6.486
 2754TIP3    H1 8207   3.532   7.741   6.420
 2754TIP3    H2 8208   3.481   7.838   6.524
 2755TIP3   OH2 8209   5.251   6.818   5.448
 2755TIP3    H1 8210   5.174   6.780   5.405
 2755TIP3    H2 8211   5.278   6.753   5.512
 2756TIP3   OH2 8212   8.115   1.834   2.027
 2756TIP3    H1 8213   8.056   1.855   1.955
 2756TIP3    H2 8214   8.196   1.806   1.984
 2757TIP3   OH2 8215   7.462   2.676   5.179
 2757TIP3    H1 8216   7.370   2.688   5.203
 2757TIP3    H2 8217   7.493   2.609   5.240
 2758TIP3   OH2 8218   3.080   0.179   6.352
 2758TIP3    H1 8219   3.043   0.263   6.324
 2758TIP3    H2 8220   3.054   0.118   6.283
 2759TIP3   OH2 8221   0.769   4.220   3.668
 2759TIP3    H1 8222   0.712   4.284   3.711
 2759TIP3    H2 8223   0.710   4.171   3.610
 2760TIP3   OH2 8224   3.734   5.292   1.866
 2760TIP3    H1 8225   3.755   5.264   1.777
 2760TIP3    H2 8226   3.777   5.377   1.876
 2761TIP3   OH2 8227   3.195   7.096   3.034
 2761TIP3    H1 8228   3.222   7.187   3.048
 2761TIP3    H2 8229   3.254   7.045   3.090
 2762TIP3   OH2 8230   7.286   1.581   1.296
 2762TIP3    H1 8231   7.314   1.507   1.349
 2762TIP3    H2 8232   7.191   1.581   1.304
 2763TIP3   OH2 8233   6.108   3.192   0.045
 2763TIP3    H1 8234   6.154   3.242   0.112
 2763TIP3    H2 8235   6.118   3.243  -0.035
 2764TIP3   OH2 8236   1.313   6.501   2.295
 2764TIP3    H1 8237   1.230   6.471   2.331
 2764TIP3    H2 8238   1.371   6.510   2.371
 2765TIP3   OH2 8239   8.264   3.237   5.592
 2765TIP3    H1 8240   8.187   3.196   5.552
 2765TIP3    H2 8241   8.295   3.174   5.657
 2766TIP3   OH2 8242   0.757   7.734   2.862
 2766TIP3    H1 8243   0.748   7.722   2.768
 2766TIP3    H2 8244   0.712   7.659   2.900
 2767TIP3   OH2 8245   6.988   6.460   6.253
 2767TIP3    H1 8246   6.992   6.520   6.178
 2767TIP3    H2 8247   6.957   6.514   6.326
 2768TIP3   OH2 8248   0.327   2.678   4.821
 2768TIP3    H1 8249   0.413   2.708   4.793
 2768TIP3    H2 8250   0.345   2.611   4.887
 2769TIP3   OH2 8251   6.952   6.584   4.695
 2769TIP3    H1 8252   7.026   6.531   4.722
 2769TIP3    H2 8253   6.957   6.662   4.750
 2770TIP3   OH2 8254   7.260   6.886   0.934
 2770TIP3    H1 8255   7.268   6.908   1.027
 2770TIP3    H2 8256   7.331   6.934   0.892
 2771TIP3   OH2 8257   6.881   4.697   0.625
 2771TIP3    H1 8258   6.891   4.620   0.680
 2771TIP3    H2 8259   6.788   4.717   0.629
 2772TIP3   OH2 8260   3.531   0.643   6.487
 2772TIP3    H1 8261   3.612   0.691   6.473
 2772TIP3    H2 8262   3.494   0.682   6.567
 2773TIP3   OH2 8263   6.246   4.603   4.018
 2773TIP3    H1 8264   6.304   4.527   4.024
 2773TIP3    H2 8265   6.158   4.566   4.027
 2774TIP3   OH2 8266   2.304   6.865   4.955
 2774TIP3    H1 8267   2.322   6.879   5.048
 2774TIP3    H2 8268   2.383   6.894   4.910
 2775TIP3   OH2 8269   3.578   6.696   1.399
 2775TIP3    H1 8270   3.614   6.765   1.344
 2775TIP3    H2 8271   3.483   6.707   1.394
 2776TIP3   OH2 8272   3.297   6.843   5.955
 2776TIP3    H1 8273   3.201   6.836   5.954
 2776TIP3    H2 8274   3.326   6.782   5.888
 2777TIP3   OH2 8275   5.965   3.602   4.755
 2777TIP3    H1 8276   6.018   3.549   4.695
 2777TIP3    H2 8277   5.957   3.548   4.833
 2778TIP3   OH2 8278   7.015   0.914   6.040
 2778TIP3    H1 8279   7.054   0.853   5.977
 2778TIP3    H2 8280   6.929   0.934   6.005
 2779TIP3   OH2 8281   8.085   7.518   3.460
 2779TIP3    H1 8282   8.085   7.464   3.381
 2779TIP3    H2 8283   8.165   7.569   3.454
 2780TIP3   OH2 8284   0.162   2.652   3.230
 2780TIP3    H1 8285   0.203   2.615   3.308
 2780TIP3    H2 8286   0.084   2.697   3.263
 2781TIP3   OH2 8287   3.918   1.516   5.025
 2781TIP3    H1 8288   3.884   1.516   5.115
 2781TIP3    H2 8289   4.013   1.521   5.036
 2782TIP3   OH2 8290   3.085   3.902   5.472
 2782TIP3    H1 8291   3.022   3.942   5.533
 2782TIP3    H2 8292   3.168   3.903   5.520
 2783TIP3   OH2 8293   2.785   0.863   0.497
 2783TIP3    H1 8294   2.808   0.776   0.467
 2783TIP3    H2 8295   2.774   0.853   0.592
 2784TIP3   OH2 8296   4.244   2.672   1.906
 2784TIP3    H1 8297   4.223   2.725   1.982
 2784TIP3    H2 8298   4.338   2.655   1.914
 2785TIP3   OH2 8299   6.923   4.344   5.758
 2785TIP3    H1 8300   6.936   4.264   5.708
 2785TIP3    H2 8301   6.997   4.400   5.733
 2786TIP3   OH2 8302   0.052   3.057   0.828
 2786TIP3    H1 8303  -0.043   3.046   0.816
 2786TIP3    H2 8304   0.091   2.981   0.784
 2787TIP3   OH2 8305   7.186   1.237   3.996
 2787TIP3    H1 8306   7.227   1.152   3.979
 2787TIP3    H2 8307   7.252   1.286   4.045
 2788TIP3   OH2 8308   1.082   1.563   6.039
 2788TIP3    H1 8309   1.164   1.585   6.082
 2788TIP3    H2 8310   1.106   1.496   5.974
 2789TIP3   OH2 8311   2.767   3.967   6.197
 2789TIP3    H1 8312   2.748   4.004   6.111
 2789TIP3    H2 8313   2.729   4.030   6.259
 2790TIP3   OH2 8314   4.397   7.339   0.310
 2790TIP3    H1 8315   4.340   7.315   0.237
 2790TIP3    H2 8316   4.423   7.429   0.291
 2791TIP3   OH2 8317   4.372   4.625   3.533
 2791TIP3    H1 8318   4.437   4.695   3.521
 2791TIP3    H2 8319   4.414   4.546   3.499
 2792TIP3   OH2 8320   8.018   2.354   2.721
 2792TIP3    H1 8321   7.972   2.273   2.742
 2792TIP3    H2 8322   8.071   2.373   2.798
 2793TIP3   OH2 8323   6.322   1.951   4.277
 2793TIP3    H1 8324   6.250   1.975   4.219
 2793TIP3    H2 8325   6.282   1.939   4.363
 2794TIP3   OH2 8326   7.287   1.891   2.842
 2794TIP3    H1 8327   7.215   1.922   2.897
 2794TIP3    H2 8328   7.365   1.936   2.877
 2795TIP3   OH2 8329   5.323   4.471   2.188
 2795TIP3    H1 8330   5.333   4.497   2.096
 2795TIP3    H2 8331   5.302   4.377   2.184
 2796TIP3   OH2 8332   7.339   4.228   6.418
 2796TIP3    H1 8333   7.352   4.191   6.505
 2796TIP3    H2 8334   7.245   4.238   6.409
 2797TIP3   OH2 8335   1.901   3.485   5.667
 2797TIP3    H1 8336   1.822   3.489   5.613
 2797TIP3    H2 8337   1.971   3.463   5.605
 2798TIP3   OH2 8338   2.731   6.898   1.162
 2798TIP3    H1 8339   2.704   6.980   1.119
 2798TIP3    H2 8340   2.783   6.927   1.236
 2799TIP3   OH2 8341   4.441   4.579   1.542
 2799TIP3    H1 8342   4.416   4.614   1.627
 2799TIP3    H2 8343   4.528   4.616   1.525
 2800TIP3   OH2 8344   6.546   2.478   4.029
 2800TIP3    H1 8345   6.598   2.557   4.042
 2800TIP3    H2 8346   6.548   2.433   4.113
 2801TIP3   OH2 8347   3.346   1.415   0.048
 2801TIP3    H1 8348   3.294   1.367   0.113
 2801TIP3    H2 8349   3.436   1.388   0.066
 2802TIP3   OH2 8350   1.698   0.715   2.845
 2802TIP3    H1 8351   1.651   0.688   2.924
 2802TIP3    H2 8352   1.778   0.757   2.878
 2803TIP3   OH2 8353   5.634   5.770   2.322
 2803TIP3    H1 8354   5.636   5.699   2.387
 2803TIP3    H2 8355   5.568   5.743   2.259
 2804TIP3   OH2 8356   5.791   4.042   5.417
 2804TIP3    H1 8357   5.839   4.090   5.349
 2804TIP3    H2 8358   5.786   4.102   5.491
 2805TIP3   OH2 8359   1.565   3.400   0.487
 2805TIP3    H1 8360   1.477   3.365   0.502
 2805TIP3    H2 8361   1.555   3.494   0.499
 2806TIP3   OH2 8362   7.363   2.160   3.923
 2806TIP3    H1 8363   7.376   2.068   3.947
 2806TIP3    H2 8364   7.267   2.170   3.919
 2807TIP3   OH2 8365   1.928   5.628   5.388
 2807TIP3    H1 8366   1.940   5.697   5.453
 2807TIP3    H2 8367   1.833   5.614   5.385
 2808TIP3   OH2 8368   7.288   1.991   6.229
 2808TIP3    H1 8369   7.332   1.971   6.146
 2808TIP3    H2 8370   7.358   1.993   6.294
 2809TIP3   OH2 8371   4.986   7.469   0.705
 2809TIP3    H1 8372   5.044   7.462   0.780
 2809TIP3    H2 8373   4.902   7.496   0.742
 2810TIP3   OH2 8374   4.364   2.490   6.426
 2810TIP3    H1 8375   4.361   2.419   6.491
 2810TIP3    H2 8376   4.320   2.563   6.468
 2811TIP3   OH2 8377   5.517   1.048   4.674
 2811TIP3    H1 8378   5.561   1.016   4.753
 2811TIP3    H2 8379   5.426   1.059   4.699
 2812TIP3   OH2 8380   0.695   1.856   2.942
 2812TIP3    H1 8381   0.780   1.871   2.983
 2812TIP3    H2 8382   0.642   1.818   3.012
 2813TIP3   OH2 8383   6.823   0.141   2.966
 2813TIP3    H1 8384   6.743   0.150   3.019
 2813TIP3    H2 8385   6.869   0.224   2.978
 2814TIP3   OH2 8386   3.920   1.729   2.467
 2814TIP3    H1 8387   3.992   1.756   2.523
 2814TIP3    H2 8388   3.847   1.784   2.494
 2815TIP3   OH2 8389   5.273   2.812   0.335
 2815TIP3    H1 8390   5.274   2.825   0.240
 2815TIP3    H2 8391   5.182   2.829   0.360
 2816TIP3   OH2 8392   1.091   1.305   4.931
 2816TIP3    H1 8393   1.069   1.384   4.981
 2816TIP3    H2 8394   1.179   1.322   4.898
 2817TIP3   OH2 8395   0.473   7.658   6.031
 2817TIP3    H1 8396   0.506   7.735   5.984
 2817TIP3    H2 8397   0.535   7.589   6.009
 2818TIP3   OH2 8398   5.451   3.597   3.192
 2818TIP3    H1 8399   5.373   3.596   3.136
 2818TIP3    H2 8400   5.451   3.511   3.234
 2819TIP3   OH2 8401   1.129   1.075   1.016
 2819TIP3    H1 8402   1.119   1.095   1.109
 2819TIP3    H2 8403   1.068   1.003   1.000
 2820TIP3   OH2 8404   7.074   0.268   0.989
 2820TIP3    H1 8405   7.099   0.327   0.918
 2820TIP3    H2 8406   7.143   0.202   0.992
 2821TIP3   OH2 8407   0.737   6.452   6.531
 2821TIP3    H1 8408   0.718   6.358   6.526
 2821TIP3    H2 8409   0.725   6.474   6.623
 2822TIP3   OH2 8410   6.497   7.143   0.409
 2822TIP3    H1 8411   6.458   7.230   0.404
 2822TIP3    H2 8412   6.589   7.157   0.388
 2823TIP3   OH2 8413   5.047   1.973   6.283
 2823TIP3    H1 8414   5.057   2.069   6.280
 2823TIP3    H2 8415   4.991   1.958   6.359
 2824TIP3   OH2 8416   4.975   6.645   1.673
 2824TIP3    H1 8417   4.971   6.607   1.585
 2824TIP3    H2 8418   4.994   6.737   1.658
 2825TIP3   OH2 8419   1.246   4.818   5.566
 2825TIP3    H1 8420   1.159   4.792   5.536
 2825TIP3    H2 8421   1.241   4.913   5.573
 2826TIP3   OH2 8422   1.809   3.039   6.631
 2826TIP3    H1 8423   1.868   3.011   6.701
 2826TIP3    H2 8424   1.728   2.991   6.647
 2827TIP3   OH2 8425   4.897   0.919   3.590
 2827TIP3    H1 8426   4.935   0.881   3.670
 2827TIP3    H2 8427   4.817   0.868   3.576
 2828TIP3   OH2 8428   5.759   2.232   0.776
 2828TIP3    H1 8429   5.803   2.234   0.691
 2828TIP3    H2 8430   5.667   2.247   0.756
 2829TIP3   OH2 8431   6.922   5.186   0.120
 2829TIP3    H1 8432   6.994   5.159   0.176
 2829TIP3    H2 8433   6.929   5.130   0.043
 2830TIP3   OH2 8434   2.086   1.553   3.652
 2830TIP3    H1 8435   2.014   1.558   3.590
 2830TIP3    H2 8436   2.066   1.621   3.717
 2831TIP3   OH2 8437   3.418   2.506   3.731
 2831TIP3    H1 8438   3.355   2.519   3.802
 2831TIP3    H2 8439   3.370   2.458   3.664
 2832TIP3   OH2 8440   4.984   1.771   5.624
 2832TIP3    H1 8441   5.034   1.853   5.614
 2832TIP3    H2 8442   4.908   1.782   5.568
 2833TIP3   OH2 8443   5.079   1.619   1.819
 2833TIP3    H1 8444   5.055   1.529   1.796
 2833TIP3    H2 8445   5.106   1.659   1.736
 2834TIP3   OH2 8446   4.415   5.276   0.465
 2834TIP3    H1 8447   4.473   5.245   0.535
 2834TIP3    H2 8448   4.423   5.371   0.467
 2835TIP3   OH2 8449   4.823   5.097   0.195
 2835TIP3    H1 8450   4.761   5.122   0.127
 2835TIP3    H2 8451   4.872   5.024   0.156
 2836TIP3   OH2 8452   6.125   4.200   0.013
 2836TIP3    H1 8453   6.136   4.236   0.101
 2836TIP3    H2 8454   6.089   4.272  -0.039
 2837TIP3   OH2 8455   7.340   2.393   2.034
 2837TIP3    H1 8456   7.396   2.438   2.098
 2837TIP3    H2 8457   7.391   2.396   1.953
 2838TIP3   OH2 8458   1.778   2.863   2.594
 2838TIP3    H1 8459   1.685   2.874   2.611
 2838TIP3    H2 8460   1.789   2.887   2.502
 2839TIP3   OH2 8461   2.109   1.089   1.949
 2839TIP3    H1 8462   2.146   1.099   2.037
 2839TIP3    H2 8463   2.039   1.024   1.959
 2840TIP3   OH2 8464   5.870   2.810   5.335
 2840TIP3    H1 8465   5.896   2.773   5.250
 2840TIP3    H2 8466   5.919   2.758   5.399
 2841TIP3   OH2 8467   3.163   0.942   4.770
 2841TIP3    H1 8468   3.246   0.906   4.739
 2841TIP3    H2 8469   3.180   1.035   4.783
 2842TIP3   OH2 8470   0.974   4.638   3.857
 2842TIP3    H1 8471   0.948   4.545   3.860
 2842TIP3    H2 8472   1.069   4.636   3.852
 2843TIP3   OH2 8473   0.725   4.018   2.420
 2843TIP3    H1 8474   0.679   4.063   2.490
 2843TIP3    H2 8475   0.767   3.944   2.462
 2844TIP3   OH2 8476   2.267   5.682   6.209
 2844TIP3    H1 8477   2.301   5.629   6.282
 2844TIP3    H2 8478   2.184   5.641   6.186
 2845TIP3   OH2 8479   0.098   5.966   5.612
 2845TIP3    H1 8480   0.090   6.011   5.528
 2845TIP3    H2 8481   0.026   6.000   5.664
 2846TIP3   OH2 8482   5.004   7.001   2.410
 2846TIP3    H1 8483   4.956   6.961   2.337
 2846TIP3    H2 8484   5.095   6.975   2.395
 2847TIP3   OH2 8485   1.255   3.226   4.447
 2847TIP3    H1 8486   1.208   3.297   4.403
 2847TIP3    H2 8487   1.264   3.158   4.381
 2848TIP3   OH2 8488   4.667   2.582   2.346
 2848TIP3    H1 8489   4.595   2.622   2.298
 2848TIP3    H2 8490   4.737   2.648   2.345
 2849TIP3   OH2 8491   5.740   0.996   0.758
 2849TIP3    H1 8492   5.764   1.082   0.793
 2849TIP3    H2 8493   5.644   0.995   0.762
 2850TIP3   OH2 8494   1.041   4.033   0.636
 2850TIP3    H1 8495   1.020   4.114   0.682
 2850TIP3    H2 8496   0.960   4.010   0.590
 2851TIP3   OH2 8497   5.724   4.581   6.084
 2851TIP3    H1 8498   5.816   4.600   6.105
 2851TIP3    H2 8499   5.676   4.604   6.163
 2852TIP3   OH2 8500   6.431   3.143   3.946
 2852TIP3    H1 8501   6.527   3.144   3.953
 2852TIP3    H2 8502   6.413   3.088   3.870
 2853TIP3   OH2 8503   4.136   3.384   2.912
 2853TIP3    H1 8504   4.150   3.302   2.960
 2853TIP3    H2 8505   4.198   3.445   2.951
 2854TIP3   OH2 8506   6.646   2.869   2.805
 2854TIP3    H1 8507   6.584   2.866   2.733
 2854TIP3    H2 8508   6.675   2.960   2.808
 2855TIP3   OH2 8509   1.492   2.033   1.175
 2855TIP3    H1 8510   1.473   2.070   1.090
 2855TIP3    H2 8511   1.479   1.938   1.164
 2856TIP3   OH2 8512   6.161   6.458   6.660
 2856TIP3    H1 8513   6.220   6.388   6.687
 2856TIP3    H2 8514   6.172   6.526   6.727
 2857TIP3   OH2 8515   2.992   3.996   0.413
 2857TIP3    H1 8516   2.955   3.911   0.438
 2857TIP3    H2 8517   2.918   4.044   0.377
 2858TIP3   OH2 8518   5.755   4.940   0.010
 2858TIP3    H1 8519   5.691   5.008  -0.010
 2858TIP3    H2 8520   5.729   4.905   0.095
 2859TIP3   OH2 8521   0.413   2.370   2.193
 2859TIP3    H1 8522   0.452   2.324   2.268
 2859TIP3    H2 8523   0.331   2.405   2.226
 2860TIP3   OH2 8524   4.340   0.736   5.458
 2860TIP3    H1 8525   4.343   0.832   5.456
 2860TIP3    H2 8526   4.284   0.716   5.533
 2861TIP3   OH2 8527   1.730   0.770   4.209
 2861TIP3    H1 8528   1.710   0.864   4.205
 2861TIP3    H2 8529   1.792   0.756   4.138
 2862TIP3   OH2 8530   0.076   3.914   2.559
 2862TIP3    H1 8531   0.167   3.905   2.530
 2862TIP3    H2 8532   0.042   3.988   2.509
 2863TIP3   OH2 8533   7.446   7.155   5.425
 2863TIP3    H1 8534   7.516   7.094   5.448
 2863TIP3    H2 8535   7.418   7.193   5.508
 2864TIP3   OH2 8536   0.773   2.953   3.475
 2864TIP3    H1 8537   0.691   2.935   3.428
 2864TIP3    H2 8538   0.753   3.031   3.528
 2865TIP3   OH2 8539   8.238   3.431   4.161
 2865TIP3    H1 8540   8.315   3.489   4.158
 2865TIP3    H2 8541   8.238   3.396   4.250
 2866TIP3   OH2 8542   0.348   2.786   5.824
 2866TIP3    H1 8543   0.350   2.873   5.784
 2866TIP3    H2 8544   0.348   2.804   5.918
 2867TIP3   OH2 8545   3.841   3.903   5.179
 2867TIP3    H1 8546   3.791   3.977   5.145
 2867TIP3    H2 8547   3.911   3.890   5.114
 2868TIP3   OH2 8548   1.931   6.651   3.571
 2868TIP3    H1 8549   2.017   6.683   3.600
 2868TIP3    H2 8550   1.889   6.621   3.652
 2869TIP3   OH2 8551   4.445   7.126   1.183
 2869TIP3    H1 8552   4.388   7.050   1.176
 2869TIP3    H2 8553   4.507   7.103   1.252
 2870TIP3   OH2 8554   3.612   0.750   4.299
 2870TIP3    H1 8555   3.581   0.692   4.369
 2870TIP3    H2 8556   3.707   0.738   4.297
 2871TIP3   OH2 8557   5.136   4.210   0.048
 2871TIP3    H1 8558   5.094   4.270  -0.015
 2871TIP3    H2 8559   5.179   4.268   0.110
 2872TIP3   OH2 8560   0.633   0.576   0.301
 2872TIP3    H1 8561   0.642   0.552   0.393
 2872TIP3    H2 8562   0.609   0.669   0.303
 2873TIP3   OH2 8563   8.248   6.569   0.777
 2873TIP3    H1 8564   8.254   6.553   0.683
 2873TIP3    H2 8565   8.193   6.646   0.785
 2874TIP3   OH2 8566   1.460   7.432   4.807
 2874TIP3    H1 8567   1.434   7.510   4.758
 2874TIP3    H2 8568   1.520   7.386   4.749
 2875TIP3   OH2 8569   7.318   3.271   0.873
 2875TIP3    H1 8570   7.277   3.354   0.846
 2875TIP3    H2 8571   7.274   3.249   0.955
 2876TIP3   OH2 8572   6.974   7.196   0.791
 2876TIP3    H1 8573   6.891   7.170   0.753
 2876TIP3    H2 8574   6.973   7.160   0.880
 2877TIP3   OH2 8575   4.365   0.730   6.600
 2877TIP3    H1 8576   4.460   0.733   6.609
 2877TIP3    H2 8577   4.339   0.652   6.649
 2878TIP3   OH2 8578   2.956   0.168   5.840
 2878TIP3    H1 8579   2.862   0.168   5.857
 2878TIP3    H2 8580   2.996   0.176   5.926
 2879TIP3   OH2 8581   7.900   2.439   1.169
 2879TIP3    H1 8582   7.853   2.398   1.097
 2879TIP3    H2 8583   7.883   2.533   1.158
 2880TIP3   OH2 8584   0.503   7.083   4.146
 2880TIP3    H1 8585   0.539   7.134   4.073
 2880TIP3    H2 8586   0.418   7.124   4.164
 2881TIP3   OH2 8587   5.648   3.380   0.978
 2881TIP3    H1 8588   5.584   3.309   0.971
 2881TIP3    H2 8589   5.695   3.378   0.894
 2882TIP3   OH2 8590   0.330   2.364   3.633
 2882TIP3    H1 8591   0.317   2.323   3.548
 2882TIP3    H2 8592   0.380   2.300   3.684
 2883TIP3   OH2 8593   0.715   5.366   5.068
 2883TIP3    H1 8594   0.805   5.347   5.095
 2883TIP3    H2 8595   0.661   5.307   5.121
 2884TIP3   OH2 8596   3.839   4.753   3.800
 2884TIP3    H1 8597   3.883   4.725   3.721
 2884TIP3    H2 8598   3.751   4.716   3.794
 2885TIP3   OH2 8599   2.620   6.196   0.158
 2885TIP3    H1 8600   2.564   6.227   0.087
 2885TIP3    H2 8601   2.659   6.276   0.194
 2886TIP3   OH2 8602   3.151   6.888   3.326
 2886TIP3    H1 8603   3.175   6.920   3.413
 2886TIP3    H2 8604   3.224   6.915   3.269
 2887TIP3   OH2 8605   0.153   5.107   5.260
 2887TIP3    H1 8606   0.213   5.038   5.230
 2887TIP3    H2 8607   0.067   5.078   5.229
 2888TIP3   OH2 8608   7.992   1.140   3.153
 2888TIP3    H1 8609   8.003   1.150   3.247
 2888TIP3    H2 8610   8.034   1.056   3.133
 2889TIP3   OH2 8611   0.190   0.849   0.478
 2889TIP3    H1 8612   0.157   0.934   0.448
 2889TIP3    H2 8613   0.278   0.867   0.510
 2890TIP3   OH2 8614   0.046   3.836   2.167
 2890TIP3    H1 8615   0.082   3.765   2.221
 2890TIP3    H2 8616  -0.037   3.858   2.209
 2891TIP3   OH2 8617   6.464   7.560   2.045
 2891TIP3    H1 8618   6.511   7.599   1.971
 2891TIP3    H2 8619   6.509   7.476   2.059
 2892TIP3   OH2 8620   7.412   2.899   5.883
 2892TIP3    H1 8621   7.336   2.946   5.917
 2892TIP3    H2 8622   7.451   2.858   5.960
 2893TIP3   OH2 8623   3.211   2.950   2.003
 2893TIP3    H1 8624   3.224   2.901   1.923
 2893TIP3    H2 8625   3.159   2.892   2.059
 2894TIP3   OH2 8626   1.340   2.400   5.535
 2894TIP3    H1 8627   1.326   2.495   5.533
 2894TIP3    H2 8628   1.433   2.389   5.516
 2895TIP3   OH2 8629   4.903   0.481   2.315
 2895TIP3    H1 8630   4.862   0.417   2.257
 2895TIP3    H2 8631   4.909   0.436   2.399
 2896TIP3   OH2 8632   0.395   6.682   5.127
 2896TIP3    H1 8633   0.443   6.737   5.189
 2896TIP3    H2 8634   0.398   6.731   5.044
 2897TIP3   OH2 8635   7.870   7.452   4.512
 2897TIP3    H1 8636   7.842   7.445   4.603
 2897TIP3    H2 8637   7.879   7.547   4.496
 2898TIP3   OH2 8638   8.105   4.856   6.597
 2898TIP3    H1 8639   8.052   4.913   6.653
 2898TIP3    H2 8640   8.052   4.842   6.519
 2899TIP3   OH2 8641   6.888   6.979   3.009
 2899TIP3    H1 8642   6.834   7.035   3.064
 2899TIP3    H2 8643   6.952   6.940   3.069
 2900TIP3   OH2 8644   6.832   1.300   5.276
 2900TIP3    H1 8645   6.766   1.366   5.300
 2900TIP3    H2 8646   6.871   1.273   5.359
 2901TIP3   OH2 8647   8.012   5.775   5.546
 2901TIP3    H1 8648   8.044   5.715   5.480
 2901TIP3    H2 8649   7.999   5.721   5.624
 2902TIP3   OH2 8650   2.413   7.824   1.102
 2902TIP3    H1 8651   2.365   7.766   1.043
 2902TIP3    H2 8652   2.389   7.794   1.190
 2903TIP3   OH2 8653   1.662   0.816   2.087
 2903TIP3    H1 8654   1.583   0.862   2.116
 2903TIP3    H2 8655   1.702   0.784   2.168
 2904TIP3   OH2 8656   4.556   0.074   2.849
 2904TIP3    H1 8657   4.622   0.011   2.876
 2904TIP3    H2 8658   4.562   0.144   2.914
 2905TIP3   OH2 8659   7.606   4.161   5.119
 2905TIP3    H1 8660   7.637   4.198   5.202
 2905TIP3    H2 8661   7.657   4.207   5.052
 2906TIP3   OH2 8662   5.027   5.365   1.989
 2906TIP3    H1 8663   5.010   5.392   2.079
 2906TIP3    H2 8664   5.004   5.441   1.936
 2907TIP3   OH2 8665   7.078   5.591   2.271
 2907TIP3    H1 8666   7.113   5.680   2.278
 2907TIP3    H2 8667   7.053   5.583   2.180
 2908TIP3   OH2 8668   3.973   4.689   3.045
 2908TIP3    H1 8669   4.008   4.727   2.965
 2908TIP3    H2 8670   4.050   4.678   3.102
 2909TIP3   OH2 8671   0.744   1.663   4.883
 2909TIP3    H1 8672   0.679   1.594   4.873
 2909TIP3    H2 8673   0.718   1.708   4.963
 2910TIP3   OH2 8674   3.048   3.758   5.257
 2910TIP3    H1 8675   3.051   3.819   5.330
 2910TIP3    H2 8676   3.139   3.729   5.247
 2911TIP3   OH2 8677   5.968   5.995   0.850
 2911TIP3    H1 8678   6.023   6.044   0.789
 2911TIP3    H2 8679   5.964   5.907   0.814
 2912TIP3   OH2 8680   0.992   6.744   6.771
 2912TIP3    H1 8681   1.041   6.694   6.705
 2912TIP3    H2 8682   0.940   6.807   6.721
 2913TIP3   OH2 8683   4.398   5.471   3.582
 2913TIP3    H1 8684   4.400   5.515   3.667
 2913TIP3    H2 8685   4.335   5.399   3.593
 2914TIP3   OH2 8686   3.569   1.978   1.989
 2914TIP3    H1 8687   3.557   1.993   2.083
 2914TIP3    H2 8688   3.631   2.045   1.962
 2915TIP3   OH2 8689   0.432   2.229   1.947
 2915TIP3    H1 8690   0.419   2.289   2.021
 2915TIP3    H2 8691   0.503   2.171   1.976
 2916TIP3   OH2 8692   0.455   6.701   2.419
 2916TIP3    H1 8693   0.395   6.663   2.356
 2916TIP3    H2 8694   0.503   6.768   2.370
 2917TIP3   OH2 8695   5.526   4.036   2.958
 2917TIP3    H1 8696   5.454   4.080   2.912
 2917TIP3    H2 8697   5.561   3.974   2.894
 2918TIP3   OH2 8698   3.405   6.298   4.924
 2918TIP3    H1 8699   3.332   6.346   4.886
 2918TIP3    H2 8700   3.366   6.215   4.953
 2919TIP3   OH2 8701   3.751   5.128   1.358
 2919TIP3    H1 8702   3.677   5.075   1.386
 2919TIP3    H2 8703   3.747   5.129   1.263
 2920TIP3   OH2 8704   6.803   1.540   3.844
 2920TIP3    H1 8705   6.714   1.575   3.832
 2920TIP3    H2 8706   6.857   1.616   3.864
 2921TIP3   OH2 8707   1.392   3.280   3.402
 2921TIP3    H1 8708   1.470   3.229   3.423
 2921TIP3    H2 8709   1.362   3.245   3.318
 2922TIP3   OH2 8710   4.432   0.273   1.633
 2922TIP3    H1 8711   4.519   0.310   1.618
 2922TIP3    H2 8712   4.372   0.348   1.627
 2923TIP3   OH2 8713   6.355   0.437   6.605
 2923TIP3    H1 8714   6.316   0.378   6.541
 2923TIP3    H2 8715   6.438   0.396   6.630
 2924TIP3   OH2 8716   7.198   3.168   5.610
 2924TIP3    H1 8717   7.210   3.189   5.517
 2924TIP3    H2 8718   7.204   3.073   5.613
 2925TIP3   OH2 8719   3.153   5.430   5.269
 2925TIP3    H1 8720   3.119   5.489   5.202
 2925TIP3    H2 8721   3.213   5.484   5.321
 2926TIP3   OH2 8722   1.317   7.312   1.454
 2926TIP3    H1 8723   1.334   7.387   1.511
 2926TIP3    H2 8724   1.239   7.337   1.404
 2927TIP3   OH2 8725   2.126   6.486   1.523
 2927TIP3    H1 8726   2.088   6.416   1.470
 2927TIP3    H2 8727   2.184   6.532   1.462
 2928TIP3   OH2 8728   6.008   0.677   5.767
 2928TIP3    H1 8729   5.975   0.659   5.679
 2928TIP3    H2 8730   5.946   0.740   5.803
 2929TIP3   OH2 8731   0.870   2.835   0.795
 2929TIP3    H1 8732   0.925   2.758   0.807
 2929TIP3    H2 8733   0.865   2.875   0.882
 2930TIP3   OH2 8734   1.830   7.492   1.480
 2930TIP3    H1 8735   1.832   7.476   1.574
 2930TIP3    H2 8736   1.773   7.568   1.469
 2931TIP3   OH2 8737   6.578   4.131   3.153
 2931TIP3    H1 8738   6.575   4.148   3.059
 2931TIP3    H2 8739   6.669   4.146   3.178
 2932TIP3   OH2 8740   5.094   4.300   3.372
 2932TIP3    H1 8741   5.055   4.378   3.412
 2932TIP3    H2 8742   5.103   4.238   3.445
 2933TIP3   OH2 8743   6.217   2.747   3.916
 2933TIP3    H1 8744   6.251   2.703   3.838
 2933TIP3    H2 8745   6.122   2.736   3.910
 2934TIP3   OH2 8746   6.826   5.327   2.299
 2934TIP3    H1 8747   6.840   5.329   2.393
 2934TIP3    H2 8748   6.748   5.380   2.285
 2935TIP3   OH2 8749   4.901   4.268   0.559
 2935TIP3    H1 8750   4.987   4.310   0.566
 2935TIP3    H2 8751   4.857   4.288   0.642
 2936TIP3   OH2 8752   6.225   7.313   6.121
 2936TIP3    H1 8753   6.217   7.384   6.184
 2936TIP3    H2 8754   6.145   7.262   6.133
 2937TIP3   OH2 8755   1.349   5.477   5.721
 2937TIP3    H1 8756   1.434   5.499   5.684
 2937TIP3    H2 8757   1.367   5.412   5.788
 2938TIP3   OH2 8758   0.949   2.608   4.302
 2938TIP3    H1 8759   0.988   2.680   4.252
 2938TIP3    H2 8760   0.877   2.577   4.247
 2939TIP3   OH2 8761   2.510   5.857   6.197
 2939TIP3    H1 8762   2.544   5.829   6.282
 2939TIP3    H2 8763   2.415   5.848   6.206
 2940TIP3   OH2 8764   4.229   5.828   0.185
 2940TIP3    H1 8765   4.203   5.849   0.275
 2940TIP3    H2 8766   4.156   5.858   0.132
 2941TIP3   OH2 8767   0.745   2.858   2.466
 2941TIP3    H1 8768   0.727   2.947   2.495
 2941TIP3    H2 8769   0.718   2.856   2.374
 2942TIP3   OH2 8770   0.168   5.945   2.068
 2942TIP3    H1 8771   0.209   6.026   2.037
 2942TIP3    H2 8772   0.212   5.875   2.020
 2943TIP3   OH2 8773   0.951   1.494   3.209
 2943TIP3    H1 8774   0.879   1.483   3.146
 2943TIP3    H2 8775   0.909   1.488   3.295
 2944TIP3   OH2 8776   4.003   7.090   6.224
 2944TIP3    H1 8777   3.960   7.057   6.145
 2944TIP3    H2 8778   3.934   7.138   6.271
 2945TIP3   OH2 8779   1.551   1.420   0.610
 2945TIP3    H1 8780   1.499   1.444   0.686
 2945TIP3    H2 8781   1.640   1.447   0.631
 2946TIP3   OH2 8782   3.642   3.676   5.196
 2946TIP3    H1 8783   3.566   3.715   5.240
 2946TIP3    H2 8784   3.706   3.747   5.193
 2947TIP3   OH2 8785   0.251   5.664   3.737
 2947TIP3    H1 8786   0.211   5.577   3.736
 2947TIP3    H2 8787   0.219   5.706   3.656
 2948TIP3   OH2 8788   5.944   0.955   3.111
 2948TIP3    H1 8789   5.897   0.911   3.040
 2948TIP3    H2 8790   5.992   1.026   3.068
 2949TIP3   OH2 8791   5.681   4.807   3.162
 2949TIP3    H1 8792   5.736   4.862   3.106
 2949TIP3    H2 8793   5.603   4.860   3.178
 2950TIP3   OH2 8794   3.017   4.206   3.853
 2950TIP3    H1 8795   2.996   4.266   3.925
 2950TIP3    H2 8796   3.111   4.189   3.863
 2951TIP3   OH2 8797   8.055   1.304   5.588
 2951TIP3    H1 8798   8.064   1.397   5.566
 2951TIP3    H2 8799   7.962   1.285   5.575
 2952TIP3   OH2 8800   8.301   1.551   5.293
 2952TIP3    H1 8801   8.278   1.618   5.228
 2952TIP3    H2 8802   8.260   1.471   5.261
 2953TIP3   OH2 8803   5.930   7.285   3.446
 2953TIP3    H1 8804   5.889   7.237   3.374
 2953TIP3    H2 8805   5.997   7.339   3.403
 2954TIP3   OH2 8806   4.554   4.179   6.110
 2954TIP3    H1 8807   4.527   4.206   6.198
 2954TIP3    H2 8808   4.476   4.137   6.074
 2955TIP3   OH2 8809   5.450   2.038   0.588
 2955TIP3    H1 8810   5.485   2.121   0.618
 2955TIP3    H2 8811   5.395   2.061   0.512
 2956TIP3   OH2 8812   5.775   2.990   3.477
 2956TIP3    H1 8813   5.720   2.931   3.426
 2956TIP3    H2 8814   5.715   3.055   3.512
 2957TIP3   OH2 8815   4.263   6.820   5.763
 2957TIP3    H1 8816   4.234   6.766   5.690
 2957TIP3    H2 8817   4.199   6.891   5.767
 2958TIP3   OH2 8818   7.500   2.943   2.850
 2958TIP3    H1 8819   7.551   3.017   2.883
 2958TIP3    H2 8820   7.560   2.868   2.858
 2959TIP3   OH2 8821   7.095   0.115   3.694
 2959TIP3    H1 8822   7.143   0.131   3.776
 2959TIP3    H2 8823   7.005   0.143   3.713
 2960TIP3   OH2 8824   2.701   4.675   2.547
 2960TIP3    H1 8825   2.651   4.627   2.480
 2960TIP3    H2 8826   2.753   4.738   2.498
 2961TIP3   OH2 8827   1.112   4.071   4.031
 2961TIP3    H1 8828   1.103   4.088   4.125
 2961TIP3    H2 8829   1.030   4.102   3.992
 2962TIP3   OH2 8830   7.176   4.353   1.248
 2962TIP3    H1 8831   7.083   4.367   1.233
 2962TIP3    H2 8832   7.188   4.259   1.243
 2963TIP3   OH2 8833   5.108   3.766   2.227
 2963TIP3    H1 8834   5.029   3.773   2.173
 2963TIP3    H2 8835   5.153   3.688   2.194
 2964TIP3   OH2 8836   4.651   6.178   3.018
 2964TIP3    H1 8837   4.639   6.244   3.087
 2964TIP3    H2 8838   4.635   6.094   3.063
 2965TIP3   OH2 8839   0.524   6.849   5.286
 2965TIP3    H1 8840   0.500   6.931   5.243
 2965TIP3    H2 8841   0.495   6.860   5.377
 2966TIP3   OH2 8842   2.608   4.091   3.863
 2966TIP3    H1 8843   2.674   4.025   3.843
 2966TIP3    H2 8844   2.578   4.122   3.777
 2967TIP3   OH2 8845   1.295   7.365   3.635
 2967TIP3    H1 8846   1.282   7.285   3.583
 2967TIP3    H2 8847   1.206   7.395   3.656
 2968TIP3   OH2 8848   3.418   2.001   0.136
 2968TIP3    H1 8849   3.374   2.024   0.218
 2968TIP3    H2 8850   3.504   2.042   0.142
 2969TIP3   OH2 8851   0.124   2.464   1.048
 2969TIP3    H1 8852   0.135   2.523   0.973
 2969TIP3    H2 8853   0.038   2.424   1.036
 2970TIP3   OH2 8854   8.146   6.812   1.314
 2970TIP3    H1 8855   8.166   6.751   1.385
 2970TIP3    H2 8856   8.072   6.863   1.347
 2971TIP3   OH2 8857   2.855   6.365   1.110
 2971TIP3    H1 8858   2.949   6.355   1.123
 2971TIP3    H2 8859   2.839   6.458   1.127
 2972TIP3   OH2 8860   7.687   4.087   3.539
 2972TIP3    H1 8861   7.629   4.011   3.544
 2972TIP3    H2 8862   7.676   4.130   3.624
 2973TIP3   OH2 8863   4.773   5.368   2.579
 2973TIP3    H1 8864   4.747   5.419   2.502
 2973TIP3    H2 8865   4.708   5.390   2.645
 2974TIP3   OH2 8866   7.917   5.277   6.247
 2974TIP3    H1 8867   7.968   5.242   6.173
 2974TIP3    H2 8868   7.837   5.224   6.248
 2975TIP3   OH2 8869   0.161   6.380   3.467
 2975TIP3    H1 8870   0.156   6.413   3.557
 2975TIP3    H2 8871   0.096   6.431   3.419
 2976TIP3   OH2 8872   4.445   6.614   6.231
 2976TIP3    H1 8873   4.401   6.652   6.156
 2976TIP3    H2 8874   4.536   6.603   6.203
 2977TIP3   OH2 8875   2.787   1.941   5.065
 2977TIP3    H1 8876   2.781   1.940   4.970
 2977TIP3    H2 8877   2.818   2.030   5.086
 2978TIP3   OH2 8878   2.155   0.774   3.613
 2978TIP3    H1 8879   2.153   0.869   3.604
 2978TIP3    H2 8880   2.111   0.758   3.697
 2979TIP3   OH2 8881   1.507   2.653   5.771
 2979TIP3    H1 8882   1.504   2.649   5.676
 2979TIP3    H2 8883   1.560   2.731   5.790
 2980TIP3   OH2 8884   6.767   3.171   4.819
 2980TIP3    H1 8885   6.857   3.154   4.848
 2980TIP3    H2 8886   6.716   3.172   4.900
 2981TIP3   OH2 8887   0.561   3.393   6.638
 2981TIP3    H1 8888   0.514   3.396   6.721
 2981TIP3    H2 8889   0.494   3.413   6.572
 2982TIP3   OH2 8890   3.906   6.297   1.148
 2982TIP3    H1 8891   3.980   6.248   1.112
 2982TIP3    H2 8892   3.875   6.350   1.075
 2983TIP3   OH2 8893   6.819   4.231   5.086
 2983TIP3    H1 8894   6.807   4.326   5.085
 2983TIP3    H2 8895   6.732   4.195   5.101
 2984TIP3   OH2 8896   7.956   7.044   4.928
 2984TIP3    H1 8897   8.044   7.082   4.923
 2984TIP3    H2 8898   7.968   6.953   4.898
 2985TIP3   OH2 8899   0.053   0.971   5.581
 2985TIP3    H1 8900  -0.034   0.932   5.578
 2985TIP3    H2 8901   0.054   1.023   5.662
 2986TIP3   OH2 8902   0.440   6.966   6.078
 2986TIP3    H1 8903   0.413   6.907   6.007
 2986TIP3    H2 8904   0.404   6.926   6.157
 2987TIP3   OH2 8905   2.958   2.762   4.893
 2987TIP3    H1 8906   3.024   2.832   4.890
 2987TIP3    H2 8907   2.879   2.805   4.925
 2988TIP3   OH2 8908   4.184   0.564   5.670
 2988TIP3    H1 8909   4.105   0.569   5.615
 2988TIP3    H2 8910   4.238   0.498   5.629
 2989TIP3   OH2 8911   5.881   4.504   0.969
 2989TIP3    H1 8912   5.814   4.571   0.954
 2989TIP3    H2 8913   5.834   4.421   0.964
 2990TIP3   OH2 8914   5.954   3.173   1.910
 2990TIP3    H1 8915   5.893   3.109   1.947
 2990TIP3    H2 8916   5.899   3.233   1.860
 2991TIP3   OH2 8917   2.211   1.766   5.022
 2991TIP3    H1 8918   2.189   1.851   5.060
 2991TIP3    H2 8919   2.230   1.710   5.097
 2992TIP3   OH2 8920   2.059   2.320   1.916
 2992TIP3    H1 8921   2.129   2.272   1.871
 2992TIP3    H2 8922   2.051   2.276   2.001
 2993TIP3   OH2 8923   3.315   7.131   1.657
 2993TIP3    H1 8924   3.270   7.186   1.720
 2993TIP3    H2 8925   3.259   7.133   1.579
 2994TIP3   OH2 8926   5.002   4.235   5.060
 2994TIP3    H1 8927   5.056   4.255   5.136
 2994TIP3    H2 8928   5.022   4.305   4.997
 2995TIP3   OH2 8929   2.095   3.809   4.516
 2995TIP3    H1 8930   2.120   3.848   4.600
 2995TIP3    H2 8931   2.112   3.878   4.452
 2996TIP3   OH2 8932   5.473   6.996   5.066
 2996TIP3    H1 8933   5.519   6.918   5.034
 2996TIP3    H2 8934   5.392   6.998   5.016
 2997TIP3   OH2 8935   1.282   6.685   6.611
 2997TIP3    H1 8936   1.339   6.761   6.596
 2997TIP3    H2 8937   1.284   6.637   6.528
 2998TIP3   OH2 8938   0.499   3.163   4.256
 2998TIP3    H1 8939   0.516   3.082   4.207
 2998TIP3    H2 8940   0.408   3.154   4.286
 2999TIP3   OH2 8941   0.976   5.812   4.629
 2999TIP3    H1 8942   0.905   5.750   4.612
 2999TIP3    H2 8943   1.055   5.757   4.632
 3000TIP3   OH2 8944   0.601   2.784   0.723
 3000TIP3    H1 8945   0.688   2.805   0.758
 3000TIP3    H2 8946   0.541   2.835   0.777
 3001TIP3   OH2 8947   1.263   6.111   4.450
 3001TIP3    H1 8948   1.247   6.016   4.444
 3001TIP3    H2 8949   1.180   6.147   4.479
 3002TIP3   OH2 8950   7.524   2.377   6.206
 3002TIP3    H1 8951   7.546   2.362   6.298
 3002TIP3    H2 8952   7.564   2.304   6.159
 3003TIP3   OH2 8953   6.708   7.500   0.218
 3003TIP3    H1 8954   6.800   7.505   0.193
 3003TIP3    H2 8955   6.663   7.471   0.138
 3004TIP3   OH2 8956   7.617   2.041   1.408
 3004TIP3    H1 8957   7.575   2.086   1.482
 3004TIP3    H2 8958   7.693   2.095   1.387
 3005TIP3   OH2 8959   0.393   3.713   5.774
 3005TIP3    H1 8960   0.408   3.627   5.733
 3005TIP3    H2 8961   0.442   3.774   5.720
 3006TIP3   OH2 8962   7.938   0.830   4.008
 3006TIP3    H1 8963   7.887   0.762   4.053
 3006TIP3    H2 8964   7.891   0.844   3.925
 3007TIP3   OH2 8965   5.211   5.980   0.380
 3007TIP3    H1 8966   5.203   6.036   0.304
 3007TIP3    H2 8967   5.246   6.037   0.449
 3008TIP3   OH2 8968   1.127   0.886   0.496
 3008TIP3    H1 8969   1.193   0.825   0.530
 3008TIP3    H2 8970   1.177   0.967   0.478
 3009TIP3   OH2 8971   0.876   1.965   0.617
 3009TIP3    H1 8972   0.820   2.039   0.594
 3009TIP3    H2 8973   0.957   2.004   0.649
 3010TIP3   OH2 8974   6.996   1.747   3.877
 3010TIP3    H1 8975   7.047   1.671   3.906
 3010TIP3    H2 8976   7.061   1.804   3.835
 3011TIP3   OH2 8977   1.055   1.506   5.120
 3011TIP3    H1 8978   1.002   1.574   5.161
 3011TIP3    H2 8979   1.061   1.437   5.186
 3012TIP3   OH2 8980   4.419   4.807   2.841
 3012TIP3    H1 8981   4.393   4.717   2.862
 3012TIP3    H2 8982   4.513   4.801   2.827
 3013TIP3   OH2 8983   7.947   2.145   2.094
 3013TIP3    H1 8984   7.916   2.064   2.135
 3013TIP3    H2 8985   7.910   2.142   2.005
 3014TIP3   OH2 8986   0.186   0.754   3.896
 3014TIP3    H1 8987   0.147   0.838   3.919
 3014TIP3    H2 8988   0.113   0.692   3.897
 3015TIP3   OH2 8989   5.865   0.135   3.257
 3015TIP3    H1 8990   5.946   0.105   3.216
 3015TIP3    H2 8991   5.803   0.142   3.184
 3016TIP3   OH2 8992   5.516   2.268   5.926
 3016TIP3    H1 8993   5.433   2.314   5.915
 3016TIP3    H2 8994   5.498   2.179   5.897
 3017TIP3   OH2 8995   2.291   5.056   4.178
 3017TIP3    H1 8996   2.370   5.017   4.141
 3017TIP3    H2 8997   2.247   5.096   4.103
 3018TIP3   OH2 8998   1.551   7.560   6.628
 3018TIP3    H1 8999   1.507   7.599   6.704
 3018TIP3    H2 9000   1.562   7.632   6.567
 3019TIP3   OH2 9001   3.728   7.793   3.217
 3019TIP3    H1 9002   3.728   7.792   3.121
 3019TIP3    H2 9003   3.716   7.701   3.241
 3020TIP3   OH2 9004   5.284   1.702   4.708
 3020TIP3    H1 9005   5.312   1.782   4.753
 3020TIP3    H2 9006   5.263   1.732   4.619
 3021TIP3   OH2 9007   7.140   3.288   2.040
 3021TIP3    H1 9008   7.081   3.357   2.072
 3021TIP3    H2 9009   7.082   3.225   1.998
 3022TIP3   OH2 9010   1.851   3.825   6.370
 3022TIP3    H1 9011   1.758   3.831   6.390
 3022TIP3    H2 9012   1.875   3.913   6.340
 3023TIP3   OH2 9013   5.141   3.819   6.232
 3023TIP3    H1 9014   5.075   3.750   6.239
 3023TIP3    H2 9015   5.104   3.882   6.171
 3024TIP3   OH2 9016   8.053   6.586   4.548
 3024TIP3    H1 9017   7.974   6.554   4.505
 3024TIP3    H2 9018   8.026   6.669   4.590
 3025TIP3   OH2 9019   2.798   1.487   6.364
 3025TIP3    H1 9020   2.747   1.438   6.428
 3025TIP3    H2 9021   2.733   1.528   6.307
 3026TIP3   OH2 9022   5.602   6.298   0.601
 3026TIP3    H1 9023   5.682   6.310   0.549
 3026TIP3    H2 9024   5.543   6.367   0.570
 3027TIP3   OH2 9025   7.893   7.028   1.630
 3027TIP3    H1 9026   7.849   6.955   1.587
 3027TIP3    H2 9027   7.965   7.051   1.570
 3028TIP3   OH2 9028   2.295   1.196   0.817
 3028TIP3    H1 9029   2.228   1.253   0.856
 3028TIP3    H2 9030   2.252   1.110   0.810
 3029TIP3   OH2 9031   6.910   4.474   6.041
 3029TIP3    H1 9032   6.930   4.400   6.098
 3029TIP3    H2 9033   6.831   4.448   5.994
 3030TIP3   OH2 9034   5.392   2.563   2.555
 3030TIP3    H1 9035   5.441   2.645   2.559
 3030TIP3    H2 9036   5.417   2.516   2.634
 3031TIP3   OH2 9037   5.194   1.074   1.823
 3031TIP3    H1 9038   5.197   1.027   1.907
 3031TIP3    H2 9039   5.260   1.029   1.769
 3032TIP3   OH2 9040   1.627   4.115   4.459
 3032TIP3    H1 9041   1.577   4.167   4.397
 3032TIP3    H2 9042   1.703   4.084   4.410
 3033TIP3   OH2 9043   4.024   4.278   4.342
 3033TIP3    H1 9044   3.938   4.284   4.383
 3033TIP3    H2 9045   4.084   4.320   4.404
 3034TIP3   OH2 9046   1.055   6.354   3.379
 3034TIP3    H1 9047   0.986   6.290   3.363
 3034TIP3    H2 9048   1.009   6.434   3.402
 3035TIP3   OH2 9049   7.003   2.092   4.817
 3035TIP3    H1 9050   7.057   2.092   4.737
 3035TIP3    H2 9051   7.035   2.166   4.868
 3036TIP3   OH2 9052   1.786   7.762   4.675
 3036TIP3    H1 9053   1.743   7.737   4.593
 3036TIP3    H2 9054   1.755   7.851   4.692
 3037TIP3   OH2 9055   7.050   2.232   0.728
 3037TIP3    H1 9056   7.087   2.310   0.688
 3037TIP3    H2 9057   6.970   2.215   0.678
 3038TIP3   OH2 9058   5.408   7.371   6.124
 3038TIP3    H1 9059   5.476   7.306   6.105
 3038TIP3    H2 9060   5.335   7.321   6.160
 3039TIP3   OH2 9061   1.101   2.141   2.947
 3039TIP3    H1 9062   1.152   2.142   2.866
 3039TIP3    H2 9063   1.151   2.195   3.008
 3040TIP3   OH2 9064   6.086   2.497   3.175
 3040TIP3    H1 9065   6.057   2.553   3.102
 3040TIP3    H2 9066   6.036   2.528   3.250
 3041TIP3   OH2 9067   5.008   4.080   2.165
 3041TIP3    H1 9068   5.064   4.132   2.222
 3041TIP3    H2 9069   4.973   4.011   2.221
 3042TIP3   OH2 9070   2.958   5.424   3.084
 3042TIP3    H1 9071   2.992   5.480   3.154
 3042TIP3    H2 9072   3.035   5.377   3.053
 3043TIP3   OH2 9073   5.979   4.031   3.296
 3043TIP3    H1 9074   5.916   4.092   3.259
 3043TIP3    H2 9075   5.997   3.968   3.227
 3044TIP3   OH2 9076   2.329   1.579   0.779
 3044TIP3    H1 9077   2.385   1.520   0.829
 3044TIP3    H2 9078   2.347   1.666   0.815
 3045TIP3   OH2 9079   0.514   5.560   2.059
 3045TIP3    H1 9080   0.459   5.622   2.013
 3045TIP3    H2 9081   0.583   5.613   2.099
 3046TIP3   OH2 9082   7.561   4.748   0.579
 3046TIP3    H1 9083   7.594   4.738   0.669
 3046TIP3    H2 9084   7.487   4.687   0.574
 3047TIP3   OH2 9085   4.959   2.135   3.574
 3047TIP3    H1 9086   4.990   2.045   3.584
 3047TIP3    H2 9087   5.009   2.170   3.500
 3048TIP3   OH2 9088   2.965   4.220   4.445
 3048TIP3    H1 9089   2.926   4.257   4.524
 3048TIP3    H2 9090   3.017   4.292   4.408
 3049TIP3   OH2 9091   6.089   0.710   4.890
 3049TIP3    H1 9092   6.123   0.659   4.817
 3049TIP3    H2 9093   5.994   0.713   4.875
 3050TIP3   OH2 9094   4.081   0.682   5.367
 3050TIP3    H1 9095   4.165   0.726   5.377
 3050TIP3    H2 9096   4.030   0.740   5.310
 3051TIP3   OH2 9097   2.613   5.699   4.042
 3051TIP3    H1 9098   2.585   5.764   3.978
 3051TIP3    H2 9099   2.541   5.635   4.044
 3052TIP3   OH2 9100   7.007   3.065   4.868
 3052TIP3    H1 9101   7.069   3.055   4.796
 3052TIP3    H2 9102   7.001   2.978   4.907
 3053TIP3   OH2 9103   0.720   1.353   4.933
 3053TIP3    H1 9104   0.714   1.364   5.028
 3053TIP3    H2 9105   0.654   1.412   4.898
 3054TIP3   OH2 9106   5.636   5.844   5.885
 3054TIP3    H1 9107   5.552   5.808   5.858
 3054TIP3    H2 9108   5.623   5.872   5.975
 3055TIP3   OH2 9109   2.032   3.353   6.380
 3055TIP3    H1 9110   2.025   3.344   6.475
 3055TIP3    H2 9111   2.021   3.446   6.363
 3056TIP3   OH2 9112   0.195   4.665   6.047
 3056TIP3    H1 9113   0.108   4.694   6.019
 3056TIP3    H2 9114   0.228   4.737   6.101
 3057TIP3   OH2 9115   3.890   4.797   4.082
 3057TIP3    H1 9116   3.868   4.780   3.990
 3057TIP3    H2 9117   3.867   4.716   4.128
 3058TIP3   OH2 9118   6.785   7.008   4.275
 3058TIP3    H1 9119   6.827   7.069   4.336
 3058TIP3    H2 9120   6.765   6.931   4.328
 3059TIP3   OH2 9121   3.893   3.222   5.920
 3059TIP3    H1 9122   3.886   3.127   5.904
 3059TIP3    H2 9123   3.802   3.253   5.917
 3060TIP3   OH2 9124   3.093   2.841   6.362
 3060TIP3    H1 9125   3.032   2.771   6.387
 3060TIP3    H2 9126   3.038   2.919   6.356
 3061TIP3   OH2 9127   3.037   6.138   0.494
 3061TIP3    H1 9128   2.988   6.121   0.575
 3061TIP3    H2 9129   3.056   6.231   0.496
 3062TIP3   OH2 9130   5.577   6.139   5.524
 3062TIP3    H1 9131   5.664   6.110   5.496
 3062TIP3    H2 9132   5.584   6.151   5.618
 3063TIP3   OH2 9133   0.993   5.362   0.424
 3063TIP3    H1 9134   1.003   5.347   0.518
 3063TIP3    H2 9135   0.905   5.396   0.414
 3064TIP3   OH2 9136   5.044   3.629   1.669
 3064TIP3    H1 9137   5.026   3.585   1.751
 3064TIP3    H2 9138   5.011   3.718   1.682
 3065TIP3   OH2 9139   4.743   1.968   1.130
 3065TIP3    H1 9140   4.673   1.916   1.089
 3065TIP3    H2 9141   4.765   1.919   1.209
 3066TIP3   OH2 9142   3.675   7.439   4.366
 3066TIP3    H1 9143   3.634   7.488   4.437
 3066TIP3    H2 9144   3.691   7.504   4.298
 3067TIP3   OH2 9145   3.397   5.009   1.195
 3067TIP3    H1 9146   3.416   4.916   1.212
 3067TIP3    H2 9147   3.302   5.012   1.187
 3068TIP3   OH2 9148   7.318   6.077   1.420
 3068TIP3    H1 9149   7.340   5.986   1.438
 3068TIP3    H2 9150   7.281   6.076   1.331
 3069TIP3   OH2 9151   5.774   1.613   0.772
 3069TIP3    H1 9152   5.850   1.611   0.831
 3069TIP3    H2 9153   5.730   1.695   0.794
 3070TIP3   OH2 9154   2.821   2.198   5.689
 3070TIP3    H1 9155   2.828   2.221   5.597
 3070TIP3    H2 9156   2.792   2.279   5.732
 3071TIP3   OH2 9157   2.139   2.528   3.542
 3071TIP3    H1 9158   2.189   2.469   3.485
 3071TIP3    H2 9159   2.087   2.581   3.482
 3072TIP3   OH2 9160   4.292   1.924   2.243
 3072TIP3    H1 9161   4.324   2.013   2.239
 3072TIP3    H2 9162   4.371   1.870   2.250
 3073TIP3   OH2 9163   5.420   1.023   1.674
 3073TIP3    H1 9164   5.424   1.105   1.624
 3073TIP3    H2 9165   5.465   0.960   1.618
 3074TIP3   OH2 9166   0.430   0.910   0.643
 3074TIP3    H1 9167   0.405   0.941   0.730
 3074TIP3    H2 9168   0.482   0.831   0.661
 3075TIP3   OH2 9169   0.015   4.758   5.238
 3075TIP3    H1 9170   0.107   4.736   5.250
 3075TIP3    H2 9171  -0.031   4.702   5.301
 3076TIP3   OH2 9172   2.212   7.294   0.877
 3076TIP3    H1 9173   2.193   7.209   0.915
 3076TIP3    H2 9174   2.144   7.306   0.810
 3077TIP3   OH2 9175   7.136   2.090   1.482
 3077TIP3    H1 9176   7.141   2.157   1.551
 3077TIP3    H2 9177   7.224   2.051   1.480
 3078TIP3   OH2 9178   4.651   1.821   3.657
 3078TIP3    H1 9179   4.646   1.794   3.565
 3078TIP3    H2 9180   4.744   1.816   3.679
 3079TIP3   OH2 9181   7.822   0.006   1.504
 3079TIP3    H1 9182   7.779   0.043   1.427
 3079TIP3    H2 9183   7.790   0.058   1.578
 3080TIP3   OH2 9184   0.933   2.728   6.771
 3080TIP3    H1 9185   1.021   2.755   6.745
 3080TIP3    H2 9186   0.885   2.719   6.689
 3081TIP3   OH2 9187   3.360   3.745   1.292
 3081TIP3    H1 9188   3.349   3.664   1.341
 3081TIP3    H2 9189   3.297   3.806   1.332
 3082TIP3   OH2 9190   6.211   6.184   3.723
 3082TIP3    H1 9191   6.293   6.233   3.721
 3082TIP3    H2 9192   6.234   6.096   3.692
 3083TIP3   OH2 9193   7.727   2.589   6.247
 3083TIP3    H1 9194   7.663   2.656   6.271
 3083TIP3    H2 9195   7.805   2.639   6.223
 3084TIP3   OH2 9196   7.473   7.795   0.728
 3084TIP3    H1 9197   7.425   7.872   0.696
 3084TIP3    H2 9198   7.432   7.721   0.684
 3085TIP3   OH2 9199   6.327   2.866   5.270
 3085TIP3    H1 9200   6.325   2.944   5.326
 3085TIP3    H2 9201   6.290   2.796   5.324
 3086TIP3   OH2 9202   2.423   7.332   0.343
 3086TIP3    H1 9203   2.433   7.336   0.248
 3086TIP3    H2 9204   2.458   7.416   0.375
 3087TIP3   OH2 9205   3.325   6.494   5.265
 3087TIP3    H1 9206   3.284   6.410   5.280
 3087TIP3    H2 9207   3.417   6.473   5.245
 3088TIP3   OH2 9208   8.118   3.037   2.023
 3088TIP3    H1 9209   8.195   2.985   2.044
 3088TIP3    H2 9210   8.086   3.000   1.940
 3089TIP3   OH2 9211   2.905   3.695   4.817
 3089TIP3    H1 9212   2.816   3.661   4.826
 3089TIP3    H2 9213   2.954   3.651   4.886
 3090TIP3   OH2 9214   0.471   0.273   1.441
 3090TIP3    H1 9215   0.554   0.294   1.397
 3090TIP3    H2 9216   0.498   0.240   1.527
 3091TIP3   OH2 9217   0.224   5.518   6.021
 3091TIP3    H1 9218   0.310   5.560   6.022
 3091TIP3    H2 9219   0.203   5.506   6.114
 3092TIP3   OH2 9220   0.899   1.703   5.319
 3092TIP3    H1 9221   0.881   1.787   5.361
 3092TIP3    H2 9222   0.906   1.640   5.391
 3093TIP3   OH2 9223   5.905   7.005   1.789
 3093TIP3    H1 9224   5.998   7.014   1.768
 3093TIP3    H2 9225   5.903   6.962   1.874
 3094TIP3   OH2 9226   5.856   0.882   3.900
 3094TIP3    H1 9227   5.855   0.838   3.815
 3094TIP3    H2 9228   5.939   0.929   3.902
 3095TIP3   OH2 9229   1.391   6.731   3.255
 3095TIP3    H1 9230   1.390   6.656   3.315
 3095TIP3    H2 9231   1.475   6.726   3.211
 3096TIP3   OH2 9232   7.708   7.626   2.219
 3096TIP3    H1 9233   7.718   7.722   2.214
 3096TIP3    H2 9234   7.669   7.602   2.135
 3097TIP3   OH2 9235   2.425   2.389   5.606
 3097TIP3    H1 9236   2.462   2.319   5.552
 3097TIP3    H2 9237   2.397   2.455   5.543
 3098TIP3   OH2 9238   0.453   6.370   2.950
 3098TIP3    H1 9239   0.451   6.464   2.967
 3098TIP3    H2 9240   0.491   6.332   3.029
 3099TIP3   OH2 9241   4.343   0.383   5.560
 3099TIP3    H1 9242   4.342   0.380   5.464
 3099TIP3    H2 9243   4.273   0.323   5.587
 3100TIP3   OH2 9244   5.918   1.254   4.694
 3100TIP3    H1 9245   5.888   1.343   4.675
 3100TIP3    H2 9246   5.878   1.201   4.625
 3101TIP3   OH2 9247   7.196   6.175   6.036
 3101TIP3    H1 9248   7.184   6.113   5.964
 3101TIP3    H2 9249   7.155   6.256   6.006
 3102TIP3   OH2 9250   7.878   6.593   2.968
 3102TIP3    H1 9251   7.928   6.522   2.929
 3102TIP3    H2 9252   7.799   6.599   2.914
 3103TIP3   OH2 9253   7.601   4.948   2.115
 3103TIP3    H1 9254   7.570   4.866   2.154
 3103TIP3    H2 9255   7.582   5.015   2.180
 3104TIP3   OH2 9256   6.501   4.341   4.206
 3104TIP3    H1 9257   6.560   4.353   4.281
 3104TIP3    H2 9258   6.516   4.418   4.151
 3105TIP3   OH2 9259   7.527   3.419   6.656
 3105TIP3    H1 9260   7.565   3.339   6.618
 3105TIP3    H2 9261   7.546   3.487   6.592
 3106TIP3   OH2 9262   0.213   1.802   1.230
 3106TIP3    H1 9263   0.166   1.877   1.267
 3106TIP3    H2 9264   0.288   1.842   1.185
 3107TIP3   OH2 9265   5.624   7.529   1.557
 3107TIP3    H1 9266   5.600   7.542   1.649
 3107TIP3    H2 9267   5.716   7.501   1.561
 3108TIP3   OH2 9268   5.193   3.276   0.066
 3108TIP3    H1 9269   5.150   3.196   0.035
 3108TIP3    H2 9270   5.276   3.278   0.018
 3109TIP3   OH2 9271   0.571   0.669   3.207
 3109TIP3    H1 9272   0.526   0.749   3.235
 3109TIP3    H2 9273   0.654   0.670   3.254
 3110TIP3   OH2 9274   5.423   6.973   1.771
 3110TIP3    H1 9275   5.332   7.000   1.758
 3110TIP3    H2 9276   5.427   6.945   1.863
 3111TIP3   OH2 9277   0.598   6.888   0.377
 3111TIP3    H1 9278   0.588   6.896   0.282
 3111TIP3    H2 9279   0.692   6.895   0.392
 3112TIP3   OH2 9280   7.014   4.647   1.146
 3112TIP3    H1 9281   6.980   4.558   1.146
 3112TIP3    H2 9282   6.974   4.688   1.070
 3113TIP3   OH2 9283   3.383   3.295   3.909
 3113TIP3    H1 9284   3.300   3.248   3.903
 3113TIP3    H2 9285   3.404   3.319   3.819
 3114TIP3   OH2 9286   6.269   4.320   0.569
 3114TIP3    H1 9287   6.350   4.367   0.588
 3114TIP3    H2 9288   6.296   4.228   0.562
 3115TIP3   OH2 9289   7.574   4.308   1.389
 3115TIP3    H1 9290   7.533   4.355   1.317
 3115TIP3    H2 9291   7.505   4.253   1.425
 3116TIP3   OH2 9292   3.270   7.140   4.312
 3116TIP3    H1 9293   3.275   7.197   4.235
 3116TIP3    H2 9294   3.347   7.084   4.305
 3117TIP3   OH2 9295   1.198   3.195   6.633
 3117TIP3    H1 9296   1.257   3.253   6.584
 3117TIP3    H2 9297   1.149   3.254   6.690
 3118TIP3   OH2 9298   6.770   5.281   5.902
 3118TIP3    H1 9299   6.839   5.291   5.968
 3118TIP3    H2 9300   6.747   5.188   5.906
 3119TIP3   OH2 9301   6.834   7.310   2.825
 3119TIP3    H1 9302   6.762   7.249   2.840
 3119TIP3    H2 9303   6.896   7.261   2.771
 3120TIP3   OH2 9304   6.911   6.103   1.693
 3120TIP3    H1 9305   6.876   6.157   1.622
 3120TIP3    H2 9306   6.834   6.066   1.736
 3121TIP3   OH2 9307   4.643   1.798   3.077
 3121TIP3    H1 9308   4.687   1.872   3.118
 3121TIP3    H2 9309   4.549   1.814   3.092
 3122TIP3   OH2 9310  -0.011   2.882   0.369
 3122TIP3    H1 9311   0.041   2.807   0.399
 3122TIP3    H2 9312   0.032   2.911   0.289
 3123TIP3   OH2 9313   2.256   6.595   1.309
 3123TIP3    H1 9314   2.175   6.586   1.257
 3123TIP3    H2 9315   2.314   6.647   1.254
 3124TIP3   OH2 9316   2.327   6.443   0.163
 3124TIP3    H1 9317   2.258   6.495   0.205
 3124TIP3    H2 9318   2.389   6.508   0.132
 3125TIP3   OH2 9319   3.390   5.124   1.800
 3125TIP3    H1 9320   3.373   5.186   1.729
 3125TIP3    H2 9321   3.403   5.178   1.877
 3126TIP3   OH2 9322   5.502   6.196   6.408
 3126TIP3    H1 9323   5.500   6.259   6.336
 3126TIP3    H2 9324   5.593   6.197   6.438
 3127TIP3   OH2 9325   0.003   0.120   5.877
 3127TIP3    H1 9326   0.021   0.106   5.784
 3127TIP3    H2 9327   0.089   0.126   5.918
 3128TIP3   OH2 9328   6.042   6.963   4.834
 3128TIP3    H1 9329   6.070   7.047   4.798
 3128TIP3    H2 9330   6.102   6.899   4.795
 3129TIP3   OH2 9331   6.721   6.008   1.861
 3129TIP3    H1 9332   6.634   5.988   1.894
 3129TIP3    H2 9333   6.780   5.987   1.933
 3130TIP3   OH2 9334   7.289   2.274   2.626
 3130TIP3    H1 9335   7.290   2.311   2.538
 3130TIP3    H2 9336   7.381   2.271   2.652
 3131TIP3   OH2 9337   3.683   0.262   3.409
 3131TIP3    H1 9338   3.770   0.286   3.376
 3131TIP3    H2 9339   3.626   0.334   3.382
 3132TIP3   OH2 9340   6.625   3.452   6.151
 3132TIP3    H1 9341   6.692   3.463   6.218
 3132TIP3    H2 9342   6.612   3.539   6.114
 3133TIP3   OH2 9343   0.320   4.931   1.233
 3133TIP3    H1 9344   0.404   4.975   1.249
 3133TIP3    H2 9345   0.254   4.994   1.261
 3134TIP3   OH2 9346   5.947   5.466   1.171
 3134TIP3    H1 9347   5.924   5.550   1.211
 3134TIP3    H2 9348   6.024   5.437   1.219
 3135TIP3   OH2 9349   1.070   6.974   5.136
 3135TIP3    H1 9350   1.027   6.924   5.205
 3135TIP3    H2 9351   1.116   7.045   5.182
 3136TIP3   OH2 9352   6.891   3.163   2.164
 3136TIP3    H1 9353   6.863   3.243   2.207
 3136TIP3    H2 9354   6.923   3.107   2.235
 3137TIP3   OH2 9355   2.259   4.190   3.830
 3137TIP3    H1 9356   2.329   4.255   3.843
 3137TIP3    H2 9357   2.181   4.232   3.868
 3138TIP3   OH2 9358   1.111   1.316   3.899
 3138TIP3    H1 9359   1.138   1.277   3.982
 3138TIP3    H2 9360   1.037   1.372   3.922
 3139TIP3   OH2 9361   1.490   3.515   3.157
 3139TIP3    H1 9362   1.406   3.548   3.189
 3139TIP3    H2 9363   1.515   3.577   3.088
 3140TIP3   OH2 9364   1.650   1.075   1.121
 3140TIP3    H1 9365   1.604   1.057   1.039
 3140TIP3    H2 9366   1.653   1.171   1.126
 3141TIP3   OH2 9367   0.114   5.984   3.864
 3141TIP3    H1 9368   0.050   5.918   3.890
 3141TIP3    H2 9369   0.191   5.966   3.918
 3142TIP3   OH2 9370   1.602   7.231   5.881
 3142TIP3    H1 9371   1.534   7.206   5.819
 3142TIP3    H2 9372   1.639   7.149   5.912
 3143TIP3   OH2 9373   1.753   6.845   1.287
 3143TIP3    H1 9374   1.726   6.875   1.200
 3143TIP3    H2 9375   1.811   6.914   1.319
 3144TIP3   OH2 9376   6.260   1.871   1.036
 3144TIP3    H1 9377   6.347   1.865   1.074
 3144TIP3    H2 9378   6.210   1.926   1.097
 3145TIP3   OH2 9379   5.186   0.608   0.196
 3145TIP3    H1 9380   5.142   0.690   0.221
 3145TIP3    H2 9381   5.275   0.617   0.231
 3146TIP3   OH2 9382   0.045   7.515   1.409
 3146TIP3    H1 9383   0.082   7.457   1.475
 3146TIP3    H2 9384   0.024   7.596   1.456
 3147TIP3   OH2 9385   3.096   4.246   4.781
 3147TIP3    H1 9386   3.077   4.170   4.726
 3147TIP3    H2 9387   3.142   4.210   4.856
 3148TIP3   OH2 9388   5.811   4.908   1.061
 3148TIP3    H1 9389   5.736   4.960   1.091
 3148TIP3    H2 9390   5.844   4.956   0.984
 3149TIP3   OH2 9391   0.928   6.730   2.554
 3149TIP3    H1 9392   0.878   6.811   2.541
 3149TIP3    H2 9393   0.930   6.718   2.649
 3150TIP3   OH2 9394   5.565   7.733   2.926
 3150TIP3    H1 9395   5.652   7.763   2.899
 3150TIP3    H2 9396   5.519   7.813   2.951
 3151TIP3   OH2 9397   6.013   7.710   0.956
 3151TIP3    H1 9398   5.920   7.711   0.933
 3151TIP3    H2 9399   6.045   7.796   0.932
 3152TIP3   OH2 9400   3.164   3.252   5.307
 3152TIP3    H1 9401   3.083   3.298   5.287
 3152TIP3    H2 9402   3.223   3.275   5.235
 3153TIP3   OH2 9403   6.707   5.785   5.994
 3153TIP3    H1 9404   6.750   5.747   6.071
 3153TIP3    H2 9405   6.642   5.720   5.968
 3154TIP3   OH2 9406   5.758   2.195   3.259
 3154TIP3    H1 9407   5.782   2.249   3.335
 3154TIP3    H2 9408   5.669   2.223   3.237
 3155TIP3   OH2 9409   3.803   0.458   0.583
 3155TIP3    H1 9410   3.772   0.367   0.584
 3155TIP3    H2 9411   3.896   0.451   0.566
 3156TIP3   OH2 9412   1.134   1.572   5.735
 3156TIP3    H1 9413   1.052   1.534   5.766
 3156TIP3    H2 9414   1.114   1.664   5.720
 3157TIP3   OH2 9415   7.715   2.441   3.702
 3157TIP3    H1 9416   7.807   2.433   3.676
 3157TIP3    H2 9417   7.703   2.374   3.769
 3158TIP3   OH2 9418   7.002   6.761   5.386
 3158TIP3    H1 9419   6.917   6.777   5.426
 3158TIP3    H2 9420   7.054   6.837   5.409
 3159TIP3   OH2 9421   2.853   5.194   2.835
 3159TIP3    H1 9422   2.858   5.266   2.773
 3159TIP3    H2 9423   2.918   5.215   2.902
 3160TIP3   OH2 9424   3.348   5.686   4.991
 3160TIP3    H1 9425   3.258   5.678   5.022
 3160TIP3    H2 9426   3.401   5.665   5.068
 3161TIP3   OH2 9427   3.976   5.985   4.819
 3161TIP3    H1 9428   3.920   5.914   4.851
 3161TIP3    H2 9429   3.945   6.063   4.866
 3162TIP3   OH2 9430   1.970   0.638   1.595
 3162TIP3    H1 9431   1.928   0.720   1.570
 3162TIP3    H2 9432   2.063   0.651   1.573
 3163TIP3   OH2 9433   7.367   4.754   2.779
 3163TIP3    H1 9434   7.415   4.798   2.708
 3163TIP3    H2 9435   7.278   4.788   2.773
 3164TIP3   OH2 9436   3.219   5.558   1.354
 3164TIP3    H1 9437   3.272   5.626   1.313
 3164TIP3    H2 9438   3.147   5.605   1.396
 3165TIP3   OH2 9439   4.332   1.584   3.984
 3165TIP3    H1 9440   4.402   1.639   3.948
 3165TIP3    H2 9441   4.296   1.635   4.056
 3166TIP3   OH2 9442   6.438   3.321   0.490
 3166TIP3    H1 9443   6.441   3.225   0.489
 3166TIP3    H2 9444   6.530   3.347   0.488
 3167TIP3   OH2 9445   5.705   2.077   3.550
 3167TIP3    H1 9446   5.705   2.168   3.520
 3167TIP3    H2 9447   5.619   2.043   3.526
 3168TIP3   OH2 9448   3.161   5.805   3.871
 3168TIP3    H1 9449   3.216   5.730   3.850
 3168TIP3    H2 9450   3.220   5.880   3.869
 3169TIP3   OH2 9451   1.614   6.967   4.165
 3169TIP3    H1 9452   1.626   7.061   4.151
 3169TIP3    H2 9453   1.684   6.943   4.227
 3170TIP3   OH2 9454   5.091   6.167   6.250
 3170TIP3    H1 9455   5.052   6.248   6.285
 3170TIP3    H2 9456   5.155   6.141   6.317
 3171TIP3   OH2 9457   5.488   3.066   4.012
 3171TIP3    H1 9458   5.578   3.056   3.982
 3171TIP3    H2 9459   5.435   3.024   3.943
 3172TIP3   OH2 9460   8.218   4.467   4.340
 3172TIP3    H1 9461   8.255   4.419   4.413
 3172TIP3    H2 9462   8.243   4.558   4.355
 3173TIP3   OH2 9463   1.965   1.777   0.436
 3173TIP3    H1 9464   2.018   1.857   0.440
 3173TIP3    H2 9465   2.016   1.712   0.483
 3174TIP3   OH2 9466   7.182   3.528   0.268
 3174TIP3    H1 9467   7.098   3.530   0.222
 3174TIP3    H2 9468   7.227   3.607   0.238
 3175TIP3   OH2 9469   7.921   1.380   6.251
 3175TIP3    H1 9470   7.984   1.452   6.264
 3175TIP3    H2 9471   7.947   1.315   6.316
 3176TIP3   OH2 9472   1.879   2.061   0.662
 3176TIP3    H1 9473   1.917   2.139   0.704
 3176TIP3    H2 9474   1.936   2.044   0.587
 3177TIP3   OH2 9475   8.040   4.613   6.033
 3177TIP3    H1 9476   8.002   4.545   5.978
 3177TIP3    H2 9477   7.964   4.661   6.067
 3178TIP3   OH2 9478   2.777   6.311   2.364
 3178TIP3    H1 9479   2.847   6.337   2.425
 3178TIP3    H2 9480   2.824   6.282   2.285
 3179TIP3   OH2 9481   2.641   6.726   1.938
 3179TIP3    H1 9482   2.655   6.688   1.851
 3179TIP3    H2 9483   2.549   6.707   1.958
 3180TIP3   OH2 9484   7.650   6.905   4.168
 3180TIP3    H1 9485   7.575   6.937   4.218
 3180TIP3    H2 9486   7.681   6.982   4.120
 3181TIP3   OH2 9487   3.110   6.608   2.408
 3181TIP3    H1 9488   3.117   6.612   2.503
 3181TIP3    H2 9489   3.016   6.599   2.391
 3182TIP3   OH2 9490   4.794   2.874   1.010
 3182TIP3    H1 9491   4.776   2.820   1.087
 3182TIP3    H2 9492   4.781   2.816   0.936
 3183TIP3   OH2 9493   2.340   2.658   4.959
 3183TIP3    H1 9494   2.326   2.695   5.046
 3183TIP3    H2 9495   2.265   2.600   4.946
 3184TIP3   OH2 9496   1.883   3.983   2.506
 3184TIP3    H1 9497   1.810   4.018   2.456
 3184TIP3    H2 9498   1.947   4.054   2.508
 3185TIP3   OH2 9499   8.146   1.441   4.893
 3185TIP3    H1 9500   8.144   1.430   4.798
 3185TIP3    H2 9501   8.227   1.397   4.920
 3186TIP3   OH2 9502   0.695   5.440   1.303
 3186TIP3    H1 9503   0.608   5.456   1.268
 3186TIP3    H2 9504   0.735   5.378   1.241
 3187TIP3   OH2 9505   1.394   4.919   1.286
 3187TIP3    H1 9506   1.360   4.953   1.203
 3187TIP3    H2 9507   1.381   4.825   1.281
 3188TIP3   OH2 9508   5.659   4.994   6.590
 3188TIP3    H1 9509   5.594   5.027   6.528
 3188TIP3    H2 9510   5.640   4.901   6.600
 3189TIP3   OH2 9511   2.154   2.522   2.969
 3189TIP3    H1 9512   2.177   2.448   3.026
 3189TIP3    H2 9513   2.180   2.493   2.881
 3190TIP3   OH2 9514   7.770   4.578   2.515
 3190TIP3    H1 9515   7.767   4.510   2.584
 3190TIP3    H2 9516   7.741   4.658   2.560
 3191TIP3   OH2 9517   6.163   3.396   2.766
 3191TIP3    H1 9518   6.112   3.457   2.819
 3191TIP3    H2 9519   6.242   3.379   2.816
 3192TIP3   OH2 9520   1.525   2.968   2.650
 3192TIP3    H1 9521   1.533   2.946   2.743
 3192TIP3    H2 9522   1.449   2.917   2.620
 3193TIP3   OH2 9523   6.146   5.507   5.744
 3193TIP3    H1 9524   6.153   5.598   5.773
 3193TIP3    H2 9525   6.224   5.493   5.690
 3194TIP3   OH2 9526   3.238   3.831   6.048
 3194TIP3    H1 9527   3.260   3.852   5.958
 3194TIP3    H2 9528   3.143   3.824   6.048
 3195TIP3   OH2 9529   2.286   6.614   0.948
 3195TIP3    H1 9530   2.329   6.629   0.863
 3195TIP3    H2 9531   2.358   6.615   1.011
 3196TIP3   OH2 9532   6.563   6.540   3.310
 3196TIP3    H1 9533   6.552   6.617   3.366
 3196TIP3    H2 9534   6.475   6.516   3.282
 3197TIP3   OH2 9535   7.297   6.740   3.599
 3197TIP3    H1 9536   7.272   6.665   3.653
 3197TIP3    H2 9537   7.392   6.732   3.590
 3198TIP3   OH2 9538   8.301   3.817   1.866
 3198TIP3    H1 9539   8.267   3.728   1.861
 3198TIP3    H2 9540   8.279   3.846   1.955
 3199TIP3   OH2 9541   0.745   1.522   6.394
 3199TIP3    H1 9542   0.714   1.486   6.310
 3199TIP3    H2 9543   0.772   1.445   6.444
 3200TIP3   OH2 9544   0.930   5.335   2.217
 3200TIP3    H1 9545   0.980   5.404   2.261
 3200TIP3    H2 9546   0.987   5.305   2.146
 3201TIP3   OH2 9547   2.308   5.854   2.692
 3201TIP3    H1 9548   2.400   5.842   2.668
 3201TIP3    H2 9549   2.260   5.808   2.623
 3202TIP3   OH2 9550   6.170   7.003   1.820
 3202TIP3    H1 9551   6.190   7.006   1.913
 3202TIP3    H2 9552   6.229   6.937   1.785
 3203TIP3   OH2 9553   6.999   1.392   2.882
 3203TIP3    H1 9554   6.943   1.453   2.930
 3203TIP3    H2 9555   6.947   1.312   2.877
 3204TIP3   OH2 9556   1.419   5.686   3.029
 3204TIP3    H1 9557   1.444   5.772   3.063
 3204TIP3    H2 9558   1.362   5.649   3.097
 3205TIP3   OH2 9559   6.425   3.880   2.515
 3205TIP3    H1 9560   6.488   3.923   2.572
 3205TIP3    H2 9561   6.451   3.788   2.515
 3206TIP3   OH2 9562   0.087   6.010   1.552
 3206TIP3    H1 9563   0.153   5.964   1.499
 3206TIP3    H2 9564   0.137   6.044   1.626
 3207TIP3   OH2 9565   4.042   6.793   1.757
 3207TIP3    H1 9566   4.074   6.726   1.696
 3207TIP3    H2 9567   4.006   6.742   1.830
 3208TIP3   OH2 9568   2.091   2.583   3.962
 3208TIP3    H1 9569   2.112   2.661   3.911
 3208TIP3    H2 9570   2.142   2.593   4.043
 3209TIP3   OH2 9571   7.707   4.491   5.141
 3209TIP3    H1 9572   7.628   4.510   5.089
 3209TIP3    H2 9573   7.777   4.539   5.097
 3210TIP3   OH2 9574   2.253   5.339   4.288
 3210TIP3    H1 9575   2.203   5.300   4.216
 3210TIP3    H2 9576   2.344   5.314   4.270
 3211TIP3   OH2 9577   1.012   0.704   4.192
 3211TIP3    H1 9578   1.099   0.726   4.159
 3211TIP3    H2 9579   1.005   0.751   4.275
 3212TIP3   OH2 9580   1.161   7.208   3.891
 3212TIP3    H1 9581   1.252   7.225   3.867
 3212TIP3    H2 9582   1.165   7.134   3.951
 3213TIP3   OH2 9583   7.978   4.057   6.487
 3213TIP3    H1 9584   7.929   3.981   6.455
 3213TIP3    H2 9585   7.919   4.131   6.473
 3214TIP3   OH2 9586   4.707   4.842   2.878
 3214TIP3    H1 9587   4.745   4.802   2.956
 3214TIP3    H2 9588   4.768   4.819   2.807
 3215TIP3   OH2 9589   8.034   0.141   2.026
 3215TIP3    H1 9590   8.129   0.135   2.017
 3215TIP3    H2 9591   8.019   0.225   2.068
 3216TIP3   OH2 9592   3.942   6.233   5.458
 3216TIP3    H1 9593   4.033   6.210   5.477
 3216TIP3    H2 9594   3.922   6.186   5.377
 3217TIP3   OH2 9595   4.604   5.004   1.571
 3217TIP3    H1 9596   4.548   5.013   1.648
 3217TIP3    H2 9597   4.552   4.954   1.509
 3218TIP3   OH2 9598   2.767   4.841   0.128
 3218TIP3    H1 9599   2.758   4.746   0.123
 3218TIP3    H2 9600   2.681   4.874   0.100
 3219TIP3   OH2 9601   3.932   7.591   1.517
 3219TIP3    H1 9602   4.006   7.621   1.570
 3219TIP3    H2 9603   3.898   7.515   1.564
 3220TIP3   OH2 9604   5.155   6.878   5.071
 3220TIP3    H1 9605   5.169   6.908   4.981
 3220TIP3    H2 9606   5.061   6.856   5.073
 3221TIP3   OH2 9607   1.138   1.128   5.135
 3221TIP3    H1 9608   1.233   1.132   5.136
 3221TIP3    H2 9609   1.113   1.185   5.062
 3222TIP3   OH2 9610   2.058   5.948   4.460
 3222TIP3    H1 9611   2.083   5.952   4.368
 3222TIP3    H2 9612   2.020   6.035   4.478
 3223TIP3   OH2 9613   1.934   0.670   5.925
 3223TIP3    H1 9614   1.988   0.661   5.847
 3223TIP3    H2 9615   1.847   0.642   5.897
 3224TIP3   OH2 9616   1.761   2.645   5.218
 3224TIP3    H1 9617   1.854   2.652   5.200
 3224TIP3    H2 9618   1.724   2.725   5.182
 3225TIP3   OH2 9619   5.060   4.044   4.082
 3225TIP3    H1 9620   5.094   4.104   4.148
 3225TIP3    H2 9621   5.052   4.098   4.003
 3226TIP3   OH2 9622   2.307   4.774   4.331
 3226TIP3    H1 9623   2.299   4.867   4.310
 3226TIP3    H2 9624   2.300   4.770   4.426
 3227TIP3   OH2 9625   0.502   3.384   3.533
 3227TIP3    H1 9626   0.423   3.437   3.545
 3227TIP3    H2 9627   0.499   3.320   3.604
 3228TIP3   OH2 9628   0.464   3.303   2.071
 3228TIP3    H1 9629   0.409   3.313   2.148
 3228TIP3    H2 9630   0.463   3.209   2.053
 3229TIP3   OH2 9631   1.751   4.633   0.697
 3229TIP3    H1 9632   1.784   4.589   0.776
 3229TIP3    H2 9633   1.823   4.627   0.634
 3230TIP3   OH2 9634   0.019   0.440   4.229
 3230TIP3    H1 9635   0.109   0.471   4.213
 3230TIP3    H2 9636  -0.036   0.508   4.191
 3231TIP3   OH2 9637   1.554   2.689   0.747
 3231TIP3    H1 9638   1.625   2.626   0.731
 3231TIP3    H2 9639   1.554   2.745   0.669
 3232TIP3   OH2 9640   2.648   7.093   1.659
 3232TIP3    H1 9641   2.664   7.002   1.636
 3232TIP3    H2 9642   2.657   7.140   1.576
 3233TIP3   OH2 9643   4.823   0.412   4.218
 3233TIP3    H1 9644   4.824   0.316   4.211
 3233TIP3    H2 9645   4.862   0.430   4.303
 3234TIP3   OH2 9646   7.221   3.068   2.233
 3234TIP3    H1 9647   7.167   3.079   2.311
 3234TIP3    H2 9648   7.185   3.131   2.170
 3235TIP3   OH2 9649   2.468   2.125   4.910
 3235TIP3    H1 9650   2.485   2.037   4.944
 3235TIP3    H2 9651   2.441   2.175   4.986
 3236TIP3   OH2 9652   0.236   1.745   1.554
 3236TIP3    H1 9653   0.295   1.811   1.518
 3236TIP3    H2 9654   0.149   1.784   1.547
 3237TIP3   OH2 9655   0.149   6.130   0.645
 3237TIP3    H1 9656   0.190   6.171   0.569
 3237TIP3    H2 9657   0.222   6.102   0.699
 3238TIP3   OH2 9658   8.015   0.664   3.173
 3238TIP3    H1 9659   7.950   0.595   3.184
 3238TIP3    H2 9660   8.041   0.658   3.081
 3239TIP3   OH2 9661   0.941   5.935   1.338
 3239TIP3    H1 9662   0.898   5.849   1.340
 3239TIP3    H2 9663   0.897   5.986   1.405
 3240TIP3   OH2 9664   4.428   4.602   4.974
 3240TIP3    H1 9665   4.482   4.575   4.900
 3240TIP3    H2 9666   4.482   4.583   5.051
 3241TIP3   OH2 9667   8.167   2.040   1.688
 3241TIP3    H1 9668   8.099   1.994   1.737
 3241TIP3    H2 9669   8.198   1.976   1.624
 3242TIP3   OH2 9670   2.283   1.186   1.184
 3242TIP3    H1 9671   2.230   1.241   1.126
 3242TIP3    H2 9672   2.258   1.213   1.273
 3243TIP3   OH2 9673   2.306   6.919   5.268
 3243TIP3    H1 9674   2.362   6.923   5.346
 3243TIP3    H2 9675   2.271   7.008   5.260
 3244TIP3   OH2 9676   2.243   1.972   1.359
 3244TIP3    H1 9677   2.156   2.011   1.366
 3244TIP3    H2 9678   2.230   1.879   1.372
 3245TIP3   OH2 9679   1.785   6.675   3.859
 3245TIP3    H1 9680   1.845   6.717   3.921
 3245TIP3    H2 9681   1.700   6.717   3.876
 3246TIP3   OH2 9682   7.789   1.969   3.032
 3246TIP3    H1 9683   7.825   2.018   3.106
 3246TIP3    H2 9684   7.866   1.936   2.985
 3247TIP3   OH2 9685   4.764   1.776   1.657
 3247TIP3    H1 9686   4.712   1.707   1.699
 3247TIP3    H2 9687   4.795   1.830   1.730
 3248TIP3   OH2 9688   1.871   6.731   4.128
 3248TIP3    H1 9689   1.953   6.757   4.088
 3248TIP3    H2 9690   1.813   6.806   4.116
 3249TIP3   OH2 9691   0.032   1.566   2.920
 3249TIP3    H1 9692  -0.044   1.516   2.890
 3249TIP3    H2 9693   0.025   1.566   3.016
 3250TIP3   OH2 9694   3.476   6.876   5.034
 3250TIP3    H1 9695   3.396   6.926   5.018
 3250TIP3    H2 9696   3.475   6.806   4.968
 3251TIP3   OH2 9697   6.955   6.342   1.948
 3251TIP3    H1 9698   6.949   6.435   1.926
 3251TIP3    H2 9699   6.998   6.302   1.872
 3252TIP3   OH2 9700   4.144   2.583   0.249
 3252TIP3    H1 9701   4.112   2.628   0.327
 3252TIP3    H2 9702   4.235   2.612   0.240
 3253TIP3   OH2 9703   4.035   4.033   5.382
 3253TIP3    H1 9704   3.965   4.012   5.321
 3253TIP3    H2 9705   4.056   3.950   5.425
 3254TIP3   OH2 9706   4.211   3.380   3.258
 3254TIP3    H1 9707   4.188   3.471   3.276
 3254TIP3    H2 9708   4.307   3.381   3.248
 3255TIP3   OH2 9709   4.080   7.106   4.999
 3255TIP3    H1 9710   4.006   7.167   4.988
 3255TIP3    H2 9711   4.106   7.083   4.910
 3256TIP3   OH2 9712   7.524   0.114   1.811
 3256TIP3    H1 9713   7.510   0.031   1.766
 3256TIP3    H2 9714   7.476   0.106   1.893
 3257TIP3   OH2 9715   0.860   6.521   5.119
 3257TIP3    H1 9716   0.788   6.584   5.110
 3257TIP3    H2 9717   0.898   6.517   5.031
 3258TIP3   OH2 9718   3.957   4.309   5.426
 3258TIP3    H1 9719   3.968   4.216   5.445
 3258TIP3    H2 9720   3.987   4.318   5.335
 3259TIP3   OH2 9721   7.732   1.574   3.446
 3259TIP3    H1 9722   7.733   1.478   3.446
 3259TIP3    H2 9723   7.736   1.598   3.354
 3260TIP3   OH2 9724   2.582   0.609   2.527
 3260TIP3    H1 9725   2.535   0.635   2.447
 3260TIP3    H2 9726   2.576   0.514   2.528
 3261TIP3   OH2 9727   5.198   5.012   0.111
 3261TIP3    H1 9728   5.265   5.070   0.145
 3261TIP3    H2 9729   5.116   5.058   0.128
 3262TIP3   OH2 9730   1.451   3.644   5.958
 3262TIP3    H1 9731   1.483   3.701   5.888
 3262TIP3    H2 9732   1.510   3.659   6.031
 3263TIP3   OH2 9733   7.080   5.895   2.577
 3263TIP3    H1 9734   7.052   5.806   2.598
 3263TIP3    H2 9735   7.149   5.914   2.641
 3264TIP3   OH2 9736   5.999   5.561   6.729
 3264TIP3    H1 9737   6.019   5.484   6.782
 3264TIP3    H2 9738   5.915   5.541   6.688
 3265TIP3   OH2 9739   6.301   2.230   3.600
 3265TIP3    H1 9740   6.328   2.275   3.519
 3265TIP3    H2 9741   6.332   2.287   3.670
 3266TIP3   OH2 9742   0.109   4.285   3.429
 3266TIP3    H1 9743   0.071   4.197   3.431
 3266TIP3    H2 9744   0.172   4.286   3.501
 3267TIP3   OH2 9745   4.026   3.656   0.289
 3267TIP3    H1 9746   3.958   3.695   0.344
 3267TIP3    H2 9747   4.097   3.720   0.289
 3268TIP3   OH2 9748   6.437   3.638   5.859
 3268TIP3    H1 9749   6.367   3.683   5.907
 3268TIP3    H2 9750   6.516   3.654   5.911
 3269TIP3   OH2 9751   4.958   4.851   0.074
 3269TIP3    H1 9752   5.053   4.853   0.076
 3269TIP3    H2 9753   4.936   4.839  -0.019
 3270TIP3   OH2 9754   3.848   4.415   3.500
 3270TIP3    H1 9755   3.834   4.442   3.590
 3270TIP3    H2 9756   3.914   4.476   3.466
 3271TIP3   OH2 9757   0.230   3.529   3.507
 3271TIP3    H1 9758   0.186   3.609   3.536
 3271TIP3    H2 9759   0.281   3.555   3.431
 3272TIP3   OH2 9760   3.473   2.671   5.402
 3272TIP3    H1 9761   3.468   2.579   5.428
 3272TIP3    H2 9762   3.419   2.677   5.324
 3273TIP3   OH2 9763   3.148   1.100   2.388
 3273TIP3    H1 9764   3.109   1.013   2.382
 3273TIP3    H2 9765   3.242   1.085   2.389
 3274TIP3   OH2 9766   1.229   5.159   0.213
 3274TIP3    H1 9767   1.267   5.156   0.125
 3274TIP3    H2 9768   1.208   5.251   0.227
 3275TIP3   OH2 9769   3.015   4.807   0.410
 3275TIP3    H1 9770   3.089   4.799   0.470
 3275TIP3    H2 9771   3.005   4.902   0.398
 3276TIP3   OH2 9772   2.875   4.857   6.222
 3276TIP3    H1 9773   2.932   4.790   6.260
 3276TIP3    H2 9774   2.847   4.910   6.296
 3277TIP3   OH2 9775   6.940   1.948   2.857
 3277TIP3    H1 9776   6.855   1.951   2.814
 3277TIP3    H2 9777   6.997   2.001   2.802
 3278TIP3   OH2 9778   2.500   7.660   4.911
 3278TIP3    H1 9779   2.406   7.647   4.898
 3278TIP3    H2 9780   2.531   7.690   4.826
 3279TIP3   OH2 9781   4.422   4.530   2.823
 3279TIP3    H1 9782   4.515   4.522   2.845
 3279TIP3    H2 9783   4.398   4.445   2.787
 3280TIP3   OH2 9784   2.082   6.637   4.489
 3280TIP3    H1 9785   2.021   6.600   4.426
 3280TIP3    H2 9786   2.107   6.722   4.452
 3281TIP3   OH2 9787   4.364   3.067   2.371
 3281TIP3    H1 9788   4.325   3.054   2.458
 3281TIP3    H2 9789   4.303   3.125   2.326
 3282TIP3   OH2 9790   1.803   7.292   1.029
 3282TIP3    H1 9791   1.728   7.330   1.075
 3282TIP3    H2 9792   1.855   7.368   1.001
 3283TIP3   OH2 9793   2.896   3.337   4.749
 3283TIP3    H1 9794   2.887   3.345   4.844
 3283TIP3    H2 9795   2.806   3.326   4.717
 3284TIP3   OH2 9796   1.130   0.756   1.655
 3284TIP3    H1 9797   1.065   0.689   1.677
 3284TIP3    H2 9798   1.129   0.816   1.730
 3285TIP3   OH2 9799   2.167   6.112   2.024
 3285TIP3    H1 9800   2.238   6.172   2.048
 3285TIP3    H2 9801   2.088   6.165   2.030
 3286TIP3   OH2 9802   4.623   6.148   5.087
 3286TIP3    H1 9803   4.692   6.212   5.103
 3286TIP3    H2 9804   4.581   6.136   5.172
 3287TIP3   OH2 9805   2.490   3.926   2.827
 3287TIP3    H1 9806   2.554   3.922   2.756
 3287TIP3    H2 9807   2.414   3.970   2.790
 3288TIP3   OH2 9808   1.187   0.271   1.769
 3288TIP3    H1 9809   1.271   0.316   1.771
 3288TIP3    H2 9810   1.145   0.303   1.689
 3289TIP3   OH2 9811   4.985   2.150   6.054
 3289TIP3    H1 9812   5.029   2.235   6.043
 3289TIP3    H2 9813   4.897   2.172   6.083
 3290TIP3   OH2 9814   1.185   6.397   2.843
 3290TIP3    H1 9815   1.113   6.370   2.785
 3290TIP3    H2 9816   1.145   6.461   2.902
 3291TIP3   OH2 9817   0.057   2.940   5.287
 3291TIP3    H1 9818  -0.031   2.978   5.295
 3291TIP3    H2 9819   0.116   3.010   5.316
 3292TIP3   OH2 9820   5.766   3.286   0.510
 3292TIP3    H1 9821   5.727   3.249   0.432
 3292TIP3    H2 9822   5.828   3.352   0.477
 3293TIP3   OH2 9823   5.555   7.448   0.180
 3293TIP3    H1 9824   5.557   7.388   0.255
 3293TIP3    H2 9825   5.488   7.513   0.204
 3294TIP3   OH2 9826   3.246   7.715   5.580
 3294TIP3    H1 9827   3.209   7.777   5.516
 3294TIP3    H2 9828   3.194   7.636   5.569
 3295TIP3   OH2 9829   6.097   0.572   4.437
 3295TIP3    H1 9830   6.173   0.519   4.409
 3295TIP3    H2 9831   6.033   0.559   4.367
 3296TIP3   OH2 9832   7.670   0.035   6.244
 3296TIP3    H1 9833   7.587   0.059   6.203
 3296TIP3    H2 9834   7.728   0.014   6.170
 3297TIP3   OH2 9835   3.762   7.176   0.104
 3297TIP3    H1 9836   3.712   7.215   0.175
 3297TIP3    H2 9837   3.696   7.139   0.045
 3298TIP3   OH2 9838   2.850   7.715   5.270
 3298TIP3    H1 9839   2.767   7.669   5.280
 3298TIP3    H2 9840   2.858   7.729   5.175
 3299TIP3   OH2 9841   6.785   4.472   2.331
 3299TIP3    H1 9842   6.743   4.489   2.415
 3299TIP3    H2 9843   6.808   4.379   2.334
 3300TIP3   OH2 9844   8.002   0.942   2.170
 3300TIP3    H1 9845   7.978   0.874   2.107
 3300TIP3    H2 9846   7.947   0.925   2.247
 3301TIP3   OH2 9847   0.365   2.758   1.154
 3301TIP3    H1 9848   0.360   2.819   1.228
 3301TIP3    H2 9849   0.280   2.768   1.110
 3302TIP3   OH2 9850   0.192   3.715   6.272
 3302TIP3    H1 9851   0.284   3.688   6.281
 3302TIP3    H2 9852   0.159   3.718   6.362
 3303TIP3   OH2 9853   2.386   3.317   6.017
 3303TIP3    H1 9854   2.412   3.399   6.060
 3303TIP3    H2 9855   2.291   3.316   6.023
 3304TIP3   OH2 9856   6.240   2.467   5.071
 3304TIP3    H1 9857   6.281   2.504   5.149
 3304TIP3    H2 9858   6.301   2.400   5.040
 3305TIP3   OH2 9859   4.818   5.290   5.866
 3305TIP3    H1 9860   4.827   5.345   5.944
 3305TIP3    H2 9861   4.730   5.253   5.873
 3306TIP3   OH2 9862   6.309   1.244   2.099
 3306TIP3    H1 9863   6.307   1.159   2.055
 3306TIP3    H2 9864   6.229   1.288   2.072
 3307TIP3   OH2 9865   6.048   4.024   0.687
 3307TIP3    H1 9866   6.036   4.113   0.720
 3307TIP3    H2 9867   5.959   3.993   0.670
 3308TIP3   OH2 9868   7.295   1.861   3.398
 3308TIP3    H1 9869   7.304   1.839   3.305
 3308TIP3    H2 9870   7.374   1.824   3.439
 3309TIP3   OH2 9871   3.233   2.456   2.880
 3309TIP3    H1 9872   3.214   2.525   2.817
 3309TIP3    H2 9873   3.174   2.473   2.954
 3310TIP3   OH2 9874   2.042   4.668   1.392
 3310TIP3    H1 9875   1.973   4.698   1.452
 3310TIP3    H2 9876   2.117   4.649   1.448
 3311TIP3   OH2 9877   1.183   3.440   4.920
 3311TIP3    H1 9878   1.179   3.536   4.926
 3311TIP3    H2 9879   1.269   3.421   4.883
 3312TIP3   OH2 9880   7.806   3.905   0.393
 3312TIP3    H1 9881   7.780   3.996   0.378
 3312TIP3    H2 9882   7.800   3.864   0.307
 3313TIP3   OH2 9883   7.980   7.268   0.888
 3313TIP3    H1 9884   7.963   7.344   0.832
 3313TIP3    H2 9885   8.069   7.282   0.921
 3314TIP3   OH2 9886   0.860   1.840   0.367
 3314TIP3    H1 9887   0.950   1.822   0.342
 3314TIP3    H2 9888   0.867   1.910   0.432
 3315TIP3   OH2 9889   3.249   6.042   1.859
 3315TIP3    H1 9890   3.266   6.129   1.824
 3315TIP3    H2 9891   3.328   5.992   1.839
 3316TIP3   OH2 9892   0.924   3.117   4.284
 3316TIP3    H1 9893   1.002   3.103   4.230
 3316TIP3    H2 9894   0.937   3.202   4.325
 3317TIP3   OH2 9895   1.919   3.057   5.701
 3317TIP3    H1 9896   1.899   3.119   5.771
 3317TIP3    H2 9897   1.834   3.020   5.677
 3318TIP3   OH2 9898   4.580   6.885   3.313
 3318TIP3    H1 9899   4.513   6.885   3.245
 3318TIP3    H2 9900   4.653   6.934   3.275
 3319TIP3   OH2 9901   7.912   1.004   5.802
 3319TIP3    H1 9902   7.906   1.055   5.884
 3319TIP3    H2 9903   7.823   0.972   5.788
 3320TIP3   OH2 9904   2.874   4.771   1.415
 3320TIP3    H1 9905   2.808   4.702   1.424
 3320TIP3    H2 9906   2.858   4.829   1.489
 3321TIP3   OH2 9907   1.184   4.642   5.945
 3321TIP3    H1 9908   1.213   4.561   5.987
 3321TIP3    H2 9909   1.104   4.616   5.898
 3322TIP3   OH2 9910   5.385   2.123   1.860
 3322TIP3    H1 9911   5.364   2.064   1.787
 3322TIP3    H2 9912   5.480   2.125   1.862
 3323TIP3   OH2 9913   5.332   3.793   3.855
 3323TIP3    H1 9914   5.395   3.757   3.793
 3323TIP3    H2 9915   5.247   3.759   3.826
 3324TIP3   OH2 9916   2.412   4.692   2.682
 3324TIP3    H1 9917   2.422   4.770   2.627
 3324TIP3    H2 9918   2.496   4.648   2.675
 3325TIP3   OH2 9919   3.673   4.268   0.075
 3325TIP3    H1 9920   3.646   4.292  -0.013
 3325TIP3    H2 9921   3.687   4.352   0.119
 3326TIP3   OH2 9922   1.850   2.647   0.141
 3326TIP3    H1 9923   1.944   2.656   0.126
 3326TIP3    H2 9924   1.843   2.587   0.216
 3327TIP3   OH2 9925   0.310   5.311   5.417
 3327TIP3    H1 9926   0.297   5.300   5.511
 3327TIP3    H2 9927   0.241   5.258   5.377
 3328TIP3   OH2 9928   0.899   4.399   1.139
 3328TIP3    H1 9929   0.859   4.481   1.108
 3328TIP3    H2 9930   0.835   4.363   1.200
 3329TIP3   OH2 9931   6.148   6.114   6.141
 3329TIP3    H1 9932   6.212   6.183   6.122
 3329TIP3    H2 9933   6.096   6.149   6.213
 3330TIP3   OH2 9934   0.782   4.181   4.601
 3330TIP3    H1 9935   0.793   4.188   4.506
 3330TIP3    H2 9936   0.820   4.095   4.623
 3331TIP3   OH2 9937   5.366   4.962   2.474
 3331TIP3    H1 9938   5.401   5.034   2.422
 3331TIP3    H2 9939   5.385   4.883   2.423
 3332TIP3   OH2 9940   4.668   7.443   3.094
 3332TIP3    H1 9941   4.596   7.504   3.079
 3332TIP3    H2 9942   4.741   7.478   3.042
 3333TIP3   OH2 9943   2.166   4.096   2.953
 3333TIP3    H1 9944   2.211   4.147   3.020
 3333TIP3    H2 9945   2.076   4.129   2.954
 3334TIP3   OH2 9946   5.620   7.168   5.488
 3334TIP3    H1 9947   5.711   7.151   5.513
 3334TIP3    H2 9948   5.594   7.091   5.439
 3335TIP3   OH2 9949   7.262   3.582   6.343
 3335TIP3    H1 9950   7.216   3.595   6.426
 3335TIP3    H2 9951   7.203   3.525   6.293
 3336TIP3   OH2 9952   7.554   0.855   5.407
 3336TIP3    H1 9953   7.522   0.921   5.468
 3336TIP3    H2 9954   7.491   0.783   5.413
 3337TIP3   OH2 9955   6.608   2.601   6.040
 3337TIP3    H1 9956   6.571   2.663   6.103
 3337TIP3    H2 9957   6.617   2.519   6.089
 3338TIP3   OH2 9958   6.737   6.190   5.708
 3338TIP3    H1 9959   6.772   6.135   5.637
 3338TIP3    H2 9960   6.656   6.227   5.671
 3339TIP3   OH2 9961   2.230   6.238   5.603
 3339TIP3    H1 9962   2.240   6.277   5.516
 3339TIP3    H2 9963   2.151   6.280   5.639
 3340TIP3   OH2 9964   6.015   2.747   3.022
 3340TIP3    H1 9965   5.956   2.795   3.081
 3340TIP3    H2 9966   6.075   2.814   2.989
 3341TIP3   OH2 9967   2.388   3.485   5.073
 3341TIP3    H1 9968   2.343   3.549   5.129
 3341TIP3    H2 9969   2.480   3.496   5.094
 3342TIP3   OH2 9970   6.471   7.466   0.511
 3342TIP3    H1 9971   6.547   7.524   0.517
 3342TIP3    H2 9972   6.427   7.491   0.430
 3343TIP3   OH2 9973   3.770   2.700   1.323
 3343TIP3    H1 9974   3.854   2.718   1.280
 3343TIP3    H2 9975   3.734   2.786   1.341
 3344TIP3   OH2 9976   7.040   7.162   3.628
 3344TIP3    H1 9977   7.097   7.094   3.663
 3344TIP3    H2 9978   7.018   7.133   3.540
 3345TIP3   OH2 9979   2.286   7.492   4.994
 3345TIP3    H1 9980   2.204   7.539   5.014
 3345TIP3    H2 9981   2.331   7.488   5.078
 3346TIP3   OH2 9982   2.850   4.137   2.503
 3346TIP3    H1 9983   2.944   4.149   2.512
 3346TIP3    H2 9984   2.837   4.109   2.413
 3347TIP3   OH2 9985   7.276   6.868   6.171
 3347TIP3    H1 9986   7.258   6.774   6.171
 3347TIP3    H2 9987   7.334   6.882   6.096
 3348TIP3   OH2 9988   1.260   6.931   3.367
 3348TIP3    H1 9989   1.329   6.907   3.428
 3348TIP3    H2 9990   1.284   6.887   3.285
 3349TIP3   OH2 9991   1.769   5.329   6.023
 3349TIP3    H1 9992   1.813   5.379   5.954
 3349TIP3    H2 9993   1.683   5.370   6.031
 3350TIP3   OH2 9994   4.045   7.461   0.473
 3350TIP3    H1 9995   3.981   7.399   0.507
 3350TIP3    H2 9996   4.027   7.466   0.379
 3351TIP3   OH2 9997   2.175   5.654   2.309
 3351TIP3    H1 9998   2.184   5.749   2.314
 3351TIP3    H2 9999   2.232   5.628   2.236
 3352TIP3   OH210000   6.530   2.279   0.456
 3352TIP3    H110001   6.482   2.312   0.533
 3352TIP3    H210002   6.603   2.339   0.446
 3353TIP3   OH210003   5.683   7.563   6.156
 3353TIP3    H110004   5.670   7.601   6.243
 3353TIP3    H210005   5.691   7.469   6.173
 3354TIP3   OH210006   8.079   2.562   6.638
 3354TIP3    H110007   8.097   2.621   6.565
 3354TIP3    H210008   8.034   2.617   6.703
 3355TIP3   OH210009   1.441   5.962   3.032
 3355TIP3    H110010   1.471   6.028   2.969
 3355TIP3    H210011   1.350   5.945   3.007
 3356TIP3   OH210012   3.350   4.488   2.364
 3356TIP3    H110013   3.432   4.472   2.318
 3356TIP3    H210014   3.290   4.421   2.331
 3357TIP3   OH210015   4.274   5.053   2.018
 3357TIP3    H110016   4.262   5.147   2.005
 3357TIP3    H210017   4.186   5.016   2.014
 3358TIP3   OH210018   2.282   6.509   2.226
 3358TIP3    H110019   2.326   6.449   2.287
 3358TIP3    H210020   2.205   6.540   2.274
 3359TIP3   OH210021   8.221   1.176   1.735
 3359TIP3    H110022   8.191   1.086   1.747
 3359TIP3    H210023   8.205   1.218   1.820
 3360TIP3   OH210024   5.060   3.098   6.521
 3360TIP3    H110025   5.002   3.023   6.511
 3360TIP3    H210026   5.036   3.137   6.605
 3361TIP3   OH210027  -0.008   0.511   2.367
 3361TIP3    H110028   0.031   0.598   2.373
 3361TIP3    H210029   0.064   0.451   2.387
 3362TIP3   OH210030   7.605   3.160   3.223
 3362TIP3    H110031   7.660   3.232   3.257
 3362TIP3    H210032   7.652   3.129   3.145
 3363TIP3   OH210033   1.433   2.603   2.718
 3363TIP3    H110034   1.401   2.517   2.692
 3363TIP3    H210035   1.528   2.598   2.707
 3364TIP3   OH210036   6.333   7.611   6.566
 3364TIP3    H110037   6.341   7.544   6.633
 3364TIP3    H210038   6.360   7.692   6.610
 3365TIP3   OH210039   4.119   6.048   2.341
 3365TIP3    H110040   4.081   6.070   2.426
 3365TIP3    H210041   4.214   6.050   2.357
 3366TIP3   OH210042   2.199   5.591   0.552
 3366TIP3    H110043   2.128   5.645   0.519
 3366TIP3    H210044   2.210   5.522   0.486
 3367TIP3   OH210045   7.986   5.746   1.919
 3367TIP3    H110046   8.078   5.728   1.898
 3367TIP3    H210047   7.988   5.829   1.966
 3368TIP3   OH210048   4.520   1.623   2.599
 3368TIP3    H110049   4.487   1.681   2.668
 3368TIP3    H210050   4.444   1.604   2.544
 3369TIP3   OH210051   2.345   1.076   2.812
 3369TIP3    H110052   2.374   1.091   2.901
 3369TIP3    H210053   2.398   1.135   2.758
 3370TIP3   OH210054   3.652   5.525   5.487
 3370TIP3    H110055   3.641   5.525   5.582
 3370TIP3    H210056   3.677   5.435   5.466
 3371TIP3   OH210057   3.987   3.244   3.179
 3371TIP3    H110058   4.069   3.293   3.188
 3371TIP3    H210059   3.970   3.209   3.267
 3372TIP3   OH210060   4.552   3.900   5.190
 3372TIP3    H110061   4.626   3.941   5.145
 3372TIP3    H210062   4.476   3.924   5.138
 3373TIP3   OH210063   4.854   5.297   2.967
 3373TIP3    H110064   4.783   5.234   2.971
 3373TIP3    H210065   4.812   5.383   2.973
 3374TIP3   OH210066   7.413   6.063   4.673
 3374TIP3    H110067   7.378   5.998   4.734
 3374TIP3    H210068   7.387   6.147   4.710
 3375TIP3   OH210069   0.265   3.048   3.280
 3375TIP3    H110070   0.257   3.133   3.323
 3375TIP3    H210071   0.204   3.052   3.207
 3376TIP3   OH210072   3.702   0.952   0.806
 3376TIP3    H110073   3.780   0.897   0.819
 3376TIP3    H210074   3.660   0.914   0.729
 3377TIP3   OH210075   0.173   7.505   3.464
 3377TIP3    H110076   0.135   7.584   3.503
 3377TIP3    H210077   0.115   7.485   3.390
 3378TIP3   OH210078   2.250   2.787   5.998
 3378TIP3    H110079   2.338   2.818   6.020
 3378TIP3    H210080   2.232   2.822   5.911
 3379TIP3   OH210081   1.810   2.799   6.168
 3379TIP3    H110082   1.850   2.715   6.148
 3379TIP3    H210083   1.847   2.860   6.104
 3380TIP3   OH210084   3.981   6.493   4.427
 3380TIP3    H110085   3.965   6.402   4.449
 3380TIP3    H210086   3.938   6.543   4.496
 3381TIP3   OH210087   2.936   3.954   3.216
 3381TIP3    H110088   2.865   3.903   3.177
 3381TIP3    H210089   2.926   4.042   3.179
 3382TIP3   OH210090   5.678   0.380   6.291
 3382TIP3    H110091   5.640   0.328   6.220
 3382TIP3    H210092   5.739   0.440   6.247
 3383TIP3   OH210093   5.088   2.637   6.150
 3383TIP3    H110094   5.056   2.724   6.171
 3383TIP3    H210095   5.140   2.611   6.226
 3384TIP3   OH210096   3.432   7.245   0.668
 3384TIP3    H110097   3.459   7.304   0.597
 3384TIP3    H210098   3.437   7.157   0.629
 3385TIP3   OH210099   0.895   0.369   4.830
 3385TIP3    H110100   0.919   0.378   4.922
 3385TIP3    H210101   0.823   0.306   4.830
 3386TIP3   OH210102   1.983   0.424   6.333
 3386TIP3    H110103   2.048   0.364   6.295
 3386TIP3    H210104   1.931   0.453   6.258
 3387TIP3   OH210105   7.088   4.563   1.850
 3387TIP3    H110106   7.079   4.584   1.943
 3387TIP3    H210107   7.177   4.592   1.829
 3388TIP3   OH210108   4.905   2.641   4.117
 3388TIP3    H110109   4.984   2.684   4.083
 3388TIP3    H210110   4.852   2.623   4.039
 3389TIP3   OH210111   0.481   2.579   5.615
 3389TIP3    H110112   0.431   2.645   5.663
 3389TIP3    H210113   0.418   2.509   5.598
 3390TIP3   OH210114   1.205   5.379   4.091
 3390TIP3    H110115   1.158   5.299   4.112
 3390TIP3    H210116   1.178   5.402   4.002
 3391TIP3   OH210117   3.016   4.235   6.364
 3391TIP3    H110118   3.059   4.187   6.294
 3391TIP3    H210119   2.939   4.183   6.386
 3392TIP3   OH210120   6.384   1.264   3.243
 3392TIP3    H110121   6.417   1.195   3.300
 3392TIP3    H210122   6.356   1.334   3.302
 3393TIP3   OH210123   4.003   0.760   3.615
 3393TIP3    H110124   3.947   0.830   3.581
 3393TIP3    H210125   4.064   0.804   3.675
 3394TIP3   OH210126   0.427   0.991   2.299
 3394TIP3    H110127   0.421   1.010   2.392
 3394TIP3    H210128   0.492   1.052   2.265
 3395TIP3   OH210129   7.225   4.769   5.146
 3395TIP3    H110130   7.319   4.775   5.163
 3395TIP3    H210131   7.206   4.843   5.088
 3396TIP3   OH210132   3.877   3.257   1.670
 3396TIP3    H110133   3.948   3.302   1.624
 3396TIP3    H210134   3.798   3.300   1.638
 3397TIP3   OH210135   7.559   3.794   1.006
 3397TIP3    H110136   7.631   3.771   0.947
 3397TIP3    H210137   7.592   3.773   1.093
 3398TIP3   OH210138   6.056   1.156   5.581
 3398TIP3    H110139   6.070   1.233   5.525
 3398TIP3    H210140   5.962   1.155   5.597
 3399TIP3   OH210141   4.101   4.595   4.236
 3399TIP3    H110142   4.101   4.514   4.287
 3399TIP3    H210143   4.015   4.634   4.254
 3400TIP3   OH210144   7.320   4.373   2.512
 3400TIP3    H110145   7.287   4.377   2.602
 3400TIP3    H210146   7.409   4.340   2.520
 3401TIP3   OH210147   5.959   7.425   4.257
 3401TIP3    H110148   5.880   7.474   4.281
 3401TIP3    H210149   5.989   7.467   4.176
 3402TIP3   OH210150   3.754   0.437   4.334
 3402TIP3    H110151   3.736   0.383   4.256
 3402TIP3    H210152   3.676   0.491   4.344
 3403TIP3   OH210153   7.606   3.891   6.468
 3403TIP3    H110154   7.612   3.939   6.551
 3403TIP3    H210155   7.518   3.855   6.468
 3404TIP3   OH210156   7.538   0.275   2.808
 3404TIP3    H110157   7.591   0.347   2.843
 3404TIP3    H210158   7.467   0.319   2.761
 3405TIP3   OH210159   5.086   3.781   1.403
 3405TIP3    H110160   4.991   3.790   1.398
 3405TIP3    H210161   5.101   3.688   1.419
 3406TIP3   OH210162   3.122   2.327   2.114
 3406TIP3    H110163   3.121   2.235   2.141
 3406TIP3    H210164   3.029   2.351   2.110
 3407TIP3   OH210165   2.726   6.135   5.247
 3407TIP3    H110166   2.727   6.044   5.275
 3407TIP3    H210167   2.783   6.180   5.310
 3408TIP3   OH210168   5.285   4.504   1.920
 3408TIP3    H110169   5.212   4.556   1.885
 3408TIP3    H210170   5.358   4.522   1.862
 3409TIP3   OH210171   6.929   3.604   3.488
 3409TIP3    H110172   6.897   3.660   3.417
 3409TIP3    H210173   6.921   3.515   3.453
 3410TIP3   OH210174   0.390   2.316   2.645
 3410TIP3    H110175   0.404   2.398   2.693
 3410TIP3    H210176   0.319   2.336   2.584
 3411TIP3   OH210177   7.125   1.968   1.077
 3411TIP3    H110178   7.189   1.900   1.058
 3411TIP3    H210179   7.177   2.047   1.090
 3412TIP3   OH210180   1.019   2.356   2.265
 3412TIP3    H110181   0.930   2.371   2.232
 3412TIP3    H210182   1.020   2.399   2.350
 3413TIP3   OH210183   3.625   7.664   6.284
 3413TIP3    H110184   3.596   7.573   6.293
 3413TIP3    H210185   3.556   7.706   6.232
 3414TIP3   OH210186   7.623   6.682   3.892
 3414TIP3    H110187   7.635   6.590   3.912
 3414TIP3    H210188   7.707   6.723   3.913
 3415TIP3   OH210189   3.920   3.936   2.323
 3415TIP3    H110190   3.919   3.855   2.373
 3415TIP3    H210191   4.009   3.970   2.334
 3416TIP3   OH210192   2.839   0.728   2.270
 3416TIP3    H110193   2.809   0.642   2.301
 3416TIP3    H210194   2.890   0.708   2.191
 3417TIP3   OH210195   2.816   1.731   6.606
 3417TIP3    H110196   2.870   1.652   6.597
 3417TIP3    H210197   2.727   1.697   6.612
 3418TIP3   OH210198   1.262   2.596   5.236
 3418TIP3    H110199   1.339   2.546   5.264
 3418TIP3    H210200   1.299   2.677   5.199
 3419TIP3   OH210201   4.350   4.649   2.140
 3419TIP3    H110202   4.423   4.624   2.084
 3419TIP3    H210203   4.364   4.742   2.158
 3420TIP3   OH210204   0.031   7.739   6.570
 3420TIP3    H110205   0.113   7.789   6.569
 3420TIP3    H210206   0.053   7.658   6.617
 3421TIP3   OH210207   5.987   1.317   1.460
 3421TIP3    H110208   5.928   1.382   1.422
 3421TIP3    H210209   5.966   1.236   1.414
 3422TIP3   OH210210   7.536   2.811   4.210
 3422TIP3    H110211   7.542   2.715   4.216
 3422TIP3    H210212   7.467   2.826   4.146
 3423TIP3   OH210213   3.040   4.333   5.583
 3423TIP3    H110214   3.065   4.407   5.639
 3423TIP3    H210215   3.114   4.323   5.522
 3424TIP3   OH210216   6.538   6.435   0.548
 3424TIP3    H110217   6.450   6.470   0.537
 3424TIP3    H210218   6.563   6.406   0.460
 3425TIP3   OH210219   7.760   2.435   1.937
 3425TIP3    H110220   7.831   2.461   1.878
 3425TIP3    H210221   7.689   2.497   1.919
 3426TIP3   OH210222   6.997   0.037   2.577
 3426TIP3    H110223   7.012  -0.031   2.641
 3426TIP3    H210224   6.909   0.020   2.543
 3427TIP3   OH210225   4.900   0.893   4.833
 3427TIP3    H110226   4.827   0.883   4.772
 3427TIP3    H210227   4.901   0.812   4.883
 3428TIP3   OH210228   7.522   2.989   6.383
 3428TIP3    H110229   7.587   2.927   6.416
 3428TIP3    H210230   7.536   2.990   6.288
 3429TIP3   OH210231   4.561   0.604   3.717
 3429TIP3    H110232   4.611   0.581   3.795
 3429TIP3    H210233   4.546   0.699   3.725
 3430TIP3   OH210234   6.032   2.391   1.366
 3430TIP3    H110235   5.982   2.451   1.421
 3430TIP3    H210236   6.121   2.426   1.365
 3431TIP3   OH210237   6.244   1.268   0.028
 3431TIP3    H110238   6.322   1.269   0.084
 3431TIP3    H210239   6.257   1.193  -0.030
 3432TIP3   OH210240   2.511   5.012   5.902
 3432TIP3    H110241   2.429   4.968   5.926
 3432TIP3    H210242   2.567   4.941   5.870
 3433TIP3   OH210243   4.255   7.136   4.112
 3433TIP3    H110244   4.288   7.174   4.193
 3433TIP3    H210245   4.262   7.041   4.125
 3434TIP3   OH210246   7.998   4.416   2.573
 3434TIP3    H110247   7.954   4.453   2.496
 3434TIP3    H210248   8.000   4.487   2.636
 3435TIP3   OH210249   5.805   5.106   4.828
 3435TIP3    H110250   5.758   5.185   4.855
 3435TIP3    H210251   5.749   5.034   4.857
 3436TIP3   OH210252   8.107   7.002   6.047
 3436TIP3    H110253   8.099   7.097   6.045
 3436TIP3    H210254   8.172   6.984   6.114
 3437TIP3   OH210255   3.857   4.679   1.952
 3437TIP3    H110256   3.808   4.602   1.981
 3437TIP3    H210257   3.868   4.731   2.031
 3438TIP3   OH210258   2.356   4.967   3.901
 3438TIP3    H110259   2.357   4.898   3.968
 3438TIP3    H210260   2.319   4.924   3.823
 3439TIP3   OH210261   2.193   7.740   5.120
 3439TIP3    H110262   2.287   7.753   5.113
 3439TIP3    H210263   2.155   7.824   5.094
 3440TIP3   OH210264   0.514   5.602   4.596
 3440TIP3    H110265   0.501   5.587   4.503
 3440TIP3    H210266   0.427   5.593   4.635
 3441TIP3   OH210267   5.738   4.264   2.510
 3441TIP3    H110268   5.708   4.209   2.437
 3441TIP3    H210269   5.781   4.202   2.570
 3442TIP3   OH210270   5.143   4.384   4.805
 3442TIP3    H110271   5.233   4.397   4.835
 3442TIP3    H210272   5.152   4.361   4.712
 3443TIP3   OH210273   2.384   1.807   0.536
 3443TIP3    H110274   2.374   1.763   0.620
 3443TIP3    H210275   2.392   1.899   0.558
 3444TIP3   OH210276   4.151   5.108   1.501
 3444TIP3    H110277   4.097   5.149   1.433
 3444TIP3    H210278   4.157   5.174   1.570
 3445TIP3   OH210279   1.093   6.051   4.194
 3445TIP3    H110280   1.153   5.977   4.202
 3445TIP3    H210281   1.128   6.117   4.253
 3446TIP3   OH210282   5.336   2.699   0.595
 3446TIP3    H110283   5.320   2.733   0.507
 3446TIP3    H210284   5.431   2.688   0.600
 3447TIP3   OH210285   3.945   6.158   1.862
 3447TIP3    H110286   4.017   6.174   1.801
 3447TIP3    H210287   3.963   6.217   1.936
 3448TIP3   OH210288   2.283   0.255   5.921
 3448TIP3    H110289   2.290   0.329   5.981
 3448TIP3    H210290   2.341   0.188   5.959
 3449TIP3   OH210291   1.772   4.089   6.293
 3449TIP3    H110292   1.740   4.026   6.229
 3449TIP3    H210293   1.847   4.131   6.250
 3450TIP3   OH210294   1.848   2.776   2.321
 3450TIP3    H110295   1.845   2.697   2.267
 3450TIP3    H210296   1.788   2.837   2.277
 3451TIP3   OH210297   1.248   7.574   4.982
 3451TIP3    H110298   1.242   7.535   5.069
 3451TIP3    H210299   1.300   7.512   4.932
 3452TIP3   OH210300   0.467   5.765   5.616
 3452TIP3    H110301   0.519   5.845   5.619
 3452TIP3    H210302   0.442   5.756   5.524
 3453TIP3   OH210303   1.207   1.652   6.706
 3453TIP3    H110304   1.275   1.717   6.724
 3453TIP3    H210305   1.126   1.703   6.703
 3454TIP3   OH210306   2.337   2.042   3.791
 3454TIP3    H110307   2.392   2.104   3.742
 3454TIP3    H210308   2.340   1.962   3.738
 3455TIP3   OH210309   5.264   4.943   1.737
 3455TIP3    H110310   5.347   4.897   1.751
 3455TIP3    H210311   5.228   4.905   1.657
 3456TIP3   OH210312   2.406   1.694   1.777
 3456TIP3    H110313   2.472   1.639   1.736
 3456TIP3    H210314   2.330   1.636   1.789
 3457TIP3   OH210315   3.967   0.221   4.427
 3457TIP3    H110316   4.052   0.195   4.391
 3457TIP3    H210317   3.903   0.187   4.365
 3458TIP3   OH210318   4.874   3.546   3.849
 3458TIP3    H110319   4.937   3.475   3.863
 3458TIP3    H210320   4.876   3.562   3.755
 3459TIP3   OH210321   5.648   4.912   4.932
 3459TIP3    H110322   5.658   4.860   5.011
 3459TIP3    H210323   5.608   4.853   4.868
 3460TIP3   OH210324   4.154   7.673   3.636
 3460TIP3    H110325   4.142   7.760   3.597
 3460TIP3    H210326   4.142   7.612   3.563
 3461TIP3   OH210327   6.620   6.507   2.693
 3461TIP3    H110328   6.557   6.524   2.763
 3461TIP3    H210329   6.596   6.420   2.659
 3462TIP3   OH210330   2.766   1.611   0.384
 3462TIP3    H110331   2.690   1.559   0.411
 3462TIP3    H210332   2.744   1.700   0.410
 3463TIP3   OH210333   8.152   6.068   0.601
 3463TIP3    H110334   8.241   6.103   0.594
 3463TIP3    H210335   8.113   6.086   0.515
 3464TIP3   OH210336   4.321   3.136   6.394
 3464TIP3    H110337   4.365   3.056   6.366
 3464TIP3    H210338   4.279   3.169   6.315
 3465TIP3   OH210339   7.210   3.956   5.338
 3465TIP3    H110340   7.164   3.983   5.418
 3465TIP3    H210341   7.277   4.024   5.325
 3466TIP3   OH210342   0.569   2.677   3.139
 3466TIP3    H110343   0.538   2.652   3.226
 3466TIP3    H210344   0.537   2.608   3.082
 3467TIP3   OH210345   2.516   5.722   6.738
 3467TIP3    H110346   2.563   5.803   6.715
 3467TIP3    H210347   2.579   5.673   6.791
 3468TIP3   OH210348   4.143   6.283   3.121
 3468TIP3    H110349   4.190   6.331   3.054
 3468TIP3    H210350   4.201   6.286   3.197
 3469TIP3   OH210351   7.532   1.215   1.233
 3469TIP3    H110352   7.523   1.151   1.303
 3469TIP3    H210353   7.626   1.217   1.215
 3470TIP3   OH210354   5.552   6.854   6.135
 3470TIP3    H110355   5.638   6.816   6.151
 3470TIP3    H210356   5.525   6.818   6.051
 3471TIP3   OH210357   0.757   3.816   2.121
 3471TIP3    H110358   0.797   3.802   2.207
 3471TIP3    H210359   0.663   3.809   2.137
 3472TIP3   OH210360   5.892   0.139   1.158
 3472TIP3    H110361   5.809   0.177   1.132
 3472TIP3    H210362   5.868   0.069   1.219
 3473TIP3   OH210363   0.798   4.955   6.107
 3473TIP3    H110364   0.731   4.918   6.164
 3473TIP3    H210365   0.792   5.049   6.122
 3474TIP3   OH210366   2.005   4.941   0.948
 3474TIP3    H110367   2.054   4.866   0.913
 3474TIP3    H210368   1.998   4.924   1.041
 3475TIP3   OH210369   2.611   1.136   1.864
 3475TIP3    H110370   2.655   1.075   1.806
 3475TIP3    H210371   2.553   1.081   1.917
 3476TIP3   OH210372   2.851   6.111   0.027
 3476TIP3    H110373   2.764   6.142   0.055
 3476TIP3    H210374   2.912   6.173   0.067
 3477TIP3   OH210375   4.172   1.653   1.430
 3477TIP3    H110376   4.095   1.707   1.444
 3477TIP3    H210377   4.228   1.671   1.505
 3478TIP3   OH210378   0.971   6.460   4.228
 3478TIP3    H110379   0.891   6.425   4.268
 3478TIP3    H210380   0.943   6.540   4.185
 3479TIP3   OH210381   2.592   4.924   2.764
 3479TIP3    H110382   2.575   4.977   2.842
 3479TIP3    H210383   2.596   4.987   2.692
 3480TIP3   OH210384   3.216   4.356   5.214
 3480TIP3    H110385   3.180   4.280   5.261
 3480TIP3    H210386   3.152   4.376   5.147
 3481TIP3   OH210387   7.314   0.749   1.461
 3481TIP3    H110388   7.364   0.669   1.445
 3481TIP3    H210389   7.264   0.732   1.541
 3482TIP3   OH210390   7.065   3.924   2.449
 3482TIP3    H110391   7.156   3.948   2.463
 3482TIP3    H210392   7.045   3.955   2.361
 3483TIP3   OH210393   6.039   4.646   2.236
 3483TIP3    H110394   6.027   4.621   2.327
 3483TIP3    H210395   5.951   4.666   2.205
 3484TIP3   OH210396   4.277   6.065   0.584
 3484TIP3    H110397   4.335   6.071   0.509
 3484TIP3    H210398   4.278   5.972   0.607
 3485TIP3   OH210399   6.927   0.996   2.200
 3485TIP3    H110400   6.929   1.019   2.292
 3485TIP3    H210401   6.953   1.076   2.154
 3486TIP3   OH210402   7.449   2.217   4.200
 3486TIP3    H110403   7.407   2.244   4.118
 3486TIP3    H210404   7.531   2.175   4.173
 3487TIP3   OH210405   4.124   0.689   6.273
 3487TIP3    H110406   4.068   0.715   6.200
 3487TIP3    H210407   4.186   0.762   6.281
 3488TIP3   OH210408   8.035   0.615   1.424
 3488TIP3    H110409   8.051   0.705   1.452
 3488TIP3    H210410   8.116   0.569   1.445
 3489TIP3   OH210411   2.572   6.114   5.001
 3489TIP3    H110412   2.544   6.034   5.046
 3489TIP3    H210413   2.631   6.157   5.062
 3490TIP3   OH210414   7.767   4.309   3.050
 3490TIP3    H110415   7.691   4.282   3.101
 3490TIP3    H210416   7.767   4.405   3.054
 3491TIP3   OH210417   6.558   4.533   4.035
 3491TIP3    H110418   6.551   4.496   3.947
 3491TIP3    H210419   6.648   4.567   4.039
 3492TIP3   OH210420   5.929   5.679   5.447
 3492TIP3    H110421   5.994   5.749   5.446
 3492TIP3    H210422   5.894   5.679   5.536
 3493TIP3   OH210423   1.817   7.455   5.827
 3493TIP3    H110424   1.769   7.376   5.851
 3493TIP3    H210425   1.749   7.517   5.799
 3494TIP3   OH210426   3.858   3.568   0.951
 3494TIP3    H110427   3.936   3.525   0.986
 3494TIP3    H210428   3.788   3.546   1.013
 3495TIP3   OH210429   0.210   5.441   4.060
 3495TIP3    H110430   0.293   5.444   4.012
 3495TIP3    H210431   0.212   5.356   4.105
 3496TIP3   OH210432   7.730   0.485   1.050
 3496TIP3    H110433   7.768   0.479   1.138
 3496TIP3    H210434   7.636   0.479   1.064
 3497TIP3   OH210435   6.046   4.920   6.086
 3497TIP3    H110436   6.070   4.977   6.013
 3497TIP3    H210437   5.956   4.945   6.107
 3498TIP3   OH210438   2.480   2.365   0.110
 3498TIP3    H110439   2.500   2.428   0.041
 3498TIP3    H210440   2.528   2.398   0.186
 3499TIP3   OH210441   6.741   2.174   1.812
 3499TIP3    H110442   6.812   2.109   1.815
 3499TIP3    H210443   6.694   2.163   1.894
 3500TIP3   OH210444   0.518   5.980   2.889
 3500TIP3    H110445   0.593   6.036   2.910
 3500TIP3    H210446   0.455   5.998   2.958
 3501TIP3   OH210447   5.437   0.227   2.879
 3501TIP3    H110448   5.461   0.315   2.850
 3501TIP3    H210449   5.352   0.238   2.922
 3502TIP3   OH210450   5.660   6.809   0.542
 3502TIP3    H110451   5.688   6.774   0.627
 3502TIP3    H210452   5.737   6.801   0.486
 3503TIP3   OH210453   4.251   1.134   4.563
 3503TIP3    H110454   4.336   1.131   4.520
 3503TIP3    H210455   4.263   1.192   4.638
 3504TIP3   OH210456   5.257   4.938   0.765
 3504TIP3    H110457   5.168   4.912   0.785
 3504TIP3    H210458   5.255   5.034   0.767
 3505TIP3   OH210459   6.682   4.948   2.791
 3505TIP3    H110460   6.660   5.038   2.769
 3505TIP3    H210461   6.653   4.897   2.714
 3506TIP3   OH210462   3.054   3.023   4.862
 3506TIP3    H110463   3.097   3.022   4.947
 3506TIP3    H210464   3.098   3.094   4.814
 3507TIP3   OH210465   7.149   4.844   0.127
 3507TIP3    H110466   7.153   4.777   0.196
 3507TIP3    H210467   7.060   4.838   0.093
 3508TIP3   OH210468   3.756   1.887   4.889
 3508TIP3    H110469   3.686   1.947   4.865
 3508TIP3    H210470   3.837   1.931   4.863
 3509TIP3   OH210471   6.368   0.465   4.429
 3509TIP3    H110472   6.360   0.384   4.479
 3509TIP3    H210473   6.452   0.502   4.456
 3510TIP3   OH210474   4.531   2.897   0.296
 3510TIP3    H110475   4.510   2.911   0.204
 3510TIP3    H210476   4.475   2.958   0.344
 3511TIP3   OH210477   3.910   3.126   6.263
 3511TIP3    H110478   3.845   3.176   6.214
 3511TIP3    H210479   3.861   3.050   6.296
 3512TIP3   OH210480   0.599   6.165   4.175
 3512TIP3    H110481   0.641   6.082   4.151
 3512TIP3    H210482   0.611   6.221   4.099
 3513TIP3   OH210483   1.038   1.647   4.545
 3513TIP3    H110484   0.969   1.586   4.520
 3513TIP3    H210485   1.030   1.655   4.640
 3514TIP3   OH210486   7.602   6.996   3.857
 3514TIP3    H110487   7.674   7.035   3.907
 3514TIP3    H210488   7.607   6.903   3.876
 3515TIP3   OH210489   7.098   3.598   6.564
 3515TIP3    H110490   7.019   3.644   6.592
 3515TIP3    H210491   7.159   3.609   6.637
 3516TIP3   OH210492   3.535   4.660   2.046
 3516TIP3    H110493   3.538   4.755   2.034
 3516TIP3    H210494   3.443   4.637   2.040
 3517TIP3   OH210495   2.387   4.240   1.754
 3517TIP3    H110496   2.319   4.239   1.687
 3517TIP3    H210497   2.378   4.326   1.796
 3518TIP3   OH210498   3.432   1.130   4.192
 3518TIP3    H110499   3.450   1.087   4.275
 3518TIP3    H210500   3.362   1.078   4.153
 3519TIP3   OH210501   5.029   4.305   1.245
 3519TIP3    H110502   5.044   4.339   1.157
 3519TIP3    H210503   4.941   4.266   1.241
 3520TIP3   OH210504   8.050   2.324   3.036
 3520TIP3    H110505   8.003   2.405   3.055
 3520TIP3    H210506   8.019   2.262   3.102
 3521TIP3   OH210507   4.292   0.241   4.442
 3521TIP3    H110508   4.243   0.290   4.509
 3521TIP3    H210509   4.384   0.256   4.464
 3522TIP3   OH210510   7.784   1.562   6.743
 3522TIP3    H110511   7.713   1.610   6.700
 3522TIP3    H210512   7.821   1.625   6.805
 3523TIP3   OH210513   3.718   1.945   5.880
 3523TIP3    H110514   3.781   1.980   5.818
 3523TIP3    H210515   3.641   2.001   5.872
 3524TIP3   OH210516   6.443   2.843   2.598
 3524TIP3    H110517   6.430   2.936   2.580
 3524TIP3    H210518   6.447   2.802   2.511
 3525TIP3   OH210519   0.806   1.514   0.745
 3525TIP3    H110520   0.754   1.496   0.667
 3525TIP3    H210521   0.782   1.444   0.806
 3526TIP3   OH210522   1.709   6.315   3.505
 3526TIP3    H110523   1.791   6.290   3.464
 3526TIP3    H210524   1.702   6.257   3.581
 3527TIP3   OH210525   8.194   2.884   4.339
 3527TIP3    H110526   8.119   2.923   4.385
 3527TIP3    H210527   8.262   2.952   4.342
 3528TIP3   OH210528   5.477   0.104   2.553
 3528TIP3    H110529   5.510   0.032   2.608
 3528TIP3    H210530   5.551   0.163   2.543
 3529TIP3   OH210531   7.874   6.803   3.878
 3529TIP3    H110532   7.908   6.883   3.837
 3529TIP3    H210533   7.934   6.786   3.951
 3530TIP3   OH210534   2.848   6.148   4.947
 3530TIP3    H110535   2.910   6.209   4.987
 3530TIP3    H210536   2.766   6.198   4.941
 3531TIP3   OH210537   3.205   2.874   2.445
 3531TIP3    H110538   3.150   2.949   2.469
 3531TIP3    H210539   3.266   2.910   2.381
 3532TIP3   OH210540   7.764   4.732   6.077
 3532TIP3    H110541   7.716   4.709   5.997
 3532TIP3    H210542   7.732   4.670   6.143
 3533TIP3   OH210543   4.758   2.260   5.453
 3533TIP3    H110544   4.776   2.239   5.545
 3533TIP3    H210545   4.841   2.291   5.419
 3534TIP3   OH210546   3.112   3.854   1.427
 3534TIP3    H110547   3.088   3.921   1.490
 3534TIP3    H210548   3.066   3.880   1.346
 3535TIP3   OH210549   7.156   3.866   4.511
 3535TIP3    H110550   7.121   3.953   4.494
 3535TIP3    H210551   7.249   3.873   4.489
 3536TIP3   OH210552   4.138   1.866   3.683
 3536TIP3    H110553   4.169   1.900   3.767
 3536TIP3    H210554   4.132   1.772   3.696
 3537TIP3   OH210555   3.078   1.843   2.001
 3537TIP3    H110556   3.054   1.752   2.021
 3537TIP3    H210557   2.996   1.886   1.979
 3538TIP3   OH210558   0.125   3.315   0.892
 3538TIP3    H110559   0.063   3.370   0.843
 3538TIP3    H210560   0.113   3.228   0.855
 3539TIP3   OH210561   6.124   4.819   3.130
 3539TIP3    H110562   6.072   4.757   3.079
 3539TIP3    H210563   6.060   4.861   3.189
 3540TIP3   OH210564   4.400   4.818   3.126
 3540TIP3    H110565   4.399   4.821   3.031
 3540TIP3    H210566   4.324   4.764   3.150
 3541TIP3   OH210567   8.011   7.141   5.645
 3541TIP3    H110568   7.931   7.142   5.592
 3541TIP3    H210569   8.050   7.228   5.631
 3542TIP3   OH210570   0.688   6.327   1.619
 3542TIP3    H110571   0.698   6.415   1.654
 3542TIP3    H210572   0.761   6.277   1.655
 3543TIP3   OH210573   3.998   2.035   4.678
 3543TIP3    H110574   3.905   2.022   4.658
 3543TIP3    H210575   4.019   2.120   4.640
 3544TIP3   OH210576   7.908   3.763   2.806
 3544TIP3    H110577   7.966   3.809   2.746
 3544TIP3    H210578   7.819   3.788   2.779
 3545TIP3   OH210579   0.501   3.991   4.718
 3545TIP3    H110580   0.414   4.013   4.750
 3545TIP3    H210581   0.554   3.981   4.798
 3546TIP3   OH210582   3.058   7.707   0.436
 3546TIP3    H110583   3.077   7.614   0.426
 3546TIP3    H210584   3.046   7.719   0.530
 3547TIP3   OH210585   3.183   3.166   2.183
 3547TIP3    H110586   3.151   3.126   2.102
 3547TIP3    H210587   3.162   3.259   2.173
 3548TIP3   OH210588   0.072   2.047   4.071
 3548TIP3    H110589   0.017   2.067   3.996
 3548TIP3    H210590   0.106   2.132   4.099
 3549TIP3   OH210591   3.642   5.110   4.490
 3549TIP3    H110592   3.632   5.175   4.559
 3549TIP3    H210593   3.705   5.150   4.429
 3550TIP3   OH210594   4.372   6.435   6.008
 3550TIP3    H110595   4.348   6.358   6.061
 3550TIP3    H210596   4.465   6.421   5.987
 3551TIP3   OH210597   3.581   4.911   3.040
 3551TIP3    H110598   3.523   4.958   2.980
 3551TIP3    H210599   3.523   4.878   3.109
 3552TIP3   OH210600   0.469   5.390   1.135
 3552TIP3    H110601   0.438   5.300   1.125
 3552TIP3    H210602   0.414   5.441   1.076
 3553TIP3   OH210603   7.668   6.155   2.645
 3553TIP3    H110604   7.708   6.078   2.687
 3553TIP3    H210605   7.675   6.139   2.551
 3554TIP3   OH210606   5.001   4.853   0.843
 3554TIP3    H110607   4.942   4.888   0.911
 3554TIP3    H210608   4.964   4.767   0.822
 3555TIP3   OH210609   3.851   3.762   0.484
 3555TIP3    H110610   3.874   3.828   0.549
 3555TIP3    H210611   3.802   3.696   0.533
 3556TIP3   OH210612   5.971   7.286   1.381
 3556TIP3    H110613   5.951   7.339   1.458
 3556TIP3    H210614   6.021   7.344   1.323
 3557TIP3   OH210615   3.376   5.981   3.921
 3557TIP3    H110616   3.420   6.002   3.839
 3557TIP3    H210617   3.436   5.923   3.967
 3558TIP3   OH210618   1.811   6.195   5.463
 3558TIP3    H110619   1.815   6.291   5.467
 3558TIP3    H210620   1.896   6.167   5.498
 3559TIP3   OH210621   4.628   5.820   5.674
 3559TIP3    H110622   4.678   5.742   5.698
 3559TIP3    H210623   4.666   5.890   5.728
 3560TIP3   OH210624   1.913   1.514   3.995
 3560TIP3    H110625   1.892   1.528   4.087
 3560TIP3    H210626   2.000   1.474   3.996
 3561TIP3   OH210627   0.540   0.450   2.496
 3561TIP3    H110628   0.517   0.376   2.552
 3561TIP3    H210629   0.629   0.430   2.468
 3562TIP3   OH210630   0.224   3.717   6.564
 3562TIP3    H110631   0.140   3.685   6.597
 3562TIP3    H210632   0.286   3.700   6.635
 3563TIP3   OH210633   3.511   5.259   2.289
 3563TIP3    H110634   3.471   5.318   2.353
 3563TIP3    H210635   3.485   5.171   2.316
 3564TIP3   OH210636   2.449   2.765   5.699
 3564TIP3    H110637   2.441   2.834   5.765
 3564TIP3    H210638   2.359   2.749   5.670
 3565TIP3   OH210639   2.904   6.195   4.300
 3565TIP3    H110640   2.901   6.129   4.369
 3565TIP3    H210641   2.867   6.273   4.341
 3566TIP3   OH210642   1.250   3.365   1.911
 3566TIP3    H110643   1.302   3.349   1.832
 3566TIP3    H210644   1.263   3.458   1.929
 3567TIP3   OH210645   8.035   2.068   5.520
 3567TIP3    H110646   7.951   2.024   5.513
 3567TIP3    H210647   8.013   2.161   5.528
 3568TIP3   OH210648   3.041   1.712   2.906
 3568TIP3    H110649   2.950   1.726   2.929
 3568TIP3    H210650   3.056   1.768   2.830
 3569TIP3   OH210651   4.059   6.984   3.516
 3569TIP3    H110652   4.124   6.953   3.579
 3569TIP3    H210653   4.064   7.080   3.522
 3570TIP3   OH210654   7.974   3.950   4.792
 3570TIP3    H110655   8.069   3.943   4.803
 3570TIP3    H210656   7.942   3.861   4.805
 3571TIP3   OH210657   2.138   0.302   2.868
 3571TIP3    H110658   2.043   0.290   2.864
 3571TIP3    H210659   2.156   0.370   2.803
 3572TIP3   OH210660   7.701   7.135   0.708
 3572TIP3    H110661   7.626   7.106   0.656
 3572TIP3    H210662   7.682   7.226   0.729
 3573TIP3   OH210663   0.796   6.778   5.213
 3573TIP3    H110664   0.717   6.821   5.247
 3573TIP3    H210665   0.868   6.820   5.259
 3574TIP3   OH210666   3.535   2.992   2.863
 3574TIP3    H110667   3.585   3.053   2.808
 3574TIP3    H210668   3.589   2.981   2.941
 3575TIP3   OH210669   2.962   4.832   5.013
 3575TIP3    H110670   2.868   4.831   5.029
 3575TIP3    H210671   2.970   4.843   4.918
 3576TIP3   OH210672   1.719   5.144   5.013
 3576TIP3    H110673   1.759   5.212   5.068
 3576TIP3    H210674   1.651   5.190   4.965
 3577TIP3   OH210675   6.983   2.233   5.088
 3577TIP3    H110676   7.036   2.160   5.118
 3577TIP3    H210677   6.916   2.245   5.156
 3578TIP3   OH210678   2.809   7.678   3.540
 3578TIP3    H110679   2.868   7.672   3.615
 3578TIP3    H210680   2.833   7.760   3.497
 3579TIP3   OH210681   7.909   4.450   6.696
 3579TIP3    H110682   7.944   4.432   6.783
 3579TIP3    H210683   7.976   4.504   6.654
 3580TIP3   OH210684   1.585   7.705   1.474
 3580TIP3    H110685   1.531   7.626   1.479
 3580TIP3    H210686   1.539   7.761   1.411
 3581TIP3   OH210687   4.081   5.261   1.996
 3581TIP3    H110688   4.034   5.178   2.005
 3581TIP3    H210689   4.102   5.266   1.902
 3582TIP3   OH210690   0.493   3.007   4.534
 3582TIP3    H110691   0.410   3.045   4.504
 3582TIP3    H210692   0.528   2.962   4.458
 3583TIP3   OH210693   8.111   2.655   1.509
 3583TIP3    H110694   8.187   2.706   1.481
 3583TIP3    H210695   8.121   2.570   1.465
 3584TIP3   OH210696   2.999   7.030   6.722
 3584TIP3    H110697   2.979   7.110   6.675
 3584TIP3    H210698   3.004   6.962   6.655
 3585TIP3   OH210699   3.092   3.979   4.705
 3585TIP3    H110700   3.055   3.924   4.636
 3585TIP3    H210701   3.173   3.935   4.730
 3586TIP3   OH210702   8.135   1.221   0.645
 3586TIP3    H110703   8.065   1.282   0.669
 3586TIP3    H210704   8.120   1.203   0.552
 3587TIP3   OH210705   1.588   3.842   3.925
 3587TIP3    H110706   1.623   3.892   3.852
 3587TIP3    H210707   1.537   3.905   3.976
 3588TIP3   OH210708   5.154   4.382   5.761
 3588TIP3    H110709   5.202   4.397   5.842
 3588TIP3    H210710   5.063   4.404   5.782
 3589TIP3   OH210711   8.090   6.340   0.425
 3589TIP3    H110712   8.165   6.391   0.454
 3589TIP3    H210713   8.128   6.261   0.386
 3590TIP3   OH210714   0.109   7.790   2.254
 3590TIP3    H110715   0.073   7.701   2.246
 3590TIP3    H210716   0.170   7.784   2.328
 3591TIP3   OH210717   5.770   5.465   0.046
 3591TIP3    H110718   5.752   5.442  -0.045
 3591TIP3    H210719   5.863   5.486   0.048
 3592TIP3   OH210720   5.156   5.581   3.194
 3592TIP3    H110721   5.132   5.489   3.204
 3592TIP3    H210722   5.122   5.624   3.272
 3593TIP3   OH210723   1.336   3.562   4.552
 3593TIP3    H110724   1.244   3.586   4.548
 3593TIP3    H210725   1.383   3.644   4.533
 3594TIP3   OH210726   4.971   6.822   3.898
 3594TIP3    H110727   5.024   6.763   3.844
 3594TIP3    H210728   4.958   6.899   3.843
 3595TIP3   OH210729   3.669   6.520   4.920
 3595TIP3    H110730   3.749   6.553   4.961
 3595TIP3    H210731   3.700   6.448   4.864
 3596TIP3   OH210732   4.973   0.400   6.559
 3596TIP3    H110733   4.961   0.492   6.537
 3596TIP3    H210734   4.930   0.352   6.488
 3597TIP3   OH210735   1.440   2.045   1.449
 3597TIP3    H110736   1.470   2.051   1.358
 3597TIP3    H210737   1.354   2.004   1.443
 3598TIP3   OH210738   3.821   6.454   2.757
 3598TIP3    H110739   3.784   6.482   2.841
 3598TIP3    H210740   3.852   6.365   2.774
 3599TIP3   OH210741   5.780   7.608   2.728
 3599TIP3    H110742   5.788   7.517   2.757
 3599TIP3    H210743   5.839   7.657   2.785
 3600TIP3   OH210744   4.763   1.265   5.691
 3600TIP3    H110745   4.852   1.277   5.724
 3600TIP3    H210746   4.753   1.330   5.622
 3601TIP3   OH210747   4.370   6.212   2.938
 3601TIP3    H110748   4.335   6.297   2.963
 3601TIP3    H210749   4.465   6.223   2.942
 3602TIP3   OH210750   3.844   4.831   0.604
 3602TIP3    H110751   3.928   4.785   0.614
 3602TIP3    H210752   3.778   4.762   0.608
 3603TIP3   OH210753   6.239   0.979   5.754
 3603TIP3    H110754   6.204   1.027   5.679
 3603TIP3    H210755   6.194   1.016   5.830
 3604TIP3   OH210756   3.558   7.252   4.176
 3604TIP3    H110757   3.586   7.281   4.262
 3604TIP3    H210758   3.638   7.245   4.125
 3605TIP3   OH210759   6.334   7.085   6.006
 3605TIP3    H110760   6.314   7.153   6.070
 3605TIP3    H210761   6.406   7.036   6.045
 3606TIP3   OH210762   7.343   4.870   6.530
 3606TIP3    H110763   7.389   4.953   6.543
 3606TIP3    H210764   7.299   4.854   6.614
 3607TIP3   OH210765   7.644   1.943   3.986
 3607TIP3    H110766   7.671   1.851   3.980
 3607TIP3    H210767   7.551   1.939   4.004
 3608TIP3   OH210768   0.910   6.214   6.703
 3608TIP3    H110769   0.889   6.136   6.650
 3608TIP3    H210770   1.002   6.231   6.684
 3609TIP3   OH210771   1.750   6.275   0.461
 3609TIP3    H110772   1.731   6.203   0.401
 3609TIP3    H210773   1.671   6.329   0.459
 3610TIP3   OH210774   0.864   0.611   1.325
 3610TIP3    H110775   0.878   0.655   1.241
 3610TIP3    H210776   0.820   0.676   1.380
 3611TIP3   OH210777   8.005   2.945   1.375
 3611TIP3    H110778   8.064   2.949   1.300
 3611TIP3    H210779   8.045   3.003   1.440
 3612TIP3   OH210780   4.520   3.423   5.717
 3612TIP3    H110781   4.548   3.480   5.646
 3612TIP3    H210782   4.437   3.387   5.687
 3613TIP3   OH210783   2.137   6.483   4.114
 3613TIP3    H110784   2.091   6.427   4.177
 3613TIP3    H210785   2.156   6.426   4.040
 3614TIP3   OH210786   7.084   6.876   2.756
 3614TIP3    H110787   7.056   6.961   2.723
 3614TIP3    H210788   7.003   6.826   2.766
 3615TIP3   OH210789   6.618   2.384   2.838
 3615TIP3    H110790   6.694   2.402   2.782
 3615TIP3    H210791   6.556   2.454   2.818
 3616TIP3   OH210792   3.675   7.478   5.455
 3616TIP3    H110793   3.637   7.398   5.419
 3616TIP3    H210794   3.617   7.548   5.424
 3617TIP3   OH210795   3.477   6.729   6.680
 3617TIP3    H110796   3.535   6.698   6.610
 3617TIP3    H210797   3.410   6.780   6.635
 3618TIP3   OH210798   5.619   3.174   4.549
 3618TIP3    H110799   5.549   3.109   4.548
 3618TIP3    H210800   5.595   3.237   4.482
 3619TIP3   OH210801   7.055   2.322   6.152
 3619TIP3    H110802   7.038   2.236   6.191
 3619TIP3    H210803   7.137   2.351   6.191
 3620TIP3   OH210804   4.756   5.278   1.326
 3620TIP3    H110805   4.832   5.314   1.370
 3620TIP3    H210806   4.740   5.194   1.369
 3621TIP3   OH210807   1.505   4.199   5.440
 3621TIP3    H110808   1.434   4.197   5.375
 3621TIP3    H210809   1.471   4.254   5.510
 3622TIP3   OH210810   1.853   7.274   2.139
 3622TIP3    H110811   1.867   7.337   2.210
 3622TIP3    H210812   1.941   7.261   2.102
 3623TIP3   OH210813   3.967   5.289   1.318
 3623TIP3    H110814   3.919   5.220   1.365
 3623TIP3    H210815   3.905   5.321   1.253
 3624TIP3   OH210816   4.135   2.969   5.953
 3624TIP3    H110817   4.159   2.919   6.031
 3624TIP3    H210818   4.041   2.954   5.943
 3625TIP3   OH210819   0.724   5.558   3.420
 3625TIP3    H110820   0.681   5.475   3.442
 3625TIP3    H210821   0.672   5.624   3.466
 3626TIP3   OH210822   1.045   5.635   6.272
 3626TIP3    H110823   1.066   5.560   6.216
 3626TIP3    H210824   0.976   5.681   6.224
 3627TIP3   OH210825   4.085   5.848   0.462
 3627TIP3    H110826   4.000   5.853   0.505
 3627TIP3    H210827   4.147   5.830   0.533
 3628TIP3   OH210828   6.050   1.334   2.015
 3628TIP3    H110829   5.993   1.285   1.955
 3628TIP3    H210830   6.005   1.419   2.026
 3629TIP3   OH210831   3.622   7.491   5.713
 3629TIP3    H110832   3.637   7.490   5.619
 3629TIP3    H210833   3.596   7.582   5.732
 3630TIP3   OH210834   4.313   1.692   0.281
 3630TIP3    H110835   4.351   1.734   0.359
 3630TIP3    H210836   4.228   1.660   0.311
 3631TIP3   OH210837   4.588   5.242   4.280
 3631TIP3    H110838   4.638   5.287   4.348
 3631TIP3    H210839   4.501   5.228   4.319
 3632TIP3   OH210840   5.858   7.025   0.188
 3632TIP3    H110841   5.877   7.067   0.272
 3632TIP3    H210842   5.809   7.091   0.139
 3633TIP3   OH210843   2.912   5.363   5.389
 3633TIP3    H110844   2.935   5.290   5.447
 3633TIP3    H210845   2.995   5.410   5.376
 3634TIP3   OH210846   4.741   4.649   1.471
 3634TIP3    H110847   4.772   4.731   1.510
 3634TIP3    H210848   4.797   4.636   1.394
 3635TIP3   OH210849   5.503   2.899   0.968
 3635TIP3    H110850   5.588   2.858   0.983
 3635TIP3    H210851   5.466   2.850   0.895
 3636TIP3   OH210852   5.273   7.600   4.651
 3636TIP3    H110853   5.359   7.565   4.672
 3636TIP3    H210854   5.224   7.525   4.617
 3637TIP3   OH210855   1.301   6.588   0.848
 3637TIP3    H110856   1.269   6.631   0.927
 3637TIP3    H210857   1.349   6.656   0.800
 3638TIP3   OH210858   7.103   0.046   4.421
 3638TIP3    H110859   7.129   0.135   4.399
 3638TIP3    H210860   7.128   0.036   4.513
 3639TIP3   OH210861   7.061   2.440   5.692
 3639TIP3    H110862   7.112   2.418   5.770
 3639TIP3    H210863   7.086   2.375   5.627
 3640TIP3   OH210864   6.919   2.525   5.465
 3640TIP3    H110865   6.830   2.488   5.457
 3640TIP3    H210866   6.948   2.497   5.551
 3641TIP3   OH210867   6.556   5.625   5.447
 3641TIP3    H110868   6.631   5.671   5.485
 3641TIP3    H210869   6.569   5.533   5.472
 3642TIP3   OH210870   4.518   3.654   6.578
 3642TIP3    H110871   4.535   3.711   6.653
 3642TIP3    H210872   4.516   3.566   6.615
 3643TIP3   OH210873   4.703   2.561   4.384
 3643TIP3    H110874   4.651   2.608   4.319
 3643TIP3    H210875   4.763   2.507   4.333
 3644TIP3   OH210876   3.081   1.813   5.119
 3644TIP3    H110877   3.021   1.810   5.045
 3644TIP3    H210878   3.121   1.899   5.114
 3645TIP3   OH210879   8.105   4.933   5.544
 3645TIP3    H110880   8.062   4.883   5.613
 3645TIP3    H210881   8.181   4.973   5.587
 3646TIP3   OH210882   5.549   6.979   4.402
 3646TIP3    H110883   5.477   6.919   4.383
 3646TIP3    H210884   5.533   7.055   4.346
 3647TIP3   OH210885   5.488   1.072   6.094
 3647TIP3    H110886   5.523   1.153   6.057
 3647TIP3    H210887   5.394   1.087   6.100
 3648TIP3   OH210888   5.909   6.580   3.142
 3648TIP3    H110889   5.885   6.633   3.066
 3648TIP3    H210890   5.882   6.633   3.218
 3649TIP3   OH210891   8.281   3.488   5.792
 3649TIP3    H110892   8.218   3.553   5.821
 3649TIP3    H210893   8.233   3.405   5.797
 3650TIP3   OH210894   4.253   0.347   1.261
 3650TIP3    H110895   4.336   0.317   1.224
 3650TIP3    H210896   4.273   0.433   1.298
 3651TIP3   OH210897   1.996   7.324   0.701
 3651TIP3    H110898   2.008   7.316   0.606
 3651TIP3    H210899   1.988   7.234   0.731
 3652TIP3   OH210900   4.784   7.372   6.408
 3652TIP3    H110901   4.705   7.360   6.355
 3652TIP3    H210902   4.816   7.283   6.424
 3653TIP3   OH210903   8.098   2.180   2.548
 3653TIP3    H110904   8.102   2.204   2.456
 3653TIP3    H210905   8.056   2.255   2.591
 3654TIP3   OH210906   4.421   6.473   5.567
 3654TIP3    H110907   4.501   6.422   5.584
 3654TIP3    H210908   4.413   6.473   5.472
 3655TIP3   OH210909   7.097   2.293   1.260
 3655TIP3    H110910   7.168   2.243   1.221
 3655TIP3    H210911   7.019   2.266   1.213
 3656TIP3   OH210912   6.458   1.061   0.992
 3656TIP3    H110913   6.389   0.995   0.987
 3656TIP3    H210914   6.538   1.012   1.010
 3657TIP3   OH210915   1.502   1.036   2.590
 3657TIP3    H110916   1.516   1.046   2.495
 3657TIP3    H210917   1.556   0.961   2.614
 3658TIP3   OH210918   3.499   7.112   6.295
 3658TIP3    H110919   3.505   7.135   6.202
 3658TIP3    H210920   3.405   7.111   6.313
 3659TIP3   OH210921   7.766   2.657   0.228
 3659TIP3    H110922   7.755   2.698   0.314
 3659TIP3    H210923   7.710   2.579   0.232
 3660TIP3   OH210924   1.305   5.301   3.306
 3660TIP3    H110925   1.284   5.243   3.379
 3660TIP3    H210926   1.383   5.262   3.266
 3661TIP3   OH210927   5.894   2.558   6.155
 3661TIP3    H110928   5.940   2.642   6.148
 3661TIP3    H210929   5.899   2.535   6.247
 3662TIP3   OH210930   6.261   0.336   1.696
 3662TIP3    H110931   6.337   0.369   1.744
 3662TIP3    H210932   6.293   0.324   1.607
 3663TIP3   OH210933   2.065   3.356   4.237
 3663TIP3    H110934   2.015   3.437   4.244
 3663TIP3    H210935   2.154   3.381   4.262
 3664TIP3   OH210936   5.140   2.619   4.669
 3664TIP3    H110937   5.143   2.714   4.680
 3664TIP3    H210938   5.227   2.596   4.637
 3665TIP3   OH210939   5.311   7.353   4.966
 3665TIP3    H110940   5.227   7.308   4.978
 3665TIP3    H210941   5.365   7.291   4.917
 3666TIP3   OH210942   1.765   3.811   0.804
 3666TIP3    H110943   1.691   3.811   0.865
 3666TIP3    H210944   1.821   3.739   0.834
 3667TIP3   OH210945   3.708   3.978   5.897
 3667TIP3    H110946   3.797   3.949   5.917
 3667TIP3    H210947   3.672   4.007   5.981
 3668TIP3   OH210948   1.654   0.126   1.990
 3668TIP3    H110949   1.568   0.112   2.028
 3668TIP3    H210950   1.637   0.167   1.905
 3669TIP3   OH210951   1.871   0.976   4.769
 3669TIP3    H110952   1.962   1.003   4.757
 3669TIP3    H210953   1.876   0.883   4.791
 3670TIP3   OH210954   4.190   1.167   4.965
 3670TIP3    H110955   4.246   1.239   4.935
 3670TIP3    H210956   4.106   1.183   4.922
 3671TIP3   OH210957   1.498   6.363   5.344
 3671TIP3    H110958   1.431   6.364   5.276
 3671TIP3    H210959   1.577   6.332   5.299
 3672TIP3   OH210960   3.960   0.856   2.329
 3672TIP3    H110961   3.879   0.810   2.351
 3672TIP3    H210962   3.947   0.885   2.238
 3673TIP3   OH210963   3.222   4.664   5.179
 3673TIP3    H110964   3.188   4.575   5.185
 3673TIP3    H210965   3.285   4.670   5.251
 3674TIP3   OH210966   4.910   7.128   3.734
 3674TIP3    H110967   4.985   7.141   3.792
 3674TIP3    H210968   4.930   7.181   3.657
 3675TIP3   OH210969   4.802   0.635   4.636
 3675TIP3    H110970   4.855   0.562   4.603
 3675TIP3    H210971   4.795   0.619   4.730
 3676TIP3   OH210972   1.768   5.940   6.156
 3676TIP3    H110973   1.747   5.943   6.249
 3676TIP3    H210974   1.718   6.012   6.117
 3677TIP3   OH210975   3.447   2.905   1.316
 3677TIP3    H110976   3.365   2.945   1.345
 3677TIP3    H210977   3.428   2.872   1.228
 3678TIP3   OH210978   4.188   5.989   1.588
 3678TIP3    H110979   4.153   6.068   1.629
 3678TIP3    H210980   4.251   5.955   1.651
 3679TIP3   OH210981   1.570   6.920   0.273
 3679TIP3    H110982   1.480   6.918   0.242
 3679TIP3    H210983   1.564   6.897   0.366
 3680TIP3   OH210984   7.235   2.767   2.915
 3680TIP3    H110985   7.167   2.816   2.962
 3680TIP3    H210986   7.260   2.697   2.975
 3681TIP3   OH210987   5.496   5.276   3.265
 3681TIP3    H110988   5.553   5.200   3.276
 3681TIP3    H210989   5.549   5.351   3.294
 3682TIP3   OH210990   0.546   6.474   1.041
 3682TIP3    H110991   0.522   6.392   0.998
 3682TIP3    H210992   0.509   6.542   0.985
 3683TIP3   OH210993   1.682   0.130   1.106
 3683TIP3    H110994   1.657   0.037   1.106
 3683TIP3    H210995   1.769   0.131   1.146
 3684TIP3   OH210996   0.443   1.824   6.688
 3684TIP3    H110997   0.409   1.913   6.686
 3684TIP3    H210998   0.366   1.769   6.705
 3685TIP3   OH210999   1.467   1.420   2.926
 3685TIP3    H111000   1.477   1.513   2.947
 3685TIP3    H211001   1.546   1.397   2.877
 3686TIP3   OH211002   5.511   0.950   2.062
 3686TIP3    H111003   5.516   1.039   2.027
 3686TIP3    H211004   5.532   0.960   2.155
 3687TIP3   OH211005   2.961   5.646   1.438
 3687TIP3    H111006   2.920   5.569   1.398
 3687TIP3    H211007   2.943   5.638   1.531
 3688TIP3   OH211008   5.578   6.227   1.599
 3688TIP3    H111009   5.612   6.151   1.646
 3688TIP3    H211010   5.564   6.293   1.666
 3689TIP3   OH211011   6.650   5.649   2.666
 3689TIP3    H111012   6.608   5.651   2.580
 3689TIP3    H211013   6.743   5.643   2.648
 3690TIP3   OH211014   5.484   6.355   3.347
 3690TIP3    H111015   5.456   6.436   3.305
 3690TIP3    H211016   5.560   6.380   3.400
 3691TIP3   OH211017   2.352   1.348   1.744
 3691TIP3    H111018   2.365   1.371   1.836
 3691TIP3    H211019   2.359   1.252   1.742
 3692TIP3   OH211020   0.962   0.500   6.118
 3692TIP3    H111021   0.935   0.543   6.037
 3692TIP3    H211022   1.057   0.515   6.122
 3693TIP3   OH211023   5.244   6.915   3.908
 3693TIP3    H111024   5.174   6.854   3.933
 3693TIP3    H211025   5.324   6.871   3.937
 3694TIP3   OH211026   0.010   1.769   4.045
 3694TIP3    H111027   0.058   1.850   4.029
 3694TIP3    H211028   0.008   1.725   3.960
 3695TIP3   OH211029   4.197   5.568   4.951
 3695TIP3    H111030   4.281   5.522   4.950
 3695TIP3    H211031   4.132   5.498   4.949
 3696TIP3   OH211032   5.227   0.778   6.142
 3696TIP3    H111033   5.141   0.761   6.181
 3696TIP3    H211034   5.280   0.807   6.216
 3697TIP3   OH211035   6.097   0.922   6.577
 3697TIP3    H111036   6.131   1.007   6.548
 3697TIP3    H211037   6.154   0.858   6.534
 3698TIP3   OH211038   1.069   5.514   2.361
 3698TIP3    H111039   1.065   5.604   2.329
 3698TIP3    H211040   1.019   5.515   2.442
 3699TIP3   OH211041   6.235   2.333   4.163
 3699TIP3    H111042   6.183   2.299   4.235
 3699TIP3    H211043   6.318   2.360   4.204
 3700TIP3   OH211044   1.881   1.944   5.644
 3700TIP3    H111045   1.900   1.982   5.729
 3700TIP3    H211046   1.793   1.908   5.653
 3701TIP3   OH211047   5.432   4.042   6.334
 3701TIP3    H111048   5.398   4.011   6.418
 3701TIP3    H211049   5.357   4.086   6.293
 3702TIP3   OH211050   7.701   0.602   0.595
 3702TIP3    H111051   7.758   0.566   0.662
 3702TIP3    H211052   7.750   0.592   0.513
 3703TIP3   OH211053   6.464   4.117   4.728
 3703TIP3    H111054   6.389   4.057   4.727
 3703TIP3    H211055   6.432   4.195   4.683
 3704TIP3   OH211056   3.411   0.395   3.614
 3704TIP3    H111057   3.466   0.317   3.617
 3704TIP3    H211058   3.327   0.364   3.579
 3705TIP3   OH211059   4.287   5.691   2.711
 3705TIP3    H111060   4.310   5.783   2.702
 3705TIP3    H211061   4.213   5.678   2.651
 3706TIP3   OH211062   5.364   0.137   1.946
 3706TIP3    H111063   5.455   0.154   1.924
 3706TIP3    H211064   5.362   0.045   1.973
 3707TIP3   OH211065   7.064   0.767   5.371
 3707TIP3    H111066   6.996   0.710   5.333
 3707TIP3    H211067   7.045   0.853   5.335
 3708TIP3   OH211068   7.314   0.753   6.195
 3708TIP3    H111069   7.264   0.677   6.226
 3708TIP3    H211070   7.345   0.727   6.109
 3709TIP3   OH211071   1.371   6.728   0.067
 3709TIP3    H111072   1.280   6.742   0.092
 3709TIP3    H211073   1.394   6.808   0.018
 3710TIP3   OH211074   7.182   5.510   3.090
 3710TIP3    H111075   7.131   5.430   3.099
 3710TIP3    H211076   7.264   5.492   3.136
 3711TIP3   OH211077   1.830   1.613   2.401
 3711TIP3    H111078   1.754   1.564   2.373
 3711TIP3    H211079   1.859   1.569   2.481
 3712TIP3   OH211080   0.251   5.803   5.764
 3712TIP3    H111081   0.336   5.783   5.725
 3712TIP3    H211082   0.209   5.861   5.701
 3713TIP3   OH211083   3.882   2.292   5.891
 3713TIP3    H111084   3.939   2.320   5.819
 3713TIP3    H211085   3.916   2.206   5.915
 3714TIP3   OH211086   3.478   7.764   5.713
 3714TIP3    H111087   3.404   7.796   5.661
 3714TIP3    H211088   3.464   7.800   5.801
 3715TIP3   OH211089   0.639   3.755   6.339
 3715TIP3    H111090   0.587   3.796   6.270
 3715TIP3    H211091   0.679   3.829   6.386
 3716TIP3   OH211092   3.032   5.726   5.465
 3716TIP3    H111093   2.955   5.719   5.407
 3716TIP3    H211094   2.999   5.773   5.541
 3717TIP3   OH211095   7.343   7.453   5.719
 3717TIP3    H111096   7.331   7.532   5.666
 3717TIP3    H211097   7.385   7.484   5.799
 3718TIP3   OH211098   4.580   7.687   5.384
 3718TIP3    H111099   4.488   7.703   5.361
 3718TIP3    H211100   4.614   7.773   5.408
 3719TIP3   OH211101   4.261   2.712   3.355
 3719TIP3    H111102   4.259   2.679   3.445
 3719TIP3    H211103   4.304   2.642   3.306
 3720TIP3   OH211104   7.517   5.098   1.894
 3720TIP3    H111105   7.603   5.133   1.872
 3720TIP3    H211106   7.536   5.023   1.951
 3721TIP3   OH211107   1.223   0.322   5.207
 3721TIP3    H111108   1.199   0.287   5.292
 3721TIP3    H211109   1.299   0.271   5.180
 3722TIP3   OH211110   0.903   7.073   4.940
 3722TIP3    H111111   0.969   7.037   5.000
 3722TIP3    H211112   0.875   7.155   4.981
 3723TIP3   OH211113   0.770   4.030   0.533
 3723TIP3    H111114   0.757   4.123   0.551
 3723TIP3    H211115   0.726   4.016   0.449
 3724TIP3   OH211116   2.119   4.859   6.210
 3724TIP3    H111117   2.078   4.862   6.124
 3724TIP3    H211118   2.202   4.813   6.195
 3725TIP3   OH211119   8.046   5.455   3.987
 3725TIP3    H111120   8.004   5.442   4.072
 3725TIP3    H211121   8.055   5.550   3.979
 3726TIP3   OH211122   0.617   5.804   3.648
 3726TIP3    H111123   0.548   5.806   3.581
 3726TIP3    H211124   0.695   5.836   3.604
 3727TIP3   OH211125   5.788   4.604   4.844
 3727TIP3    H111126   5.880   4.629   4.837
 3727TIP3    H211127   5.746   4.649   4.770
 3728TIP3   OH211128   0.362  -0.020   1.567
 3728TIP3    H111129   0.456  -0.033   1.580
 3728TIP3    H211130   0.342   0.062   1.613
 3729TIP3   OH211131   3.046   4.919   0.080
 3729TIP3    H111132   3.057   5.013   0.069
 3729TIP3    H211133   2.951   4.906   0.075
 3730TIP3   OH211134   4.890   4.684   0.322
 3730TIP3    H111135   4.866   4.719   0.236
 3730TIP3    H211136   4.986   4.675   0.318
 3731TIP3   OH211137   7.123   1.736   1.951
 3731TIP3    H111138   7.051   1.738   2.014
 3731TIP3    H211139   7.080   1.736   1.865
 3732TIP3   OH211140   0.347   4.649   1.339
 3732TIP3    H111141   0.426   4.620   1.384
 3732TIP3    H211142   0.358   4.743   1.329
 3733TIP3   OH211143   6.078   0.299   2.715
 3733TIP3    H111144   6.017   0.312   2.787
 3733TIP3    H211145   6.026   0.315   2.636
 3734TIP3   OH211146   0.415   2.745   6.092
 3734TIP3    H111147   0.420   2.688   6.169
 3734TIP3    H211148   0.392   2.831   6.129
 3735TIP3   OH211149   0.566   1.600   1.780
 3735TIP3    H111150   0.563   1.693   1.756
 3735TIP3    H211151   0.613   1.599   1.863
 3736TIP3   OH211152   7.523   0.545   4.479
 3736TIP3    H111153   7.453   0.610   4.477
 3736TIP3    H211154   7.573   0.565   4.558
 3737TIP3   OH211155   4.146   2.881   4.599
 3737TIP3    H111156   4.232   2.839   4.595
 3737TIP3    H211157   4.131   2.895   4.692
 3738TIP3   OH211158   3.385   6.894   0.791
 3738TIP3    H111159   3.479   6.883   0.809
 3738TIP3    H211160   3.382   6.953   0.716
 3739TIP3   OH211161   5.104   1.749   6.533
 3739TIP3    H111162   5.108   1.824   6.591
 3739TIP3    H211163   5.185   1.753   6.482
 3740TIP3   OH211164   2.018   1.883   1.816
 3740TIP3    H111165   2.030   1.971   1.780
 3740TIP3    H211166   1.923   1.868   1.813
 3741TIP3   OH211167   7.539   6.641   2.578
 3741TIP3    H111168   7.557   6.547   2.579
 3741TIP3    H211169   7.444   6.647   2.576
 3742TIP3   OH211170   2.857   4.403   5.316
 3742TIP3    H111171   2.838   4.316   5.351
 3742TIP3    H211172   2.805   4.409   5.236
 3743TIP3   OH211173   8.267   3.078   3.167
 3743TIP3    H111174   8.197   3.016   3.188
 3743TIP3    H211175   8.225   3.164   3.172
 3744TIP3   OH211176   5.346   7.228   2.898
 3744TIP3    H111177   5.371   7.321   2.896
 3744TIP3    H211178   5.262   7.227   2.944
 3745TIP3   OH211179   7.704   5.888   0.649
 3745TIP3    H111180   7.693   5.811   0.592
 3745TIP3    H211181   7.712   5.962   0.588
 3746TIP3   OH211182   5.732   4.301   6.311
 3746TIP3    H111183   5.815   4.348   6.303
 3746TIP3    H211184   5.740   4.227   6.251
 3747TIP3   OH211185   4.441   1.609   5.261
 3747TIP3    H111186   4.425   1.573   5.174
 3747TIP3    H211187   4.512   1.673   5.248
 3748TIP3   OH211188   6.087   0.488   6.484
 3748TIP3    H111189   6.039   0.485   6.400
 3748TIP3    H211190   6.138   0.408   6.485
 3749TIP3   OH211191   2.147   4.682   2.617
 3749TIP3    H111192   2.238   4.693   2.643
 3749TIP3    H211193   2.148   4.612   2.552
 3750TIP3   OH211194   6.985   5.880   4.486
 3750TIP3    H111195   7.023   5.872   4.573
 3750TIP3    H211196   7.002   5.971   4.460
 3751TIP3   OH211197   5.260   2.367   5.192
 3751TIP3    H111198   5.266   2.343   5.284
 3751TIP3    H211199   5.289   2.458   5.188
 3752TIP3   OH211200   4.342   2.152   6.007
 3752TIP3    H111201   4.297   2.164   6.091
 3752TIP3    H211202   4.410   2.087   6.027
 3753TIP3   OH211203   0.441   6.603   2.664
 3753TIP3    H111204   0.377   6.536   2.642
 3753TIP3    H211205   0.450   6.655   2.584
 3754TIP3   OH211206   0.452   4.097   6.717
 3754TIP3    H111207   0.428   4.135   6.632
 3754TIP3    H211208   0.435   4.167   6.780
 3755TIP3   OH211209   7.197   5.438   5.761
 3755TIP3    H111210   7.153   5.442   5.676
 3755TIP3    H211211   7.191   5.526   5.796
 3756TIP3   OH211212   2.893   5.607   2.362
 3756TIP3    H111213   2.809   5.642   2.392
 3756TIP3    H211214   2.909   5.653   2.279
 3757TIP3   OH211215   7.131   0.084   5.462
 3757TIP3    H111216   7.116  -0.006   5.492
 3757TIP3    H211217   7.063   0.099   5.396
 3758TIP3   OH211218   2.109   4.813   0.405
 3758TIP3    H111219   2.174   4.747   0.429
 3758TIP3    H211220   2.025   4.773   0.426
 3759TIP3   OH211221   2.805   2.509   3.691
 3759TIP3    H111222   2.880   2.554   3.730
 3759TIP3    H211223   2.754   2.579   3.650
 3760TIP3   OH211224   5.628   1.807   4.524
 3760TIP3    H111225   5.723   1.816   4.523
 3760TIP3    H211226   5.597   1.873   4.462
 3761TIP3   OH211227   2.691   2.568   1.309
 3761TIP3    H111228   2.669   2.584   1.217
 3761TIP3    H211229   2.771   2.516   1.306
 3762TIP3   OH211230   4.503   7.054   4.863
 3762TIP3    H111231   4.497   6.997   4.940
 3762TIP3    H211232   4.437   7.122   4.879
 3763TIP3   OH211233   1.674   3.476   2.780
 3763TIP3    H111234   1.636   3.560   2.756
 3763TIP3    H211235   1.619   3.411   2.736
 3764TIP3   OH211236   7.308   1.286   1.825
 3764TIP3    H111237   7.356   1.346   1.768
 3764TIP3    H211238   7.229   1.335   1.849
 3765TIP3   OH211239   4.761   1.269   1.806
 3765TIP3    H111240   4.756   1.272   1.710
 3765TIP3    H211241   4.670   1.275   1.835
 3766TIP3   OH211242   7.510   6.700   0.348
 3766TIP3    H111243   7.596   6.662   0.330
 3766TIP3    H211244   7.450   6.651   0.292
 3767TIP3   OH211245   5.210   6.122   0.128
 3767TIP3    H111246   5.225   6.099   0.036
 3767TIP3    H211247   5.194   6.216   0.128
 3768TIP3   OH211248   2.484   4.134   0.845
 3768TIP3    H111249   2.489   4.046   0.881
 3768TIP3    H211250   2.543   4.133   0.770
 3769TIP3   OH211251   7.914   2.210   5.237
 3769TIP3    H111252   7.996   2.252   5.264
 3769TIP3    H211253   7.878   2.172   5.317
 3770TIP3   OH211254   7.058   3.237   4.562
 3770TIP3    H111255   6.977   3.267   4.520
 3770TIP3    H211256   7.067   3.293   4.640
 3771TIP3   OH211257   2.333   4.622   3.512
 3771TIP3    H111258   2.424   4.632   3.538
 3771TIP3    H211259   2.333   4.635   3.417
 3772TIP3   OH211260   8.009   0.314   4.159
 3772TIP3    H111261   7.989   0.320   4.252
 3772TIP3    H211262   7.953   0.243   4.127
 3773TIP3   OH211263   1.654   1.632   5.375
 3773TIP3    H111264   1.729   1.621   5.318
 3773TIP3    H211265   1.657   1.557   5.434
 3774TIP3   OH211266   5.654   6.868   1.242
 3774TIP3    H111267   5.614   6.802   1.299
 3774TIP3    H211268   5.680   6.938   1.302
 3775TIP3   OH211269   2.726   4.455   1.274
 3775TIP3    H111270   2.781   4.379   1.256
 3775TIP3    H211271   2.739   4.472   1.367
 3776TIP3   OH211272   3.650   2.604   4.639
 3776TIP3    H111273   3.574   2.558   4.604
 3776TIP3    H211274   3.716   2.598   4.570
 3777TIP3   OH211275   0.063   3.577   1.232
 3777TIP3    H111276   0.142   3.526   1.212
 3777TIP3    H211277   0.092   3.668   1.230
 3778TIP3   OH211278   3.485   5.412   0.693
 3778TIP3    H111279   3.393   5.429   0.708
 3778TIP3    H211280   3.491   5.388   0.600
 3779TIP3   OH211281   2.998   7.639   6.605
 3779TIP3    H111282   2.986   7.652   6.699
 3779TIP3    H211283   3.013   7.727   6.571
 3780TIP3   OH211284   3.066   0.106   0.034
 3780TIP3    H111285   3.145   0.156   0.015
 3780TIP3    H211286   3.096   0.033   0.089
 3781TIP3   OH211287   1.918   1.313   1.347
 3781TIP3    H111288   1.901   1.224   1.380
 3781TIP3    H211289   1.982   1.349   1.409
 3782TIP3   OH211290   2.066   5.489   5.581
 3782TIP3    H111291   2.019   5.516   5.502
 3782TIP3    H211292   2.096   5.400   5.562
 3783TIP3   OH211293   3.314   0.357   0.253
 3783TIP3    H111294   3.281   0.317   0.172
 3783TIP3    H211295   3.236   0.395   0.294
 3784TIP3   OH211296   0.610   6.243   1.984
 3784TIP3    H111297   0.660   6.318   1.954
 3784TIP3    H211298   0.540   6.280   2.038
 3785TIP3   OH211299   8.275   6.388   6.609
 3785TIP3    H111300   8.325   6.309   6.592
 3785TIP3    H211301   8.188   6.370   6.573
 3786TIP3   OH211302   2.072   2.759   3.135
 3786TIP3    H111303   2.159   2.735   3.167
 3786TIP3    H211304   2.068   2.721   3.046
 3787TIP3   OH211305   1.224   1.599   3.202
 3787TIP3    H111306   1.224   1.694   3.190
 3787TIP3    H211307   1.134   1.572   3.184
 3788TIP3   OH211308   5.720   1.967   2.440
 3788TIP3    H111309   5.767   2.050   2.435
 3788TIP3    H211310   5.632   1.987   2.407
 3789TIP3   OH211311   7.040   1.003   0.398
 3789TIP3    H111312   7.062   0.985   0.490
 3789TIP3    H211313   7.087   1.083   0.377
 3790TIP3   OH211314   2.625   6.599   5.945
 3790TIP3    H111315   2.632   6.594   5.850
 3790TIP3    H211316   2.573   6.678   5.961
 3791TIP3   OH211317   2.638   7.272   2.181
 3791TIP3    H111318   2.566   7.322   2.142
 3791TIP3    H211319   2.714   7.292   2.126
 3792TIP3   OH211320   1.251   6.830   0.710
 3792TIP3    H111321   1.171   6.869   0.745
 3792TIP3    H211322   1.314   6.834   0.781
 3793TIP3   OH211323   2.855   6.615   6.575
 3793TIP3    H111324   2.763   6.622   6.549
 3793TIP3    H211325   2.852   6.567   6.658
 3794TIP3   OH211326   6.635   3.851   4.030
 3794TIP3    H111327   6.712   3.807   4.066
 3794TIP3    H211328   6.666   3.939   4.009
 3795TIP3   OH211329   7.284   5.271   6.158
 3795TIP3    H111330   7.211   5.248   6.099
 3795TIP3    H211331   7.358   5.220   6.125
 3796TIP3   OH211332   6.343   5.896   1.585
 3796TIP3    H111333   6.423   5.902   1.532
 3796TIP3    H211334   6.334   5.982   1.625
 3797TIP3   OH211335   4.310   5.750   5.532
 3797TIP3    H111336   4.342   5.753   5.622
 3797TIP3    H211337   4.323   5.659   5.506
 3798TIP3   OH211338   0.814   3.366   2.069
 3798TIP3    H111339   0.748   3.375   2.138
 3798TIP3    H211340   0.843   3.455   2.051
 3799TIP3   OH211341   7.327   3.868   6.409
 3799TIP3    H111342   7.322   3.778   6.377
 3799TIP3    H211343   7.236   3.893   6.422
 3800TIP3   OH211344   6.738   3.240   3.945
 3800TIP3    H111345   6.722   3.334   3.937
 3800TIP3    H211346   6.746   3.209   3.855
 3801TIP3   OH211347   2.598   7.519   1.803
 3801TIP3    H111348   2.584   7.600   1.851
 3801TIP3    H211349   2.669   7.475   1.849
 3802TIP3   OH211350   5.487   4.505   5.914
 3802TIP3    H111351   5.478   4.521   5.820
 3802TIP3    H211352   5.573   4.541   5.937
 3803TIP3   OH211353   0.587   4.762   4.002
 3803TIP3    H111354   0.627   4.725   4.081
 3803TIP3    H211355   0.643   4.836   3.979
 3804TIP3   OH211356   7.786   3.633   0.830
 3804TIP3    H111357   7.815   3.705   0.774
 3804TIP3    H211358   7.740   3.573   0.772
 3805TIP3   OH211359   2.654   0.799   3.584
 3805TIP3    H111360   2.585   0.865   3.570
 3805TIP3    H211361   2.607   0.720   3.611
 3806TIP3   OH211362   1.541   3.539   1.896
 3806TIP3    H111363   1.543   3.515   1.803
 3806TIP3    H211364   1.461   3.591   1.905
 3807TIP3   OH211365   6.985   0.576   1.669
 3807TIP3    H111366   6.941   0.612   1.592
 3807TIP3    H211367   7.065   0.629   1.677
 3808TIP3   OH211368   3.574   2.122   3.082
 3808TIP3    H111369   3.558   2.216   3.089
 3808TIP3    H211370   3.668   2.115   3.066
 3809TIP3   OH211371   2.736   5.165   5.486
 3809TIP3    H111372   2.694   5.079   5.490
 3809TIP3    H211373   2.771   5.169   5.397
 3810TIP3   OH211374   0.634   5.278   2.473
 3810TIP3    H111375   0.602   5.313   2.556
 3810TIP3    H211376   0.595   5.335   2.407
 3811TIP3   OH211377   3.412   1.752   0.644
 3811TIP3    H111378   3.362   1.792   0.716
 3811TIP3    H211379   3.389   1.804   0.567
 3812TIP3   OH211380   2.728   7.318   5.968
 3812TIP3    H111381   2.710   7.338   5.876
 3812TIP3    H211382   2.807   7.265   5.966
 3813TIP3   OH211383   3.863   4.397   3.789
 3813TIP3    H111384   3.791   4.358   3.838
 3813TIP3    H211385   3.922   4.431   3.855
 3814TIP3   OH211386   6.086   1.601   1.557
 3814TIP3    H111387   6.019   1.549   1.513
 3814TIP3    H211388   6.158   1.539   1.571
 3815TIP3   OH211389   5.600   3.013   1.794
 3815TIP3    H111390   5.561   3.089   1.750
 3815TIP3    H211391   5.675   2.990   1.739
 3816TIP3   OH211392   3.408   2.089   4.498
 3816TIP3    H111393   3.503   2.074   4.501
 3816TIP3    H211394   3.382   2.061   4.410
 3817TIP3   OH211395   0.060   3.796   3.351
 3817TIP3    H111396  -0.001   3.805   3.277
 3817TIP3    H211397   0.141   3.835   3.319
 3818TIP3   OH211398   7.432   2.639   6.094
 3818TIP3    H111399   7.398   2.679   6.174
 3818TIP3    H211400   7.466   2.554   6.123
 3819TIP3   OH211401   4.863   3.527   0.440
 3819TIP3    H111402   4.900   3.615   0.444
 3819TIP3    H211403   4.923   3.473   0.492
 3820TIP3   OH211404   1.727   2.001   1.778
 3820TIP3    H111405   1.646   2.042   1.746
 3820TIP3    H211406   1.738   2.037   1.866
 3821TIP3   OH211407   5.753   6.045   6.513
 3821TIP3    H111408   5.756   5.950   6.525
 3821TIP3    H211409   5.840   6.068   6.481
 3822TIP3   OH211410   2.808   5.640   5.301
 3822TIP3    H111411   2.803   5.669   5.210
 3822TIP3    H211412   2.796   5.545   5.296
 3823TIP3   OH211413   4.177   7.333   5.968
 3823TIP3    H111414   4.210   7.245   5.986
 3823TIP3    H211415   4.220   7.388   6.033
 3824TIP3   OH211416   4.622   7.432   5.197
 3824TIP3    H111417   4.543   7.380   5.208
 3824TIP3    H211418   4.600   7.517   5.235
 3825TIP3   OH211419   4.834   1.668   4.525
 3825TIP3    H111420   4.806   1.586   4.565
 3825TIP3    H211421   4.780   1.676   4.446
 3826TIP3   OH211422   1.573   4.654   1.009
 3826TIP3    H111423   1.640   4.594   0.977
 3826TIP3    H211424   1.560   4.629   1.101
 3827TIP3   OH211425   2.550   0.646   0.357
 3827TIP3    H111426   2.624   0.607   0.312
 3827TIP3    H211427   2.547   0.602   0.442
 3828TIP3   OH211428   7.899   4.530   0.143
 3828TIP3    H111429   7.843   4.555   0.216
 3828TIP3    H211430   7.865   4.579   0.068
 3829TIP3   OH211431   5.027   3.209   1.766
 3829TIP3    H111432   4.997   3.148   1.699
 3829TIP3    H211433   5.123   3.203   1.762
 3830TIP3   OH211434   0.900   5.734   2.689
 3830TIP3    H111435   0.978   5.678   2.692
 3830TIP3    H211436   0.931   5.821   2.714
 3831TIP3   OH211437   7.113   4.776   0.472
 3831TIP3    H111438   7.161   4.845   0.518
 3831TIP3    H211439   7.044   4.749   0.534
 3832TIP3   OH211440   6.502   5.184   2.284
 3832TIP3    H111441   6.569   5.248   2.306
 3832TIP3    H211442   6.419   5.231   2.295
 3833TIP3   OH211443   0.792   0.650   5.969
 3833TIP3    H111444   0.814   0.602   5.889
 3833TIP3    H211445   0.770   0.738   5.939
 3834TIP3   OH211446   3.999   3.954   0.236
 3834TIP3    H111447   3.905   3.970   0.244
 3834TIP3    H211448   4.015   3.951   0.141
 3835TIP3   OH211449   2.182   0.668   1.238
 3835TIP3    H111450   2.200   0.756   1.271
 3835TIP3    H211451   2.093   0.649   1.270
 3836TIP3   OH211452   6.700   1.985   5.501
 3836TIP3    H111453   6.643   2.026   5.435
 3836TIP3    H211454   6.724   1.901   5.463
 3837TIP3   OH211455   7.364   3.802   6.739
 3837TIP3    H111456   7.284   3.850   6.715
 3837TIP3    H211457   7.346   3.712   6.712
 3838TIP3   OH211458   4.677   7.661   0.121
 3838TIP3    H111459   4.631   7.711   0.053
 3838TIP3    H211460   4.728   7.596   0.072
 3839TIP3   OH211461   6.770   3.881   0.342
 3839TIP3    H111462   6.691   3.903   0.391
 3839TIP3    H211463   6.746   3.896   0.251
 3840TIP3   OH211464   3.679   7.692   1.050
 3840TIP3    H111465   3.721   7.671   0.966
 3840TIP3    H211466   3.747   7.675   1.115
 3841TIP3   OH211467   7.767   7.756   0.657
 3841TIP3    H111468   7.672   7.750   0.663
 3841TIP3    H211469   7.785   7.750   0.563
 3842TIP3   OH211470   3.574   6.318   6.211
 3842TIP3    H111471   3.559   6.385   6.278
 3842TIP3    H211472   3.643   6.263   6.246
 3843TIP3   OH211473   0.613   1.110   1.822
 3843TIP3    H111474   0.692   1.060   1.839
 3843TIP3    H211475   0.558   1.051   1.771
 3844TIP3   OH211476   4.429   3.773   6.105
 3844TIP3    H111477   4.476   3.704   6.151
 3844TIP3    H211478   4.426   3.846   6.166
 3845TIP3   OH211479   4.281   0.577   1.012
 3845TIP3    H111480   4.334   0.566   1.091
 3845TIP3    H211481   4.240   0.663   1.023
 3846TIP3   OH211482   5.826   5.596   5.681
 3846TIP3    H111483   5.843   5.640   5.764
 3846TIP3    H211484   5.798   5.508   5.706
 3847TIP3   OH211485   4.750   1.935   5.536
 3847TIP3    H111486   4.799   1.961   5.459
 3847TIP3    H211487   4.778   1.996   5.604
 3848TIP3   OH211488   5.215   6.452   5.279
 3848TIP3    H111489   5.282   6.388   5.256
 3848TIP3    H211490   5.241   6.484   5.366
 3849TIP3   OH211491   6.981   3.676   2.477
 3849TIP3    H111492   6.962   3.693   2.569
 3849TIP3    H211493   7.048   3.740   2.453
 3850TIP3   OH211494   7.580   3.267   2.733
 3850TIP3    H111495   7.490   3.289   2.708
 3850TIP3    H211496   7.628   3.267   2.651
 3851TIP3   OH211497   0.712   7.196   2.511
 3851TIP3    H111498   0.770   7.270   2.528
 3851TIP3    H211499   0.682   7.169   2.598
 3852TIP3   OH211500   0.581   0.163   2.595
 3852TIP3    H111501   0.544   0.142   2.509
 3852TIP3    H211502   0.656   0.104   2.603
 3853TIP3   OH211503   4.662   0.147   4.227
 3853TIP3    H111504   4.677   0.197   4.307
 3853TIP3    H211505   4.610   0.072   4.255
 3854TIP3   OH211506   7.941   0.731   4.950
 3854TIP3    H111507   7.859   0.779   4.938
 3854TIP3    H211508   7.917   0.652   4.998
 3855TIP3   OH211509   2.839   2.149   0.350
 3855TIP3    H111510   2.888   2.111   0.277
 3855TIP3    H211511   2.805   2.232   0.315
 3856TIP3   OH211512   1.523   5.234   1.972
 3856TIP3    H111513   1.551   5.198   2.056
 3856TIP3    H211514   1.596   5.218   1.913
 3857TIP3   OH211515   3.754   7.434   2.477
 3857TIP3    H111516   3.808   7.435   2.556
 3857TIP3    H211517   3.744   7.526   2.454
 3858TIP3   OH211518   1.033   1.827   5.740
 3858TIP3    H111519   0.944   1.819   5.707
 3858TIP3    H211520   1.057   1.919   5.725
 3859TIP3   OH211521   2.493   1.192   0.475
 3859TIP3    H111522   2.505   1.286   0.465
 3859TIP3    H211523   2.498   1.177   0.569
 3860TIP3   OH211524   0.172   2.169   4.670
 3860TIP3    H111525   0.216   2.130   4.746
 3860TIP3    H211526   0.180   2.264   4.684
 3861TIP3   OH211527   5.455   5.534   1.171
 3861TIP3    H111528   5.521   5.500   1.232
 3861TIP3    H211529   5.489   5.512   1.085
 3862TIP3   OH211530   0.998   5.458   5.440
 3862TIP3    H111531   0.990   5.549   5.414
 3862TIP3    H211532   1.090   5.437   5.428
 3863TIP3   OH211533   5.123   6.629   4.093
 3863TIP3    H111534   5.050   6.572   4.117
 3863TIP3    H211535   5.128   6.622   3.998
 3864TIP3   OH211536   6.026   3.530   6.052
 3864TIP3    H111537   6.084   3.473   6.001
 3864TIP3    H211538   5.956   3.472   6.081
 3865TIP3   OH211539   2.932   5.545   4.548
 3865TIP3    H111540   2.970   5.544   4.460
 3865TIP3    H211541   2.895   5.457   4.558
 3866TIP3   OH211542   4.220   7.303   3.747
 3866TIP3    H111543   4.233   7.216   3.784
 3866TIP3    H211544   4.126   7.309   3.731
 3867TIP3   OH211545   1.215   4.482   1.494
 3867TIP3    H111546   1.205   4.445   1.406
 3867TIP3    H211547   1.307   4.507   1.499
 3868TIP3   OH211548   1.990   4.383   0.368
 3868TIP3    H111549   1.932   4.312   0.392
 3868TIP3    H211550   2.000   4.375   0.273
 3869TIP3   OH211551   4.667   5.705   4.667
 3869TIP3    H111552   4.610   5.781   4.671
 3869TIP3    H211553   4.661   5.665   4.754
 3870TIP3   OH211554   8.233   1.552   4.188
 3870TIP3    H111555   8.146   1.533   4.153
 3870TIP3    H211556   8.251   1.642   4.162
 3871TIP3   OH211557   0.090   2.565   2.936
 3871TIP3    H111558   0.100   2.565   2.840
 3871TIP3    H211559   0.013   2.619   2.952
 3872TIP3   OH211560   5.734   5.739   3.669
 3872TIP3    H111561   5.770   5.784   3.745
 3872TIP3    H211562   5.671   5.677   3.705
 3873TIP3   OH211563   2.900   1.022   2.809
 3873TIP3    H111564   2.929   1.019   2.900
 3873TIP3    H211565   2.958   1.085   2.767
 3874TIP3   OH211566   6.643   4.946   1.902
 3874TIP3    H111567   6.553   4.916   1.897
 3874TIP3    H211568   6.662   4.978   1.813
 3875TIP3   OH211569   0.846   0.995   1.756
 3875TIP3    H111570   0.818   0.913   1.716
 3875TIP3    H211571   0.885   0.969   1.839
 3876TIP3   OH211572   1.335   4.443   6.022
 3876TIP3    H111573   1.321   4.366   5.966
 3876TIP3    H211574   1.428   4.442   6.040
 3877TIP3   OH211575   5.066   0.083   4.413
 3877TIP3    H111576   5.159   0.078   4.391
 3877TIP3    H211577   5.031   0.149   4.353
 3878TIP3   OH211578   4.964   1.123   0.291
 3878TIP3    H111579   4.870   1.108   0.299
 3878TIP3    H211580   4.980   1.128   0.197
 3879TIP3   OH211581   3.830   4.139   0.967
 3879TIP3    H111582   3.830   4.074   1.037
 3879TIP3    H211583   3.922   4.144   0.939
 3880TIP3   OH211584   5.124   4.825   1.524
 3880TIP3    H111585   5.140   4.761   1.454
 3880TIP3    H211586   5.029   4.841   1.520
 3881TIP3   OH211587   4.093   4.247   2.624
 3881TIP3    H111588   4.165   4.305   2.598
 3881TIP3    H211589   4.016   4.303   2.623
 3882TIP3   OH211590   5.148   7.638   0.527
 3882TIP3    H111591   5.148   7.720   0.577
 3882TIP3    H211592   5.070   7.592   0.555
 3883TIP3   OH211593   3.881   7.707   6.376
 3883TIP3    H111594   3.920   7.628   6.414
 3883TIP3    H211595   3.790   7.685   6.361
 3884TIP3   OH211596   6.810   5.257   3.278
 3884TIP3    H111597   6.757   5.281   3.201
 3884TIP3    H211598   6.748   5.255   3.350
 3885TIP3   OH211599   8.144   3.618   6.361
 3885TIP3    H111600   8.080   3.563   6.405
 3885TIP3    H211601   8.206   3.556   6.323
 3886TIP3   OH211602   1.848   6.557   0.108
 3886TIP3    H111603   1.813   6.471   0.132
 3886TIP3    H211604   1.832   6.564   0.014
 3887TIP3   OH211605   3.825   0.274   3.684
 3887TIP3    H111606   3.823   0.369   3.691
 3887TIP3    H211607   3.750   0.251   3.630
 3888TIP3   OH211608   2.597   4.958   6.445
 3888TIP3    H111609   2.524   5.019   6.452
 3888TIP3    H211610   2.674   5.013   6.431
 3889TIP3   OH211611   7.820   3.456   5.857
 3889TIP3    H111612   7.787   3.425   5.773
 3889TIP3    H211613   7.877   3.386   5.888
 3890TIP3   OH211614   7.666   6.078   0.122
 3890TIP3    H111615   7.609   6.154   0.113
 3890TIP3    H211616   7.606   6.003   0.120
 3891TIP3   OH211617   3.154   0.558   4.410
 3891TIP3    H111618   3.110   0.485   4.454
 3891TIP3    H211619   3.082   0.610   4.373
 3892TIP3   OH211620   4.932   4.805   2.709
 3892TIP3    H111621   4.983   4.881   2.736
 3892TIP3    H211622   4.991   4.731   2.721
 3893TIP3   OH211623   6.917   0.735  -0.028
 3893TIP3    H111624   6.934   0.664   0.034
 3893TIP3    H211625   6.920   0.815   0.024
 3894TIP3   OH211626   2.629   1.676   4.387
 3894TIP3    H111627   2.723   1.659   4.398
 3894TIP3    H211628   2.624   1.726   4.305
 3895TIP3   OH211629   4.052   2.011   0.345
 3895TIP3    H111630   4.143   2.030   0.364
 3895TIP3    H211631   4.005   2.034   0.425
 3896TIP3   OH211632   3.377   2.508   1.204
 3896TIP3    H111633   3.416   2.592   1.181
 3896TIP3    H211634   3.445   2.462   1.254
 3897TIP3   OH211635   0.530   5.430   6.318
 3897TIP3    H111636   0.519   5.421   6.412
 3897TIP3    H211637   0.623   5.453   6.307
 3898TIP3   OH211638   5.583   6.526   1.743
 3898TIP3    H111639   5.674   6.518   1.773
 3898TIP3    H211640   5.581   6.608   1.694
 3899TIP3   OH211641   0.409   6.132   0.459
 3899TIP3    H111642   0.419   6.161   0.549
 3899TIP3    H211643   0.386   6.211   0.410
 3900TIP3   OH211644   4.975   5.719   0.760
 3900TIP3    H111645   4.988   5.742   0.668
 3900TIP3    H211646   5.014   5.792   0.809
 3901TIP3   OH211647   4.312   1.989   3.472
 3901TIP3    H111648   4.255   1.953   3.539
 3901TIP3    H211649   4.363   1.915   3.441
 3902TIP3   OH211650   4.719   2.310   0.196
 3902TIP3    H111651   4.755   2.341   0.113
 3902TIP3    H211652   4.742   2.378   0.259
 3903TIP3   OH211653   3.625   1.229   1.937
 3903TIP3    H111654   3.628   1.204   2.030
 3903TIP3    H211655   3.679   1.307   1.932
 3904TIP3   OH211656   7.986   6.405   1.515
 3904TIP3    H111657   8.066   6.413   1.463
 3904TIP3    H211658   7.951   6.495   1.518
 3905TIP3   OH211659   3.643   4.052   2.299
 3905TIP3    H111660   3.625   4.146   2.292
 3905TIP3    H211661   3.727   4.046   2.344
 3906TIP3   OH211662   2.590   0.023   0.199
 3906TIP3    H111663   2.651  -0.003   0.268
 3906TIP3    H211664   2.569   0.114   0.219
 3907TIP3   OH211665   0.371   1.300   5.523
 3907TIP3    H111666   0.280   1.317   5.548
 3907TIP3    H211667   0.384   1.207   5.542
 3908TIP3   OH211668   0.182   6.984   0.588
 3908TIP3    H111669   0.215   6.961   0.502
 3908TIP3    H211670   0.247   6.949   0.649
 3909TIP3   OH211671   7.102   0.253   5.052
 3909TIP3    H111672   7.081   0.287   4.965
 3909TIP3    H211673   7.078   0.323   5.112
 3910TIP3   OH211674   3.172   6.162   3.948
 3910TIP3    H111675   3.255   6.118   3.967
 3910TIP3    H211676   3.138   6.117   3.871
 3911TIP3   OH211677   8.092   1.450   3.584
 3911TIP3    H111678   8.114   1.396   3.659
 3911TIP3    H211679   8.091   1.390   3.510
 3912TIP3   OH211680   5.719   4.039   3.523
 3912TIP3    H111681   5.717   4.001   3.610
 3912TIP3    H211682   5.733   4.132   3.538
 3913TIP3   OH211683   2.109   4.401   1.663
 3913TIP3    H111684   2.059   4.433   1.738
 3913TIP3    H211685   2.147   4.479   1.624
 3914TIP3   OH211686   2.286   0.243   4.678
 3914TIP3    H111687   2.258   0.174   4.618
 3914TIP3    H211688   2.286   0.202   4.764
 3915TIP3   OH211689   5.634   1.917   3.143
 3915TIP3    H111690   5.657   2.007   3.122
 3915TIP3    H211691   5.540   1.911   3.126
 3916TIP3   OH211692   2.429   6.911   6.709
 3916TIP3    H111693   2.389   6.986   6.752
 3916TIP3    H211694   2.480   6.949   6.638
 3917TIP3   OH211695   5.212   5.698   5.998
 3917TIP3    H111696   5.259   5.730   5.921
 3917TIP3    H211697   5.202   5.775   6.053
 3918TIP3   OH211698   3.933   1.965   3.534
 3918TIP3    H111699   3.974   2.041   3.493
 3918TIP3    H211700   3.996   1.936   3.600
 3919TIP3   OH211701   8.087   6.570   3.629
 3919TIP3    H111702   8.073   6.634   3.558
 3919TIP3    H211703   8.009   6.515   3.625
 3920TIP3   OH211704   4.807   2.471   5.012
 3920TIP3    H111705   4.901   2.486   5.025
 3920TIP3    H211706   4.776   2.553   4.973
 3921TIP3   OH211707   6.153   7.267   0.146
 3921TIP3    H111708   6.071   7.226   0.119
 3921TIP3    H211709   6.204   7.276   0.065
 3922TIP3   OH211710   7.431   4.178   5.913
 3922TIP3    H111711   7.367   4.107   5.926
 3922TIP3    H211712   7.516   4.135   5.923
 3923TIP3   OH211713   4.579   4.189   5.826
 3923TIP3    H111714   4.599   4.191   5.920
 3923TIP3    H211715   4.495   4.145   5.820
 3924TIP3   OH211716   3.657   0.312   4.812
 3924TIP3    H111717   3.710   0.383   4.775
 3924TIP3    H211718   3.681   0.235   4.760
 3925TIP3   OH211719   6.354   3.105   2.569
 3925TIP3    H111720   6.386   3.170   2.631
 3925TIP3    H211721   6.376   3.141   2.483
 3926TIP3   OH211722   0.753   2.278   2.307
 3926TIP3    H111723   0.816   2.263   2.378
 3926TIP3    H211724   0.669   2.253   2.344
 3927TIP3   OH211725   2.643   0.820   1.799
 3927TIP3    H111726   2.716   0.837   1.739
 3927TIP3    H211727   2.679   0.763   1.866
 3928TIP3   OH211728   8.008   1.349   6.676
 3928TIP3    H111729   7.972   1.340   6.765
 3928TIP3    H211730   8.006   1.443   6.659
 3929TIP3   OH211731   6.284   1.583   0.782
 3929TIP3    H111732   6.371   1.615   0.805
 3929TIP3    H211733   6.300   1.502   0.734
 3930TIP3   OH211734   1.048   4.178   1.399
 3930TIP3    H111735   1.101   4.237   1.346
 3930TIP3    H211736   1.079   4.090   1.376
 3931TIP3   OH211737   1.240   1.006   2.160
 3931TIP3    H111738   1.162   0.959   2.191
 3931TIP3    H211739   1.217   1.099   2.168
 3932TIP3   OH211740   2.774   2.616   5.156
 3932TIP3    H111741   2.842   2.600   5.090
 3932TIP3    H211742   2.807   2.691   5.206
 3933TIP3   OH211743   6.566   2.252   5.659
 3933TIP3    H111744   6.645   2.212   5.694
 3933TIP3    H211745   6.516   2.279   5.736
 3934TIP3   OH211746   3.839   4.189   4.605
 3934TIP3    H111747   3.789   4.241   4.541
 3934TIP3    H211748   3.796   4.207   4.689
 3935TIP3   OH211749   5.220   5.703   6.388
 3935TIP3    H111750   5.207   5.677   6.479
 3935TIP3    H211751   5.164   5.642   6.338
 3936TIP3   OH211752   4.962   4.696   5.682
 3936TIP3    H111753   4.885   4.747   5.659
 3936TIP3    H211754   4.928   4.626   5.739
 3937TIP3   OH211755   7.200   5.628   1.320
 3937TIP3    H111756   7.156   5.567   1.378
 3937TIP3    H211757   7.290   5.597   1.316
 3938TIP3   OH211758   4.388   0.817   2.871
 3938TIP3    H111759   4.418   0.871   2.797
 3938TIP3    H211760   4.299   0.848   2.889
 3939TIP3   OH211761   4.553   0.977   5.322
 3939TIP3    H111762   4.572   0.901   5.378
 3939TIP3    H211763   4.563   1.053   5.379
 3940TIP3   OH211764   1.463   3.139   0.366
 3940TIP3    H111765   1.413   3.113   0.289
 3940TIP3    H211766   1.404   3.197   0.415
 3941TIP3   OH211767   1.368   7.671   1.870
 3941TIP3    H111768   1.273   7.683   1.857
 3941TIP3    H211769   1.407   7.752   1.837
 3942TIP3   OH211770   5.329   5.003   5.096
 3942TIP3    H111771   5.323   4.912   5.065
 3942TIP3    H211772   5.322   4.996   5.191
 3943TIP3   OH211773   5.213   4.031   0.299
 3943TIP3    H111774   5.176   4.077   0.224
 3943TIP3    H211775   5.150   4.046   0.370
 3944TIP3   OH211776   4.899   2.715   4.535
 3944TIP3    H111777   4.967   2.661   4.575
 3944TIP3    H211778   4.856   2.658   4.472
 3945TIP3   OH211779   3.288   7.475   6.064
 3945TIP3    H111780   3.324   7.409   6.005
 3945TIP3    H211781   3.313   7.446   6.152
 3946TIP3   OH211782   0.270   7.143   0.274
 3946TIP3    H111783   0.323   7.090   0.214
 3946TIP3    H211784   0.327   7.159   0.349
 3947TIP3   OH211785   7.904   5.666   6.609
 3947TIP3    H111786   7.952   5.607   6.666
 3947TIP3    H211787   7.912   5.628   6.521
 3948TIP3   OH211788   4.702   6.009   5.884
 3948TIP3    H111789   4.652   6.090   5.886
 3948TIP3    H211790   4.676   5.962   5.964
 3949TIP3   OH211791   5.552   0.959   3.315
 3949TIP3    H111792   5.572   1.009   3.236
 3949TIP3    H211793   5.472   0.912   3.293
 3950TIP3   OH211794   0.810   0.188   0.421
 3950TIP3    H111795   0.902   0.163   0.409
 3950TIP3    H211796   0.777   0.127   0.487
 3951TIP3   OH211797   6.560   6.528   4.506
 3951TIP3    H111798   6.552   6.477   4.586
 3951TIP3    H211799   6.649   6.511   4.475
 3952TIP3   OH211800   7.310   3.429   2.875
 3952TIP3    H111801   7.350   3.344   2.862
 3952TIP3    H211802   7.373   3.478   2.928
 3953TIP3   OH211803   2.726   0.725   4.669
 3953TIP3    H111804   2.720   0.686   4.582
 3953TIP3    H211805   2.686   0.660   4.727
 3954TIP3   OH211806   2.745   6.155   2.609
 3954TIP3    H111807   2.824   6.103   2.595
 3954TIP3    H211808   2.705   6.117   2.688
 3955TIP3   OH211809   6.331   2.846   5.989
 3955TIP3    H111810   6.317   2.940   5.983
 3955TIP3    H211811   6.376   2.823   5.907
 3956TIP3   OH211812   1.610   1.032   4.874
 3956TIP3    H111813   1.673   1.103   4.870
 3956TIP3    H211814   1.663   0.952   4.864
 3957TIP3   OH211815   3.824   1.948   1.227
 3957TIP3    H111816   3.780   1.930   1.143
 3957TIP3    H211817   3.844   2.042   1.224
 3958TIP3   OH211818   2.540   7.190   3.829
 3958TIP3    H111819   2.465   7.220   3.778
 3958TIP3    H211820   2.508   7.188   3.919
 3959TIP3   OH211821   6.826   4.503   4.581
 3959TIP3    H111822   6.841   4.590   4.618
 3959TIP3    H211823   6.805   4.448   4.656
 3960TIP3   OH211824   6.060   3.181   2.915
 3960TIP3    H111825   6.016   3.105   2.878
 3960TIP3    H211826   6.087   3.233   2.839
 3961TIP3   OH211827   1.827   2.479   6.261
 3961TIP3    H111828   1.857   2.390   6.243
 3961TIP3    H211829   1.907   2.529   6.278
 3962TIP3   OH211830   3.217   6.402   3.130
 3962TIP3    H111831   3.312   6.413   3.129
 3962TIP3    H211832   3.189   6.439   3.213
 3963TIP3   OH211833   5.658   0.740   1.194
 3963TIP3    H111834   5.602   0.817   1.205
 3963TIP3    H211835   5.636   0.707   1.107
 3964TIP3   OH211836   2.394   4.544   5.693
 3964TIP3    H111837   2.322   4.512   5.637
 3964TIP3    H211838   2.473   4.524   5.643
 3965TIP3   OH211839   4.811   2.893   0.251
 3965TIP3    H111840   4.718   2.910   0.260
 3965TIP3    H211841   4.826   2.891   0.156
 3966TIP3   OH211842   5.042   3.839   3.168
 3966TIP3    H111843   5.024   3.932   3.154
 3966TIP3    H211844   4.960   3.804   3.202
 3967TIP3   OH211845   6.146   7.445   1.268
 3967TIP3    H111846   6.085   7.484   1.205
 3967TIP3    H211847   6.218   7.509   1.275
 3968TIP3   OH211848   4.429   2.737   4.929
 3968TIP3    H111849   4.363   2.700   4.870
 3968TIP3    H211850   4.386   2.813   4.968
 3969TIP3   OH211851   1.571   5.308   6.603
 3969TIP3    H111852   1.500   5.366   6.632
 3969TIP3    H211853   1.526   5.230   6.571
 3970TIP3   OH211854   7.749   4.526   4.773
 3970TIP3    H111855   7.806   4.451   4.789
 3970TIP3    H211856   7.697   4.534   4.853
 3971TIP3   OH211857   1.693   5.426   1.419
 3971TIP3    H111858   1.713   5.478   1.497
 3971TIP3    H211859   1.617   5.470   1.380
 3972TIP3   OH211860   1.240   3.511   0.359
 3972TIP3    H111861   1.281   3.598   0.353
 3972TIP3    H211862   1.259   3.470   0.275
 3973TIP3   OH211863   1.391   0.595   3.331
 3973TIP3    H111864   1.332   0.639   3.271
 3973TIP3    H211865   1.336   0.533   3.379
 3974TIP3   OH211866   4.614   1.245   2.527
 3974TIP3    H111867   4.664   1.321   2.556
 3974TIP3    H211868   4.522   1.271   2.541
 3975TIP3   OH211869   7.631   3.724   4.797
 3975TIP3    H111870   7.721   3.720   4.763
 3975TIP3    H211871   7.637   3.778   4.875
 3976TIP3   OH211872   2.802   2.810   4.603
 3976TIP3    H111873   2.888   2.827   4.563
 3976TIP3    H211874   2.803   2.716   4.622
 3977TIP3   OH211875   3.408   6.891   1.882
 3977TIP3    H111876   3.433   6.896   1.974
 3977TIP3    H211877   3.489   6.907   1.834
 3978TIP3   OH211878   8.099   7.518   6.697
 3978TIP3    H111879   8.107   7.527   6.792
 3978TIP3    H211880   8.185   7.541   6.663
 3979TIP3   OH211881   3.181   4.141   0.551
 3979TIP3    H111882   3.233   4.073   0.595
 3979TIP3    H211883   3.120   4.092   0.495
 3980TIP3   OH211884   7.014   2.670   4.124
 3980TIP3    H111885   7.099   2.654   4.165
 3980TIP3    H211886   7.011   2.765   4.110
 3981TIP3   OH211887   0.547   5.064   6.283
 3981TIP3    H111888   0.591   5.117   6.351
 3981TIP3    H211889   0.538   4.978   6.323
 3982TIP3   OH211890   3.464   1.396   4.219
 3982TIP3    H111891   3.448   1.302   4.230
 3982TIP3    H211892   3.378   1.432   4.198
 3983TIP3   OH211893   1.333   2.999   0.156
 3983TIP3    H111894   1.356   2.986   0.064
 3983TIP3    H211895   1.378   2.929   0.202
 3984TIP3   OH211896   0.745   3.482   4.973
 3984TIP3    H111897   0.722   3.509   4.884
 3984TIP3    H211898   0.791   3.399   4.961
 3985TIP3   OH211899   4.219   6.849   4.472
 3985TIP3    H111900   4.313   6.861   4.490
 3985TIP3    H211901   4.198   6.763   4.508
 3986TIP3   OH211902   7.669   3.377   4.810
 3986TIP3    H111903   7.584   3.338   4.829
 3986TIP3    H211904   7.651   3.443   4.743
 3987TIP3   OH211905   1.571   2.015   6.360
 3987TIP3    H111906   1.605   2.102   6.380
 3987TIP3    H211907   1.533   1.985   6.443
 3988TIP3   OH211908   0.760   3.710   5.909
 3988TIP3    H111909   0.753   3.722   5.814
 3988TIP3    H211910   0.705   3.633   5.927
 3989TIP3   OH211911   2.619   2.206   2.723
 3989TIP3    H111912   2.695   2.263   2.726
 3989TIP3    H211913   2.582   2.219   2.635
 3990TIP3   OH211914   0.783   3.087   6.730
 3990TIP3    H111915   0.693   3.094   6.761
 3990TIP3    H211916   0.795   3.161   6.671
 3991TIP3   OH211917   6.258   4.079   3.288
 3991TIP3    H111918   6.308   4.067   3.208
 3991TIP3    H211919   6.167   4.085   3.259
 3992TIP3   OH211920   6.758   7.564   1.150
 3992TIP3    H111921   6.691   7.627   1.125
 3992TIP3    H211922   6.781   7.519   1.068
 3993TIP3   OH211923   1.281   7.009   0.259
 3993TIP3    H111924   1.210   6.945   0.250
 3993TIP3    H211925   1.297   7.013   0.353
 3994TIP3   OH211926   0.065   3.524   3.856
 3994TIP3    H111927   0.053   3.505   3.763
 3994TIP3    H211928   0.123   3.600   3.858
 3995TIP3   OH211929   1.469   3.728   0.277
 3995TIP3    H111930   1.491   3.649   0.227
 3995TIP3    H211931   1.528   3.725   0.353
 3996TIP3   OH211932   6.675   0.251   3.189
 3996TIP3    H111933   6.653   0.170   3.236
 3996TIP3    H211934   6.594   0.273   3.142
 3997TIP3   OH211935   7.810   0.655   3.702
 3997TIP3    H111936   7.833   0.581   3.758
 3997TIP3    H211937   7.833   0.627   3.614
 3998TIP3   OH211938   1.086   2.869   1.825
 3998TIP3    H111939   1.116   2.799   1.882
 3998TIP3    H211940   1.147   2.941   1.842
 3999TIP3   OH211941   4.697   1.353   3.151
 3999TIP3    H111942   4.718   1.272   3.105
 3999TIP3    H211943   4.618   1.332   3.201
 4000TIP3   OH211944   1.424   7.092   1.288
 4000TIP3    H111945   1.402   7.179   1.322
 4000TIP3    H211946   1.340   7.048   1.279
 4001TIP3   OH211947   6.375   0.295   5.360
 4001TIP3    H111948   6.284   0.322   5.356
 4001TIP3    H211949   6.386   0.261   5.449
 4002TIP3   OH211950   6.884   0.540   0.734
 4002TIP3    H111951   6.920   0.594   0.663
 4002TIP3    H211952   6.907   0.450   0.710
 4003TIP3   OH211953   1.103   5.461   2.856
 4003TIP3    H111954   1.112   5.491   2.766
 4003TIP3    H211955   1.182   5.409   2.872
 4004TIP3   OH211956   7.261   4.235   4.767
 4004TIP3    H111957   7.340   4.262   4.813
 4004TIP3    H211958   7.292   4.189   4.690
 4005TIP3   OH211959   2.084   2.025   0.416
 4005TIP3    H111960   2.160   2.063   0.372
 4005TIP3    H211961   2.008   2.065   0.373
 4006TIP3   OH211962   6.712   2.903   2.381
 4006TIP3    H111963   6.773   2.865   2.444
 4006TIP3    H211964   6.757   2.894   2.296
 4007TIP3   OH211965   0.321   7.333   3.067
 4007TIP3    H111966   0.319   7.242   3.097
 4007TIP3    H211967   0.411   7.347   3.039
 4008TIP3   OH211968   5.634   7.540   6.616
 4008TIP3    H111969   5.572   7.529   6.544
 4008TIP3    H211970   5.715   7.500   6.584
 4009TIP3   OH211971   1.444   0.989   3.792
 4009TIP3    H111972   1.413   0.945   3.713
 4009TIP3    H211973   1.395   1.071   3.794
 4010TIP3   OH211974   2.763   3.271   6.321
 4010TIP3    H111975   2.697   3.232   6.263
 4010TIP3    H211976   2.777   3.358   6.286
 4011TIP3   OH211977   2.648   2.069   6.059
 4011TIP3    H111978   2.569   2.083   6.006
 4011TIP3    H211979   2.719   2.062   5.995
 4012TIP3   OH211980   3.409   1.886   2.665
 4012TIP3    H111981   3.485   1.904   2.610
 4012TIP3    H211982   3.411   1.954   2.732
 4013TIP3   OH211983   0.608   7.082   3.157
 4013TIP3    H111984   0.640   6.995   3.178
 4013TIP3    H211985   0.687   7.133   3.139
 4014TIP3   OH211986   5.234   2.898   3.926
 4014TIP3    H111987   5.172   2.945   3.981
 4014TIP3    H211988   5.202   2.808   3.925
 4015TIP3   OH211989   4.263   4.733   0.349
 4015TIP3    H111990   4.342   4.716   0.298
 4015TIP3    H211991   4.287   4.805   0.407
 4016TIP3   OH211992   6.356   0.841   6.009
 4016TIP3    H111993   6.325   0.886   6.088
 4016TIP3    H211994   6.374   0.752   6.038
 4017TIP3   OH211995   6.363   7.537   2.783
 4017TIP3    H111996   6.444   7.496   2.752
 4017TIP3    H211997   6.387   7.578   2.866
 4018TIP3   OH211998   5.687   6.568   4.629
 4018TIP3    H111999   5.735   6.583   4.548
 4018TIP3    H212000   5.754   6.537   4.691
 4019TIP3   OH212001   1.067   6.641   4.765
 4019TIP3    H112002   0.984   6.657   4.810
 4019TIP3    H212003   1.132   6.637   4.835
 4020TIP3   OH212004   4.621   1.203   1.032
 4020TIP3    H112005   4.687   1.160   0.978
 4020TIP3    H212006   4.569   1.131   1.068
 4021TIP3   OH212007   0.806   1.453   1.591
 4021TIP3    H112008   0.711   1.465   1.586
 4021TIP3    H212009   0.822   1.367   1.553
 4022TIP3   OH212010   0.791   1.022   4.167
 4022TIP3    H112011   0.742   1.076   4.105
 4022TIP3    H212012   0.733   0.949   4.187
 4023TIP3   OH212013   6.529   6.252   2.384
 4023TIP3    H112014   6.480   6.267   2.303
 4023TIP3    H212015   6.619   6.240   2.354
 4024TIP3   OH212016   1.050   6.911   1.643
 4024TIP3    H112017   1.034   6.817   1.650
 4024TIP3    H212018   1.145   6.920   1.650
 4025TIP3   OH212019   5.656   1.730   6.303
 4025TIP3    H112020   5.675   1.692   6.389
 4025TIP3    H212021   5.574   1.688   6.276
 4026TIP3   OH212022   6.568   5.504   0.512
 4026TIP3    H112023   6.646   5.558   0.521
 4026TIP3    H212024   6.600   5.414   0.518
 4027TIP3   OH212025   7.967   1.203   0.049
 4027TIP3    H112026   7.957   1.140  -0.022
 4027TIP3    H212027   8.059   1.229   0.045
 4028TIP3   OH212028   6.536   0.585   3.758
 4028TIP3    H112029   6.481   0.530   3.814
 4028TIP3    H212030   6.475   0.646   3.716
 4029TIP3   OH212031   7.024   7.041   1.007
 4029TIP3    H112032   6.997   6.976   0.942
 4029TIP3    H212033   7.078   6.991   1.068
 4030TIP3   OH212034   7.899   5.354   3.412
 4030TIP3    H112035   7.957   5.373   3.486
 4030TIP3    H212036   7.954   5.306   3.350
 4031TIP3   OH212037   6.111   1.279   2.414
 4031TIP3    H112038   6.018   1.263   2.400
 4031TIP3    H212039   6.156   1.213   2.360
 4032TIP3   OH212040   7.821   3.431   5.464
 4032TIP3    H112041   7.905   3.475   5.476
 4032TIP3    H212042   7.755   3.499   5.479
 4033TIP3   OH212043   1.753   3.477   4.393
 4033TIP3    H112044   1.757   3.528   4.474
 4033TIP3    H212045   1.820   3.515   4.337
 4034TIP3   OH212046   5.545   1.500   3.996
 4034TIP3    H112047   5.635   1.469   3.993
 4034TIP3    H212048   5.498   1.444   3.934
 4035TIP3   OH212049   6.612   1.637   2.414
 4035TIP3    H112050   6.620   1.669   2.504
 4035TIP3    H212051   6.554   1.561   2.421
 4036TIP3   OH212052   7.981   3.400   2.288
 4036TIP3    H112053   8.066   3.437   2.314
 4036TIP3    H212054   7.988   3.308   2.311
 4037TIP3   OH212055   2.096   4.639   4.831
 4037TIP3    H112056   2.178   4.589   4.827
 4037TIP3    H212057   2.040   4.587   4.888
 4038TIP3   OH212058   2.418   0.038   6.539
 4038TIP3    H112059   2.422   0.133   6.528
 4038TIP3    H212060   2.377   0.025   6.624
 4039TIP3   OH212061   5.816   3.948   1.988
 4039TIP3    H112062   5.903   3.952   2.027
 4039TIP3    H212063   5.787   4.039   1.984
 4040TIP3   OH212064   4.375   2.239   6.564
 4040TIP3    H112065   4.421   2.155   6.563
 4040TIP3    H212066   4.324   2.238   6.645
 4041TIP3   OH212067   6.793   0.638   1.013
 4041TIP3    H112068   6.779   0.557   1.063
 4041TIP3    H212069   6.831   0.608   0.930
 4042TIP3   OH212070   3.554   7.342   3.427
 4042TIP3    H112071   3.486   7.377   3.484
 4042TIP3    H212072   3.571   7.255   3.463
 4043TIP3   OH212073   6.775   3.503   5.049
 4043TIP3    H112074   6.716   3.427   5.041
 4043TIP3    H212075   6.774   3.544   4.963
 4044TIP3   OH212076   3.904   5.848   5.868
 4044TIP3    H112077   3.878   5.764   5.829
 4044TIP3    H212078   3.880   5.913   5.801
 4045TIP3   OH212079   1.206   4.752   4.560
 4045TIP3    H112080   1.281   4.739   4.503
 4045TIP3    H212081   1.170   4.837   4.533
 4046TIP3   OH212082   1.732   4.615   5.477
 4046TIP3    H112083   1.662   4.679   5.465
 4046TIP3    H212084   1.808   4.666   5.502
 4047TIP3   OH212085   0.664   4.402   3.284
 4047TIP3    H112086   0.744   4.364   3.321
 4047TIP3    H212087   0.593   4.362   3.333
 4048TIP3   OH212088   4.057   0.392   2.897
 4048TIP3    H112089   4.138   0.411   2.850
 4048TIP3    H212090   4.002   0.346   2.834
 4049TIP3   OH212091   6.480   1.349   5.155
 4049TIP3    H112092   6.403   1.370   5.208
 4049TIP3    H212093   6.462   1.263   5.118
 4050TIP3   OH212094   2.495   5.901   5.159
 4050TIP3    H112095   2.473   5.928   5.249
 4050TIP3    H212096   2.413   5.865   5.125
 4051TIP3   OH212097   7.244   4.779   3.911
 4051TIP3    H112098   7.221   4.872   3.916
 4051TIP3    H212099   7.203   4.740   3.987
 4052TIP3   OH212100   2.924   6.238   4.028
 4052TIP3    H112101   2.918   6.206   4.118
 4052TIP3    H212102   3.015   6.221   4.003
 4053TIP3   OH212103   5.706   3.209   0.778
 4053TIP3    H112104   5.734   3.226   0.688
 4053TIP3    H212105   5.766   3.141   0.809
 4054TIP3   OH212106   0.400   0.851   3.372
 4054TIP3    H112107   0.479   0.900   3.347
 4054TIP3    H212108   0.417   0.823   3.462
 4055TIP3   OH212109   2.798   4.695   0.556
 4055TIP3    H112110   2.876   4.739   0.521
 4055TIP3    H212111   2.801   4.713   0.650
 4056TIP3   OH212112   6.417   1.115   6.521
 4056TIP3    H112113   6.325   1.139   6.516
 4056TIP3    H212114   6.444   1.139   6.609
 4057TIP3   OH212115   2.675   0.842   0.751
 4057TIP3    H112116   2.587   0.873   0.728
 4057TIP3    H212117   2.660   0.775   0.818
 4058TIP3   OH212118   5.140   7.776   4.856
 4058TIP3    H112119   5.061   7.733   4.822
 4058TIP3    H212120   5.212   7.734   4.809
 4059TIP3   OH212121   3.149   1.417   2.870
 4059TIP3    H112122   3.151   1.509   2.846
 4059TIP3    H212123   3.063   1.404   2.909
 4060TIP3   OH212124   2.946   2.495   4.818
 4060TIP3    H112125   2.963   2.581   4.856
 4060TIP3    H212126   2.915   2.512   4.730
 4061TIP3   OH212127   3.354   3.834   5.600
 4061TIP3    H112128   3.415   3.894   5.643
 4061TIP3    H212129   3.404   3.753   5.589
 4062TIP3   OH212130   3.158   5.140   1.060
 4062TIP3    H112131   3.069   5.107   1.073
 4062TIP3    H212132   3.167   5.210   1.125
 4063TIP3   OH212133   4.007   7.722   0.557
 4063TIP3    H112134   4.098   7.739   0.584
 4063TIP3    H212135   4.005   7.629   0.537
 4064TIP3   OH212136   5.034   2.875   5.987
 4064TIP3    H112137   5.062   2.910   6.072
 4064TIP3    H212138   4.953   2.923   5.967
 4065TIP3   OH212139   5.210   2.448   3.367
 4065TIP3    H112140   5.288   2.440   3.423
 4065TIP3    H212141   5.218   2.535   3.328
 4066TIP3   OH212142   0.188   6.733   3.950
 4066TIP3    H112143   0.095   6.737   3.926
 4066TIP3    H212144   0.200   6.645   3.986
 4067TIP3   OH212145   3.989   7.727   4.556
 4067TIP3    H112146   4.080   7.696   4.552
 4067TIP3    H212147   3.996   7.821   4.539
 4068TIP3   OH212148   4.489   2.872   5.699
 4068TIP3    H112149   4.551   2.920   5.644
 4068TIP3    H212150   4.456   2.802   5.642
 4069TIP3   OH212151   3.285   5.687   4.131
 4069TIP3    H112152   3.211   5.741   4.101
 4069TIP3    H212153   3.301   5.717   4.220
 4070TIP3   OH212154   6.177   1.192   4.800
 4070TIP3    H112155   6.099   1.219   4.751
 4070TIP3    H212156   6.188   1.100   4.778
 4071TIP3   OH212157   1.590   0.515   1.087
 4071TIP3    H112158   1.573   0.430   1.126
 4071TIP3    H212159   1.648   0.496   1.013
 4072TIP3   OH212160   0.647   6.626   5.550
 4072TIP3    H112161   0.592   6.553   5.576
 4072TIP3    H212162   0.599   6.704   5.578
 4073TIP3   OH212163   4.708   3.040   2.845
 4073TIP3    H112164   4.621   3.077   2.858
 4073TIP3    H212165   4.692   2.959   2.795
 4074TIP3   OH212166   3.453   2.686   6.728
 4074TIP3    H112167   3.358   2.694   6.734
 4074TIP3    H212168   3.485   2.774   6.750
 4075TIP3   OH212169   7.126   2.405   4.821
 4075TIP3    H112170   7.196   2.349   4.856
 4075TIP3    H212171   7.123   2.383   4.727
 4076TIP3   OH212172   4.098   7.515   5.041
 4076TIP3    H112173   4.035   7.451   5.007
 4076TIP3    H212174   4.046   7.573   5.097
 4077TIP3   OH212175   2.417   5.489   3.954
 4077TIP3    H112176   2.392   5.497   3.862
 4077TIP3    H212177   2.395   5.399   3.977
 4078TIP3   OH212178   4.950   3.623   6.271
 4078TIP3    H112179   4.995   3.540   6.284
 4078TIP3    H212180   4.906   3.614   6.187
 4079TIP3   OH212181   7.989   5.652   4.994
 4079TIP3    H112182   7.959   5.707   5.067
 4079TIP3    H212183   8.083   5.667   4.990
 4080TIP3   OH212184   5.281   1.047   0.119
 4080TIP3    H112185   5.232   1.126   0.097
 4080TIP3    H212186   5.219   0.994   0.170
 4081TIP3   OH212187   1.974   0.945   0.734
 4081TIP3    H112188   1.965   1.022   0.677
 4081TIP3    H212189   2.067   0.942   0.755
 4082TIP3   OH212190   7.950   6.325   2.434
 4082TIP3    H112191   7.956   6.319   2.529
 4082TIP3    H212192   7.976   6.416   2.414
 4083TIP3   OH212193   7.415   0.729   4.767
 4083TIP3    H112194   7.481   0.762   4.706
 4083TIP3    H212195   7.355   0.678   4.712
 4084TIP3   OH212196   0.498   4.822   4.783
 4084TIP3    H112197   0.450   4.838   4.702
 4084TIP3    H212198   0.480   4.730   4.804
 4085TIP3   OH212199   1.023   7.037   0.715
 4085TIP3    H112200   0.972   7.006   0.640
 4085TIP3    H212201   0.982   6.995   0.791
 4086TIP3   OH212202   0.204   2.593   5.702
 4086TIP3    H112203   0.235   2.672   5.747
 4086TIP3    H212204   0.128   2.623   5.651
 4087TIP3   OH212205   5.526   0.937   0.131
 4087TIP3    H112206   5.443   0.983   0.117
 4087TIP3    H212207   5.585   0.974   0.066
 4088TIP3   OH212208   5.012   2.512   1.762
 4088TIP3    H112209   5.085   2.468   1.804
 4088TIP3    H212210   5.030   2.605   1.773
 4089TIP3   OH212211   3.811   3.356   5.667
 4089TIP3    H112212   3.873   3.351   5.740
 4089TIP3    H212213   3.827   3.277   5.616
 4090TIP3   OH212214   3.121   2.740   3.969
 4090TIP3    H112215   3.148   2.650   3.952
 4090TIP3    H212216   3.029   2.744   3.940
 4091TIP3   OH212217   7.459   3.329   1.189
 4091TIP3    H112218   7.486   3.390   1.120
 4091TIP3    H212219   7.365   3.344   1.199
 4092TIP3   OH212220   5.855   3.131   5.928
 4092TIP3    H112221   5.903   3.112   5.848
 4092TIP3    H212222   5.801   3.207   5.907
 4093TIP3   OH212223   1.672   1.042   4.559
 4093TIP3    H112224   1.752   1.043   4.612
 4093TIP3    H212225   1.656   0.950   4.542
 4094TIP3   OH212226   0.683   2.117   4.696
 4094TIP3    H112227   0.732   2.183   4.745
 4094TIP3    H212228   0.714   2.127   4.606
 4095TIP3   OH212229   2.872   1.110   5.041
 4095TIP3    H112230   2.825   1.189   5.070
 4095TIP3    H212231   2.807   1.062   4.989
 4096TIP3   OH212232   0.522   5.955   2.288
 4096TIP3    H112233   0.560   6.043   2.293
 4096TIP3    H212234   0.443   5.961   2.343
 4097TIP3   OH212235   6.029   6.295   1.042
 4097TIP3    H112236   6.056   6.204   1.052
 4097TIP3    H212237   5.986   6.298   0.956
 4098TIP3   OH212238   4.908   4.555   2.079
 4098TIP3    H112239   4.948   4.575   2.163
 4098TIP3    H212240   4.953   4.612   2.017
 4099TIP3   OH212241   8.024   4.155   5.641
 4099TIP3    H112242   8.096   4.093   5.642
 4099TIP3    H212243   7.981   4.142   5.557
 4100TIP3   OH212244   5.402   7.002   2.204
 4100TIP3    H112245   5.333   6.954   2.157
 4100TIP3    H212246   5.366   7.017   2.291
 4101TIP3   OH212247   7.246   3.030   1.833
 4101TIP3    H112248   7.170   2.974   1.814
 4101TIP3    H212249   7.234   3.106   1.776
 4102TIP3   OH212250   1.179   4.930   1.687
 4102TIP3    H112251   1.197   4.999   1.623
 4102TIP3    H212252   1.238   4.948   1.759
 4103TIP3   OH212253   6.679   3.428   5.893
 4103TIP3    H112254   6.688   3.523   5.883
 4103TIP3    H212255   6.681   3.415   5.988
 4104TIP3   OH212256   6.840   2.688   4.534
 4104TIP3    H112257   6.934   2.675   4.538
 4104TIP3    H212258   6.823   2.763   4.592
 4105TIP3   OH212259   2.532   2.183   5.438
 4105TIP3    H112260   2.577   2.226   5.366
 4105TIP3    H212261   2.452   2.147   5.398
 4106TIP3   OH212262   1.177   5.572   4.915
 4106TIP3    H112263   1.141   5.646   4.963
 4106TIP3    H212264   1.116   5.500   4.932
 4107TIP3   OH212265   1.362   3.832   5.117
 4107TIP3    H112266   1.449   3.796   5.132
 4107TIP3    H212267   1.369   3.882   5.036
 4108TIP3   OH212268   3.428   6.870   3.792
 4108TIP3    H112269   3.509   6.819   3.794
 4108TIP3    H212270   3.425   6.911   3.878
 4109TIP3   OH212271   6.383   6.263   0.767
 4109TIP3    H112272   6.301   6.216   0.754
 4109TIP3    H212273   6.435   6.243   0.689
 4110TIP3   OH212274   5.594   0.224   6.089
 4110TIP3    H112275   5.610   0.134   6.119
 4110TIP3    H212276   5.526   0.215   6.022
 4111TIP3   OH212277   5.829   4.251   5.211
 4111TIP3    H112278   5.919   4.250   5.246
 4111TIP3    H212279   5.788   4.325   5.256
 4112TIP3   OH212280   6.767   0.862   4.574
 4112TIP3    H112281   6.820   0.889   4.500
 4112TIP3    H212282   6.713   0.791   4.541
 4113TIP3   OH212283   0.513   4.750   4.503
 4113TIP3    H112284   0.557   4.729   4.421
 4113TIP3    H212285   0.444   4.684   4.512
 4114TIP3   OH212286   6.069   2.239   4.937
 4114TIP3    H112287   6.099   2.330   4.933
 4114TIP3    H212288   6.053   2.222   5.030
 4115TIP3   OH212289   7.294   2.638   1.155
 4115TIP3    H112290   7.254   2.707   1.209
 4115TIP3    H212291   7.377   2.619   1.198
 4116TIP3   OH212292   3.670   7.268   2.814
 4116TIP3    H112293   3.595   7.237   2.763
 4116TIP3    H212294   3.701   7.190   2.861
 4117TIP3   OH212295   1.344   6.429   2.587
 4117TIP3    H112296   1.285   6.491   2.543
 4117TIP3    H212297   1.317   6.431   2.679
 4118TIP3   OH212298   1.871   3.960   1.725
 4118TIP3    H112299   1.799   4.019   1.703
 4118TIP3    H212300   1.875   3.961   1.820
 4119TIP3   OH212301   2.550   3.404   3.987
 4119TIP3    H112302   2.527   3.453   4.066
 4119TIP3    H212303   2.571   3.473   3.923
 4120TIP3   OH212304   5.668   3.081   4.805
 4120TIP3    H112305   5.658   2.988   4.784
 4120TIP3    H212306   5.656   3.126   4.721
 4121TIP3   OH212307   6.576   6.196   6.725
 4121TIP3    H112308   6.619   6.129   6.779
 4121TIP3    H212309   6.586   6.165   6.635
 4122TIP3   OH212310   5.977  -0.005   5.068
 4122TIP3    H112311   5.962  -0.018   4.974
 4122TIP3    H212312   5.915   0.063   5.093
 4123TIP3   OH212313   1.484   5.039   6.045
 4123TIP3    H112314   1.423   4.967   6.058
 4123TIP3    H212315   1.562   5.015   6.095
 4124TIP3   OH212316   4.083   1.211   2.627
 4124TIP3    H112317   4.079   1.170   2.713
 4124TIP3    H212318   4.029   1.290   2.636
 4125TIP3   OH212319   1.572   6.262   0.971
 4125TIP3    H112320   1.609   6.337   1.017
 4125TIP3    H212321   1.494   6.239   1.020
 4126TIP3   OH212322   0.950   6.390   0.791
 4126TIP3    H112323   1.003   6.325   0.745
 4126TIP3    H212324   0.943   6.463   0.728
 4127TIP3   OH212325   5.414   4.051   3.856
 4127TIP3    H112326   5.395   3.957   3.863
 4127TIP3    H212327   5.509   4.056   3.848
 4128TIP3   OH212328   2.459   4.363   2.529
 4128TIP3    H112329   2.484   4.274   2.506
 4128TIP3    H212330   2.371   4.354   2.568
 4129TIP3   OH212331   4.916   2.567   3.423
 4129TIP3    H112332   5.003   2.530   3.438
 4129TIP3    H212333   4.865   2.542   3.500
 4130TIP3   OH212334   6.948   7.574   2.776
 4130TIP3    H112335   7.005   7.540   2.845
 4130TIP3    H212336   6.869   7.519   2.781
 4131TIP3   OH212337   3.864   1.161   1.698
 4131TIP3    H112338   3.860   1.231   1.632
 4131TIP3    H212339   3.778   1.163   1.740
 4132TIP3   OH212340   5.113   7.307   0.905
 4132TIP3    H112341   5.131   7.249   0.831
 4132TIP3    H212342   5.179   7.285   0.970
 4133TIP3   OH212343   7.628   4.502   4.524
 4133TIP3    H112344   7.703   4.514   4.583
 4133TIP3    H212345   7.646   4.560   4.450
 4134TIP3   OH212346   5.315   6.260   1.177
 4134TIP3    H112347   5.354   6.309   1.249
 4134TIP3    H212348   5.318   6.320   1.102
 4135TIP3   OH212349   1.421   7.572   4.375
 4135TIP3    H112350   1.378   7.539   4.454
 4135TIP3    H212351   1.386   7.519   4.304
 4136TIP3   OH212352   2.627   2.292   4.161
 4136TIP3    H112353   2.567   2.224   4.131
 4136TIP3    H212354   2.634   2.353   4.088
 4137TIP3   OH212355   3.153   1.804   1.658
 4137TIP3    H112356   3.067   1.763   1.666
 4137TIP3    H212357   3.186   1.808   1.747
 4138TIP3   OH212358   2.272   6.381   5.900
 4138TIP3    H112359   2.348   6.352   5.850
 4138TIP3    H212360   2.218   6.302   5.910
 4139TIP3   OH212361   0.221   2.218   3.432
 4139TIP3    H112362   0.135   2.239   3.395
 4139TIP3    H212363   0.219   2.123   3.444
 4140TIP3   OH212364   4.187   5.168   2.288
 4140TIP3    H112365   4.201   5.129   2.201
 4140TIP3    H212366   4.094   5.187   2.291
 4141TIP3   OH212367   2.750   2.880   6.745
 4141TIP3    H112368   2.813   2.932   6.695
 4141TIP3    H212369   2.713   2.942   6.808
 4142TIP3   OH212370  -0.005   2.112   5.115
 4142TIP3    H112371  -0.007   2.061   5.196
 4142TIP3    H212372   0.027   2.050   5.049
 4143TIP3   OH212373   2.264   4.083   3.290
 4143TIP3    H112374   2.313   4.102   3.370
 4143TIP3    H212375   2.242   3.990   3.297
 4144TIP3   OH212376   4.009   2.164   5.057
 4144TIP3    H112377   3.916   2.177   5.038
 4144TIP3    H212378   4.013   2.162   5.153
 4145TIP3   OH212379   2.730   1.410   2.413
 4145TIP3    H112380   2.717   1.487   2.469
 4145TIP3    H212381   2.806   1.366   2.450
 4146TIP3   OH212382   3.649   1.574   2.071
 4146TIP3    H112383   3.599   1.530   2.140
 4146TIP3    H212384   3.727   1.608   2.115
 4147TIP3   OH212385   1.578   4.349   6.117
 4147TIP3    H112386   1.636   4.274   6.132
 4147TIP3    H212387   1.526   4.356   6.197
 4148TIP3   OH212388   8.117   0.174   0.396
 4148TIP3    H112389   8.031   0.138   0.415
 4148TIP3    H212390   8.101   0.245   0.334
 4149TIP3   OH212391   2.198   2.412   3.774
 4149TIP3    H112392   2.194   2.460   3.692
 4149TIP3    H212393   2.143   2.462   3.834
 4150TIP3   OH212394   6.185   2.674   2.403
 4150TIP3    H112395   6.130   2.751   2.421
 4150TIP3    H212396   6.228   2.695   2.320
 4151TIP3   OH212397   7.224   7.663   4.417
 4151TIP3    H112398   7.271   7.595   4.466
 4151TIP3    H212399   7.250   7.649   4.326
 4152TIP3   OH212400   4.713   1.018   0.342
 4152TIP3    H112401   4.669   0.934   0.342
 4152TIP3    H212402   4.657   1.075   0.395
 4153TIP3   OH212403   2.162   3.992   4.354
 4153TIP3    H112404   2.234   3.957   4.303
 4153TIP3    H212405   2.201   4.062   4.406
 4154TIP3   OH212406   0.294   1.837   3.756
 4154TIP3    H112407   0.346   1.811   3.680
 4154TIP3    H212408   0.351   1.898   3.803
 4155TIP3   OH212409   0.131   3.334   1.956
 4155TIP3    H112410   0.156   3.262   1.898
 4155TIP3    H212411   0.177   3.317   2.038
 4156TIP3   OH212412   6.152   3.223   6.649
 4156TIP3    H112413   6.119   3.174   6.574
 4156TIP3    H212414   6.227   3.172   6.679
 4157TIP3   OH212415   2.054   2.164   1.320
 4157TIP3    H112416   2.018   2.219   1.390
 4157TIP3    H212417   1.978   2.143   1.265
 4158TIP3   OH212418   3.471   6.791   0.443
 4158TIP3    H112419   3.490   6.728   0.513
 4158TIP3    H212420   3.529   6.766   0.371
 4159TIP3   OH212421   5.784   4.942   5.804
 4159TIP3    H112422   5.778   5.011   5.869
 4159TIP3    H212423   5.740   4.977   5.727
 4160TIP3   OH212424   8.161   3.455   0.082
 4160TIP3    H112425   8.231   3.401   0.117
 4160TIP3    H212426   8.200   3.502   0.008
 4161TIP3   OH212427   6.771   1.990   2.556
 4161TIP3    H112428   6.738   2.041   2.482
 4161TIP3    H212429   6.861   2.019   2.567
 4162TIP3   OH212430   4.543   0.589   2.852
 4162TIP3    H112431   4.501   0.674   2.867
 4162TIP3    H212432   4.575   0.594   2.762
 4163TIP3   OH212433   6.200   5.930   4.826
 4163TIP3    H112434   6.239   5.932   4.738
 4163TIP3    H212435   6.207   5.838   4.852
 4164TIP3   OH212436   1.321   4.011   4.900
 4164TIP3    H112437   1.234   4.048   4.887
 4164TIP3    H212438   1.380   4.078   4.865
 4165TIP3   OH212439   0.729   2.159   3.038
 4165TIP3    H112440   0.782   2.214   3.096
 4165TIP3    H212441   0.777   2.076   3.033
 4166TIP3   OH212442   6.438   2.951   1.051
 4166TIP3    H112443   6.425   2.986   1.139
 4166TIP3    H212444   6.356   2.907   1.030
 4167TIP3   OH212445   4.460   7.385   1.108
 4167TIP3    H112446   4.497   7.298   1.120
 4167TIP3    H212447   4.381   7.386   1.163
 4168TIP3   OH212448   8.240   5.558   4.755
 4168TIP3    H112449   8.217   5.629   4.816
 4168TIP3    H212450   8.237   5.599   4.669
 4169TIP3   OH212451   1.363   0.679   0.560
 4169TIP3    H112452   1.434   0.731   0.523
 4169TIP3    H212453   1.403   0.633   0.634
 4170TIP3   OH212454   3.967   4.915   1.733
 4170TIP3    H112455   4.040   4.867   1.693
 4170TIP3    H212456   3.934   4.972   1.664
 4171TIP3   OH212457   6.573   3.711   6.110
 4171TIP3    H112458   6.613   3.743   6.191
 4171TIP3    H212459   6.542   3.791   6.066
 4172TIP3   OH212460   4.049   1.201   0.557
 4172TIP3    H112461   4.032   1.160   0.642
 4172TIP3    H212462   4.120   1.148   0.519
 4173TIP3   OH212463   0.662   6.323   4.674
 4173TIP3    H112464   0.730   6.383   4.643
 4173TIP3    H212465   0.600   6.379   4.720
 4174TIP3   OH212466   4.618   1.113   6.188
 4174TIP3    H112467   4.637   1.186   6.129
 4174TIP3    H212468   4.674   1.129   6.264
 4175TIP3   OH212469   0.205   6.676   6.146
 4175TIP3    H112470   0.218   6.607   6.211
 4175TIP3    H212471   0.143   6.736   6.188
 4176TIP3   OH212472   1.286   1.963   4.200
 4176TIP3    H112473   1.292   2.015   4.280
 4176TIP3    H212474   1.346   1.890   4.213
 4177TIP3   OH212475   8.249   1.190   6.065
 4177TIP3    H112476   8.215   1.113   6.110
 4177TIP3    H212477   8.316   1.224   6.124
 4178TIP3   OH212478   3.054   6.817   4.843
 4178TIP3    H112479   3.134   6.867   4.828
 4178TIP3    H212480   3.081   6.726   4.839
 4179TIP3   OH212481   0.185   5.156   3.953
 4179TIP3    H112482   0.254   5.128   4.013
 4179TIP3    H212483   0.110   5.174   4.009
 4180TIP3   OH212484   4.596   6.897   3.718
 4180TIP3    H112485   4.619   6.982   3.756
 4180TIP3    H212486   4.654   6.888   3.643
 4181TIP3   OH212487   2.090   2.757   1.198
 4181TIP3    H112488   2.013   2.811   1.180
 4181TIP3    H212489   2.146   2.769   1.122
 4182TIP3   OH212490   2.354   4.962   6.606
 4182TIP3    H112491   2.310   4.880   6.630
 4182TIP3    H212492   2.284   5.016   6.567
 4183TIP3   OH212493   2.325   5.710   3.224
 4183TIP3    H112494   2.368   5.709   3.139
 4183TIP3    H212495   2.299   5.619   3.240
 4184TIP3   OH212496   1.958   1.258   1.084
 4184TIP3    H112497   1.866   1.261   1.056
 4184TIP3    H212498   1.958   1.296   1.172
 4185TIP3   OH212499   8.149   2.499   0.229
 4185TIP3    H112500   8.190   2.508   0.315
 4185TIP3    H212501   8.127   2.406   0.222
 4186TIP3   OH212502   6.908   5.435   1.483
 4186TIP3    H112503   6.975   5.415   1.417
 4186TIP3    H212504   6.841   5.368   1.470
 4187TIP3   OH212505   2.132   2.525   2.671
 4187TIP3    H112506   2.078   2.449   2.693
 4187TIP3    H212507   2.089   2.564   2.594
 4188TIP3   OH212508   6.838   0.399   4.904
 4188TIP3    H112509   6.917   0.421   4.855
 4188TIP3    H212510   6.798   0.484   4.924
 4189TIP3   OH212511   5.720   6.128   3.124
 4189TIP3    H112512   5.759   6.159   3.043
 4189TIP3    H212513   5.627   6.148   3.115
 4190TIP3   OH212514   2.477   7.770   2.857
 4190TIP3    H112515   2.529   7.699   2.895
 4190TIP3    H212516   2.393   7.728   2.836
 4191TIP3   OH212517   2.098   1.619   0.610
 4191TIP3    H112518   2.162   1.565   0.657
 4191TIP3    H212519   2.101   1.703   0.654
 4192TIP3   OH212520   2.523   6.483   4.342
 4192TIP3    H112521   2.473   6.502   4.263
 4192TIP3    H212522   2.613   6.508   4.320
 4193TIP3   OH212523   0.378   5.036   4.137
 4193TIP3    H112524   0.472   5.018   4.130
 4193TIP3    H212525   0.356   5.013   4.228
 4194TIP3   OH212526   0.653   4.774   2.611
 4194TIP3    H112527   0.644   4.758   2.517
 4194TIP3    H212528   0.747   4.777   2.626
 4195TIP3   OH212529   1.669   6.779   1.721
 4195TIP3    H112530   1.758   6.810   1.703
 4195TIP3    H212531   1.647   6.815   1.807
 4196TIP3   OH212532   5.300   4.465   1.622
 4196TIP3    H112533   5.304   4.556   1.594
 4196TIP3    H212534   5.351   4.418   1.555
 4197TIP3   OH212535   6.234   3.147   4.304
 4197TIP3    H112536   6.326   3.147   4.276
 4197TIP3    H212537   6.218   3.236   4.334
 4198TIP3   OH212538   3.414   2.060   1.512
 4198TIP3    H112539   3.344   1.997   1.498
 4198TIP3    H212540   3.475   2.016   1.570
 4199TIP3   OH212541   6.555   4.396   3.794
 4199TIP3    H112542   6.534   4.431   3.708
 4199TIP3    H212543   6.528   4.304   3.791
 4200TIP3   OH212544   7.189   5.916   6.219
 4200TIP3    H112545   7.275   5.876   6.211
 4200TIP3    H212546   7.207   6.005   6.251
 4201TIP3   OH212547   7.816   5.662   1.019
 4201TIP3    H112548   7.795   5.680   1.110
 4201TIP3    H212549   7.748   5.709   0.969
 4202TIP3   OH212550   3.685   3.694   2.606
 4202TIP3    H112551   3.629   3.710   2.682
 4202TIP3    H212552   3.770   3.730   2.631
 4203TIP3   OH212553   3.408   3.331   3.643
 4203TIP3    H112554   3.441   3.378   3.567
 4203TIP3    H212555   3.395   3.241   3.612
 4204TIP3   OH212556   4.715   1.629   0.477
 4204TIP3    H112557   4.793   1.677   0.504
 4204TIP3    H212558   4.645   1.694   0.483
 4205TIP3   OH212559   0.615   5.911   4.379
 4205TIP3    H112560   0.650   5.822   4.379
 4205TIP3    H212561   0.617   5.937   4.287
 4206TIP3   OH212562   2.447   7.443   0.094
 4206TIP3    H112563   2.394   7.507   0.047
 4206TIP3    H212564   2.460   7.372   0.031
 4207TIP3   OH212565   7.604   7.342   3.895
 4207TIP3    H112566   7.600   7.298   3.810
 4207TIP3    H212567   7.648   7.425   3.877
 4208TIP3   OH212568   0.999   0.949   6.000
 4208TIP3    H112569   0.904   0.934   5.991
 4208TIP3    H212570   1.011   1.039   5.971
 4209TIP3   OH212571   5.295   4.099   1.404
 4209TIP3    H112572   5.230   4.073   1.339
 4209TIP3    H212573   5.243   4.124   1.481
 4210TIP3   OH212574   3.799   6.278   3.612
 4210TIP3    H112575   3.777   6.232   3.531
 4210TIP3    H212576   3.740   6.353   3.613
 4211TIP3   OH212577   3.892   4.801   2.216
 4211TIP3    H112578   3.957   4.743   2.254
 4211TIP3    H212579   3.902   4.883   2.264
 4212TIP3   OH212580   2.092   5.005   4.514
 4212TIP3    H112581   2.123   5.058   4.587
 4212TIP3    H212582   2.025   5.059   4.472
 4213TIP3   OH212583   4.464   2.360   0.457
 4213TIP3    H112584   4.520   2.417   0.404
 4213TIP3    H212585   4.424   2.301   0.394
 4214TIP3   OH212586   4.978   2.453   5.423
 4214TIP3    H112587   4.924   2.510   5.478
 4214TIP3    H212588   4.990   2.503   5.342
 4215TIP3   OH212589   6.513   5.766   5.193
 4215TIP3    H112590   6.552   5.708   5.128
 4215TIP3    H212591   6.523   5.720   5.276
 4216TIP3   OH212592   7.885   6.052   3.112
 4216TIP3    H112593   7.862   6.052   3.019
 4216TIP3    H212594   7.936   6.132   3.124
 4217TIP3   OH212595   4.393   2.915   6.653
 4217TIP3    H112596   4.450   2.943   6.725
 4217TIP3    H212597   4.313   2.885   6.696
 4218TIP3   OH212598   5.842   6.198   2.457
 4218TIP3    H112599   5.831   6.116   2.504
 4218TIP3    H212600   5.909   6.245   2.506
 4219TIP3   OH212601   0.538   4.859   5.542
 4219TIP3    H112602   0.626   4.861   5.580
 4219TIP3    H212603   0.548   4.902   5.457
 4220TIP3   OH212604   3.740   4.769   1.381
 4220TIP3    H112605   3.749   4.772   1.477
 4220TIP3    H212606   3.758   4.678   1.359
 4221TIP3   OH212607   5.576   5.610   5.509
 4221TIP3    H112608   5.541   5.539   5.562
 4221TIP3    H212609   5.655   5.639   5.555
 4222TIP3   OH212610   1.979   5.414   0.276
 4222TIP3    H112611   1.994   5.508   0.273
 4222TIP3    H212612   1.969   5.388   0.185
 4223TIP3   OH212613   2.872   7.236   6.589
 4223TIP3    H112614   2.855   7.305   6.653
 4223TIP3    H212615   2.790   7.187   6.584
 4224TIP3   OH212616   1.068   6.727   4.513
 4224TIP3    H112617   1.161   6.717   4.494
 4224TIP3    H212618   1.060   6.701   4.605
 4225TIP3   OH212619   2.542   0.045   1.905
 4225TIP3    H112620   2.553  -0.001   1.821
 4225TIP3    H212621   2.468   0.105   1.890
 4226TIP3   OH212622   5.698   4.082   3.896
 4226TIP3    H112623   5.724   4.164   3.939
 4226TIP3    H212624   5.769   4.065   3.834
 4227TIP3   OH212625   4.070   2.105   2.243
 4227TIP3    H112626   4.131   2.177   2.225
 4227TIP3    H212627   4.125   2.026   2.243
 4228TIP3   OH212628   7.446   2.841   4.625
 4228TIP3    H112629   7.460   2.758   4.580
 4228TIP3    H212630   7.451   2.820   4.718
 4229TIP3   OH212631   3.228   0.490   0.625
 4229TIP3    H112632   3.319   0.499   0.594
 4229TIP3    H212633   3.175   0.513   0.549
 4230TIP3   OH212634   5.448   4.663   3.948
 4230TIP3    H112635   5.469   4.570   3.937
 4230TIP3    H212636   5.356   4.669   3.923
 4231TIP3   OH212637   6.116   2.028   4.113
 4231TIP3    H112638   6.026   1.999   4.099
 4231TIP3    H212639   6.111   2.124   4.112
 4232TIP3   OH212640   1.863   6.489   5.417
 4232TIP3    H112641   1.910   6.545   5.479
 4232TIP3    H212642   1.779   6.534   5.404
 4233TIP3   OH212643   1.374   5.479   5.147
 4233TIP3    H112644   1.332   5.438   5.071
 4233TIP3    H212645   1.373   5.572   5.128
 4234TIP3   OH212646   4.509   1.318   0.708
 4234TIP3    H112647   4.458   1.386   0.665
 4234TIP3    H212648   4.551   1.363   0.782
 4235TIP3   OH212649   1.658   0.183   3.307
 4235TIP3    H112650   1.686   0.131   3.232
 4235TIP3    H212651   1.605   0.253   3.270
 4236TIP3   OH212652   1.976   3.951   5.698
 4236TIP3    H112653   1.934   4.005   5.630
 4236TIP3    H212654   2.038   3.896   5.650
 4237TIP3   OH212655   3.747   4.705   6.159
 4237TIP3    H112656   3.715   4.651   6.086
 4237TIP3    H212657   3.798   4.645   6.213
 4238TIP3   OH212658   7.627   0.812   6.717
 4238TIP3    H112659   7.592   0.724   6.707
 4238TIP3    H212660   7.619   0.851   6.630
 4239TIP3   OH212661   0.837   1.051   4.600
 4239TIP3    H112662   0.868   1.134   4.635
 4239TIP3    H212663   0.753   1.035   4.645
 4240TIP3   OH212664   5.108   4.603   4.015
 4240TIP3    H112665   5.069   4.560   3.939
 4240TIP3    H212666   5.123   4.693   3.987
 4241TIP3   OH212667   0.170   6.242   2.795
 4241TIP3    H112668   0.074   6.234   2.794
 4241TIP3    H212669   0.200   6.164   2.747
 4242TIP3   OH212670   7.091   4.595   0.243
 4242TIP3    H112671   7.013   4.541   0.228
 4242TIP3    H212672   7.076   4.636   0.328
 4243TIP3   OH212673   0.827   2.599   0.238
 4243TIP3    H112674   0.759   2.665   0.245
 4243TIP3    H212675   0.892   2.624   0.303
 4244TIP3   OH212676   1.516   5.269   4.854
 4244TIP3    H112677   1.472   5.354   4.855
 4244TIP3    H212678   1.450   5.207   4.883
 4245TIP3   OH212679   2.799   4.298   1.758
 4245TIP3    H112680   2.819   4.378   1.710
 4245TIP3    H212681   2.864   4.294   1.828
 4246TIP3   OH212682   3.754   5.736   0.842
 4246TIP3    H112683   3.667   5.776   0.854
 4246TIP3    H212684   3.736   5.642   0.837
 4247TIP3   OH212685   0.203   6.497   1.893
 4247TIP3    H112686   0.177   6.501   1.985
 4247TIP3    H212687   0.120   6.487   1.845
 4248TIP3   OH212688   7.234   5.586   0.662
 4248TIP3    H112689   7.221   5.658   0.724
 4248TIP3    H212690   7.265   5.513   0.716
 4249TIP3   OH212691   5.577   2.431   5.598
 4249TIP3    H112692   5.541   2.517   5.622
 4249TIP3    H212693   5.668   2.435   5.628
 4250TIP3   OH212694   0.790   3.169   3.236
 4250TIP3    H112695   0.740   3.088   3.227
 4250TIP3    H212696   0.759   3.207   3.319
 4251TIP3   OH212697  -0.011   5.732   6.684
 4251TIP3    H112698   0.063   5.744   6.744
 4251TIP3    H212699  -0.036   5.640   6.695
 4252TIP3   OH212700   7.545   2.786   1.550
 4252TIP3    H112701   7.633   2.750   1.564
 4252TIP3    H212702   7.551   2.876   1.581
 4253TIP3   OH212703   5.275   3.844   1.609
 4253TIP3    H112704   5.226   3.918   1.645
 4253TIP3    H212705   5.234   3.826   1.525
 4254TIP3   OH212706   5.739   2.390   3.521
 4254TIP3    H112707   5.744   2.482   3.545
 4254TIP3    H212708   5.780   2.343   3.594
 4255TIP3   OH212709   4.739   3.020   0.587
 4255TIP3    H112710   4.742   3.003   0.493
 4255TIP3    H212711   4.744   3.116   0.593
 4256TIP3   OH212712   1.562   5.125   0.116
 4256TIP3    H112713   1.633   5.080   0.069
 4256TIP3    H212714   1.492   5.133   0.052
 4257TIP3   OH212715   4.260   5.177   4.806
 4257TIP3    H112716   4.189   5.135   4.854
 4257TIP3    H212717   4.216   5.223   4.735
 4258TIP3   OH212718   8.077   3.666   5.909
 4258TIP3    H112719   8.067   3.647   6.003
 4258TIP3    H212720   8.043   3.754   5.899
 4259TIP3   OH212721   4.905   7.096   5.458
 4259TIP3    H112722   4.998   7.101   5.436
 4259TIP3    H212723   4.870   7.181   5.432
 4260TIP3   OH212724   3.197   7.167   0.830
 4260TIP3    H112725   3.261   7.160   0.760
 4260TIP3    H212726   3.122   7.115   0.800
 4261TIP3   OH212727   5.335   7.521   1.344
 4261TIP3    H112728   5.274   7.551   1.411
 4261TIP3    H212729   5.409   7.582   1.349
 4262TIP3   OH212730   6.760   4.461   2.609
 4262TIP3    H112731   6.687   4.456   2.671
 4262TIP3    H212732   6.838   4.447   2.662
 4263TIP3   OH212733   6.796   3.309   4.441
 4263TIP3    H112734   6.727   3.284   4.501
 4263TIP3    H212735   6.780   3.256   4.363
 4264TIP3   OH212736   4.729   0.896   1.488
 4264TIP3    H112737   4.812   0.896   1.534
 4264TIP3    H212738   4.665   0.926   1.552
 4265TIP3   OH212739   1.133   7.690   1.737
 4265TIP3    H112740   1.065   7.625   1.717
 4265TIP3    H212741   1.087   7.774   1.738
 4266TIP3   OH212742   8.235   0.303   1.226
 4266TIP3    H112743   8.173   0.238   1.192
 4266TIP3    H212744   8.250   0.277   1.317
 4267TIP3   OH212745   7.567   5.041   1.373
 4267TIP3    H112746   7.501   5.010   1.435
 4267TIP3    H212747   7.639   5.072   1.428
 4268TIP3   OH212748   4.841   1.526   3.296
 4268TIP3    H112749   4.926   1.545   3.258
 4268TIP3    H212750   4.805   1.455   3.243
 4269TIP3   OH212751   2.383   4.677   3.997
 4269TIP3    H112752   2.471   4.639   3.997
 4269TIP3    H212753   2.326   4.606   3.968
 4270TIP3   OH212754   8.238   7.578   1.911
 4270TIP3    H112755   8.282   7.663   1.915
 4270TIP3    H212756   8.295   7.519   1.961
 4271TIP3   OH212757   7.093   7.728   3.362
 4271TIP3    H112758   7.099   7.823   3.370
 4271TIP3    H212759   7.071   7.698   3.450
 4272TIP3   OH212760   1.953   4.848   2.134
 4272TIP3    H112761   1.978   4.909   2.064
 4272TIP3    H212762   1.918   4.772   2.087
 4273TIP3   OH212763   6.393   6.775   5.703
 4273TIP3    H112764   6.464   6.711   5.698
 4273TIP3    H212765   6.356   6.776   5.614
 4274TIP3   OH212766   0.838   4.379   1.646
 4274TIP3    H112767   0.806   4.313   1.584
 4274TIP3    H212768   0.800   4.461   1.614
 4275TIP3   OH212769   5.625   4.295   4.737
 4275TIP3    H112770   5.691   4.306   4.805
 4275TIP3    H212771   5.675   4.294   4.655
 4276TIP3   OH212772   0.855   1.460   4.539
 4276TIP3    H112773   0.855   1.416   4.454
 4276TIP3    H212774   0.880   1.393   4.602
 4277TIP3   OH212775   4.939   3.247   0.594
 4277TIP3    H112776   5.033   3.246   0.580
 4277TIP3    H212777   4.901   3.249   0.505
 4278TIP3   OH212778   6.318   1.858   1.901
 4278TIP3    H112779   6.299   1.933   1.844
 4278TIP3    H212780   6.236   1.809   1.904
 4279TIP3   OH212781   2.777   7.683   4.386
 4279TIP3    H112782   2.872   7.699   4.382
 4279TIP3    H212783   2.770   7.588   4.398
 4280TIP3   OH212784   0.081   2.915   2.390
 4280TIP3    H112785   0.097   2.858   2.314
 4280TIP3    H212786   0.000   2.881   2.429
 4281TIP3   OH212787   6.945   5.567   0.697
 4281TIP3    H112788   6.897   5.554   0.615
 4281TIP3    H212789   7.023   5.617   0.671
 4282TIP3   OH212790   8.221   7.099   4.749
 4282TIP3    H112791   8.180   7.170   4.701
 4282TIP3    H212792   8.295   7.073   4.695
 4283TIP3   OH212793   7.029   3.430   0.528
 4283TIP3    H112794   7.008   3.413   0.437
 4283TIP3    H212795   7.040   3.525   0.533
 4284TIP3   OH212796   6.903   0.388   3.331
 4284TIP3    H112797   6.850   0.309   3.325
 4284TIP3    H212798   6.890   0.419   3.420
 4285TIP3   OH212799   3.625   3.254   6.084
 4285TIP3    H112800   3.630   3.159   6.076
 4285TIP3    H212801   3.541   3.277   6.042
 4286TIP3   OH212802   5.953   0.426   2.493
 4286TIP3    H112803   5.952   0.419   2.397
 4286TIP3    H212804   6.003   0.505   2.511
 4287TIP3   OH212805   6.410   5.877   0.312
 4287TIP3    H112806   6.415   5.785   0.336
 4287TIP3    H212807   6.501   5.903   0.299
 4288TIP3   OH212808   1.545   6.152   4.390
 4288TIP3    H112809   1.462   6.119   4.425
 4288TIP3    H212810   1.530   6.245   4.376
 4289TIP3   OH212811   6.013   7.755   1.216
 4289TIP3    H112812   6.021   7.711   1.132
 4289TIP3    H212813   6.006   7.848   1.194
 4290TIP3   OH212814   7.520   5.572   0.834
 4290TIP3    H112815   7.439   5.545   0.876
 4290TIP3    H212816   7.538   5.659   0.869
 4291TIP3   OH212817   3.888   4.443   0.777
 4291TIP3    H112818   3.801   4.407   0.762
 4291TIP3    H212819   3.948   4.377   0.742
 4292TIP3   OH212820   6.136   7.201   6.600
 4292TIP3    H112821   6.178   7.255   6.667
 4292TIP3    H212822   6.199   7.132   6.582
 4293TIP3   OH212823   6.085   1.036   1.601
 4293TIP3    H112824   6.090   1.026   1.506
 4293TIP3    H212825   6.167   0.999   1.634
 4294TIP3   OH212826   5.413   4.390   4.878
 4294TIP3    H112827   5.484   4.356   4.823
 4294TIP3    H212828   5.448   4.469   4.917
 4295TIP3   OH212829   7.165   2.108   3.013
 4295TIP3    H112830   7.117   2.073   3.088
 4295TIP3    H212831   7.239   2.155   3.051
 4296TIP3   OH212832   3.030   0.938   3.379
 4296TIP3    H112833   2.961   1.003   3.377
 4296TIP3    H212834   3.097   0.970   3.319
 4297TIP3   OH212835   4.036   3.078   0.684
 4297TIP3    H112836   4.113   3.132   0.664
 4297TIP3    H212837   4.047   3.055   0.776
 4298TIP3   OH212838   0.659   0.948   3.932
 4298TIP3    H112839   0.744   0.908   3.950
 4298TIP3    H212840   0.595   0.882   3.960
 4299TIP3   OH212841   0.942   3.905   5.399
 4299TIP3    H112842   1.031   3.884   5.371
 4299TIP3    H212843   0.899   3.820   5.411
 4300TIP3   OH212844   0.945   1.985   2.222
 4300TIP3    H112845   0.990   1.965   2.304
 4300TIP3    H212846   1.012   1.974   2.154
 4301TIP3   OH212847   5.155   1.388   2.708
 4301TIP3    H112848   5.206   1.469   2.699
 4301TIP3    H212849   5.124   1.389   2.798
 4302TIP3   OH212850   4.106   4.795   2.814
 4302TIP3    H112851   4.198   4.796   2.841
 4302TIP3    H212852   4.109   4.801   2.719
 4303TIP3   OH212853   7.904   4.259   6.180
 4303TIP3    H112854   7.826   4.308   6.154
 4303TIP3    H212855   7.884   4.168   6.160
 4304TIP3   OH212856   5.920   0.516   5.978
 4304TIP3    H112857   5.967   0.571   5.915
 4304TIP3    H212858   5.934   0.558   6.062
 4305TIP3   OH212859   0.295   4.733   4.059
 4305TIP3    H112860   0.215   4.784   4.068
 4305TIP3    H212861   0.364   4.799   4.047
 4306TIP3   OH212862   4.389   5.282   1.535
 4306TIP3    H112863   4.465   5.334   1.511
 4306TIP3    H212864   4.385   5.213   1.469
 4307TIP3   OH212865   1.742   5.847   2.244
 4307TIP3    H112866   1.775   5.868   2.332
 4307TIP3    H212867   1.793   5.902   2.185
 4308TIP3   OH212868   4.549   6.420   0.552
 4308TIP3    H112869   4.571   6.328   0.572
 4308TIP3    H212870   4.486   6.445   0.619
 4309TIP3   OH212871   7.512   6.370   3.557
 4309TIP3    H112872   7.489   6.454   3.598
 4309TIP3    H212873   7.606   6.361   3.572
 4310TIP3   OH212874   3.312   3.805   4.379
 4310TIP3    H112875   3.378   3.769   4.438
 4310TIP3    H212876   3.281   3.885   4.422
 4311TIP3   OH212877   0.200   5.799   0.741
 4311TIP3    H112878   0.252   5.875   0.769
 4311TIP3    H212879   0.146   5.779   0.817
 4312TIP3   OH212880   5.744   2.862   6.623
 4312TIP3    H112881   5.734   2.894   6.533
 4312TIP3    H212882   5.675   2.797   6.632
 4313TIP3   OH212883   7.900   5.407   5.916
 4313TIP3    H112884   7.961   5.348   5.959
 4313TIP3    H212885   7.816   5.362   5.920
 4314TIP3   OH212886   1.010   1.853   6.075
 4314TIP3    H112887   0.934   1.843   6.133
 4314TIP3    H212888   1.027   1.765   6.043
 4315TIP3   OH212889   4.918   4.639   3.780
 4315TIP3    H112890   4.966   4.719   3.800
 4315TIP3    H212891   4.849   4.666   3.719
 4316TIP3   OH212892   3.882   5.067   3.996
 4316TIP3    H112893   3.971   5.101   3.999
 4316TIP3    H212894   3.879   5.001   4.065
 4317TIP3   OH212895   7.336   1.662   3.970
 4317TIP3    H112896   7.377   1.621   3.893
 4317TIP3    H212897   7.274   1.597   4.002
 4318TIP3   OH212898   1.176   7.152   3.489
 4318TIP3    H112899   1.196   7.061   3.467
 4318TIP3    H212900   1.099   7.146   3.545
 4319TIP3   OH212901   7.321   0.497   3.255
 4319TIP3    H112902   7.254   0.561   3.280
 4319TIP3    H212903   7.391   0.511   3.319
 4320TIP3   OH212904   5.415   4.540   4.469
 4320TIP3    H112905   5.408   4.590   4.387
 4320TIP3    H212906   5.488   4.579   4.516
 4321TIP3   OH212907   6.047   7.751   4.460
 4321TIP3    H112908   6.137   7.735   4.490
 4321TIP3    H212909   6.043   7.713   4.373
 4322TIP3   OH212910   2.849   1.478   2.700
 4322TIP3    H112911   2.793   1.546   2.665
 4322TIP3    H212912   2.792   1.401   2.708
 4323TIP3   OH212913   0.116   3.746   1.581
 4323TIP3    H112914   0.136   3.836   1.554
 4323TIP3    H212915   0.076   3.756   1.668
 4324TIP3   OH212916   4.243   0.962   5.304
 4324TIP3    H112917   4.212   0.924   5.221
 4324TIP3    H212918   4.338   0.959   5.297
 4325TIP3   OH212919   7.980   0.956   5.342
 4325TIP3    H112920   8.022   0.949   5.428
 4325TIP3    H212921   7.917   0.884   5.340
 4326TIP3   OH212922   5.997   4.145   6.193
 4326TIP3    H112923   5.962   4.187   6.114
 4326TIP3    H212924   5.958   4.058   6.193
 4327TIP3   OH212925   0.081   5.755   2.842
 4327TIP3    H112926   0.154   5.697   2.820
 4327TIP3    H212927   0.002   5.705   2.822
 4328TIP3   OH212928   7.859   1.229   0.467
 4328TIP3    H112929   7.776   1.272   0.484
 4328TIP3    H212930   7.883   1.188   0.550
 4329TIP3   OH212931   4.119   4.186   3.458
 4329TIP3    H112932   4.060   4.116   3.431
 4329TIP3    H212933   4.120   4.183   3.553
 4330TIP3   OH212934   3.583   4.004   4.114
 4330TIP3    H112935   3.583   3.918   4.073
 4330TIP3    H212936   3.635   3.992   4.194
 4331TIP3   OH212937   6.298   5.203   0.558
 4331TIP3    H112938   6.372   5.180   0.613
 4331TIP3    H212939   6.334   5.204   0.469
 4332TIP3   OH212940   6.587   7.614   3.268
 4332TIP3    H112941   6.609   7.522   3.251
 4332TIP3    H212942   6.668   7.662   3.250
 4333TIP3   OH212943   3.286   6.033   4.565
 4333TIP3    H112944   3.247   6.058   4.482
 4333TIP3    H212945   3.294   6.114   4.614
 4334TIP3   OH212946   6.831   0.586   6.464
 4334TIP3    H112947   6.881   0.566   6.384
 4334TIP3    H212948   6.838   0.506   6.517
 4335TIP3   OH212949   6.558   0.556   6.425
 4335TIP3    H112950   6.527   0.619   6.490
 4335TIP3    H212951   6.654   0.561   6.431
 4336TIP3   OH212952   2.323   3.076   4.482
 4336TIP3    H112953   2.388   3.139   4.454
 4336TIP3    H212954   2.320   3.012   4.410
 4337TIP3   OH212955   5.940   4.096   1.289
 4337TIP3    H112956   5.867   4.153   1.263
 4337TIP3    H212957   5.898   4.013   1.313
 4338TIP3   OH212958   7.223   4.981   1.171
 4338TIP3    H112959   7.273   5.057   1.200
 4338TIP3    H212960   7.185   5.008   1.087
 4339TIP3   OH212961   3.060   3.158   0.911
 4339TIP3    H112962   3.124   3.226   0.889
 4339TIP3    H212963   3.107   3.075   0.894
 4340TIP3   OH212964   6.602   3.341   1.779
 4340TIP3    H112965   6.693   3.368   1.789
 4340TIP3    H212966   6.602   3.285   1.701
 4341TIP3   OH212967   5.547   4.299   4.071
 4341TIP3    H112968   5.479   4.272   4.009
 4341TIP3    H212969   5.542   4.234   4.141
 4342TIP3   OH212970   1.357   7.361   2.271
 4342TIP3    H112971   1.336   7.279   2.227
 4342TIP3    H212972   1.312   7.354   2.356
 4343TIP3   OH212973   4.014   7.664   2.242
 4343TIP3    H112974   3.922   7.681   2.259
 4343TIP3    H212975   4.014   7.605   2.167
 4344TIP3   OH212976   5.750   2.536   3.239
 4344TIP3    H112977   5.829   2.569   3.283
 4344TIP3    H212978   5.678   2.579   3.284
 4345TIP3   OH212979   0.163   2.519   1.291
 4345TIP3    H112980   0.256   2.498   1.300
 4345TIP3    H212981   0.147   2.515   1.197
 4346TIP3   OH212982   5.923   5.734   1.772
 4346TIP3    H112983   5.935   5.827   1.753
 4346TIP3    H212984   5.828   5.722   1.772
 4347TIP3   OH212985   0.739   0.254   5.827
 4347TIP3    H112986   0.734   0.263   5.922
 4347TIP3    H212987   0.705   0.167   5.809
 4348TIP3   OH212988   6.580   3.589   1.259
 4348TIP3    H112989   6.655   3.632   1.218
 4348TIP3    H212990   6.527   3.661   1.293
 4349TIP3   OH212991   0.669   7.365   0.074
 4349TIP3    H112992   0.738   7.314   0.031
 4349TIP3    H212993   0.613   7.299   0.115
 4350TIP3   OH212994   2.361   7.178   1.505
 4350TIP3    H112995   2.379   7.099   1.556
 4350TIP3    H212996   2.326   7.146   1.421
 4351TIP3   OH212997   6.463   2.909   5.764
 4351TIP3    H112998   6.489   2.908   5.672
 4351TIP3    H212999   6.530   2.961   5.808
 4352TIP3   OH213000   6.635   5.025   5.430
 4352TIP3    H113001   6.664   4.951   5.377
 4352TIP3    H213002   6.708   5.087   5.427
 4353TIP3   OH213003   6.860   7.735   5.475
 4353TIP3    H113004   6.808   7.661   5.506
 4353TIP3    H213005   6.873   7.719   5.382
 4354TIP3   OH213006   4.719   0.073   0.436
 4354TIP3    H113007   4.631   0.105   0.455
 4354TIP3    H213008   4.717  -0.020   0.459
 4355TIP3   OH213009   2.617   3.834   1.212
 4355TIP3    H113010   2.652   3.872   1.131
 4355TIP3    H213011   2.590   3.909   1.264
 4356TIP3   OH213012   8.214   7.718   3.881
 4356TIP3    H113013   8.306   7.692   3.889
 4356TIP3    H213014   8.179   7.660   3.812
 4357TIP3   OH213015   1.392   6.645   1.621
 4357TIP3    H113016   1.467   6.699   1.592
 4357TIP3    H213017   1.315   6.694   1.590
 4358TIP3   OH213018   5.163   6.391   2.602
 4358TIP3    H113019   5.179   6.471   2.552
 4358TIP3    H213020   5.138   6.326   2.535
 4359TIP3   OH213021   1.088   1.203   5.963
 4359TIP3    H113022   1.172   1.202   5.917
 4359TIP3    H213023   1.037   1.271   5.919
 4360TIP3   OH213024   7.870   5.672   1.693
 4360TIP3    H113025   7.912   5.689   1.777
 4360TIP3    H213026   7.919   5.727   1.631
 4361TIP3   OH213027   3.693   0.828   4.741
 4361TIP3    H113028   3.711   0.886   4.816
 4361TIP3    H213029   3.759   0.852   4.676
 4362TIP3   OH213030   2.089   6.244   6.051
 4362TIP3    H113031   2.091   6.186   6.128
 4362TIP3    H213032   2.073   6.331   6.088
 4363TIP3   OH213033   1.530   3.087   3.169
 4363TIP3    H113034   1.440   3.115   3.184
 4363TIP3    H213035   1.578   3.167   3.151
 4364TIP3   OH213036   6.069   5.130   3.358
 4364TIP3    H113037   6.102   5.142   3.269
 4364TIP3    H213038   6.011   5.054   3.352
 4365TIP3   OH213039   1.522   5.489   0.656
 4365TIP3    H113040   1.520   5.436   0.736
 4365TIP3    H213041   1.605   5.467   0.614
 4366TIP3   OH213042   5.402   0.234   3.819
 4366TIP3    H113043   5.470   0.208   3.756
 4366TIP3    H213044   5.449   0.246   3.901
 4367TIP3   OH213045   6.548   7.700   2.407
 4367TIP3    H113046   6.544   7.789   2.373
 4367TIP3    H213047   6.534   7.644   2.331
 4368TIP3   OH213048   2.264   3.033   3.200
 4368TIP3    H113049   2.267   2.964   3.133
 4368TIP3    H213050   2.178   3.073   3.189
 4369TIP3   OH213051   1.016   0.121   5.085
 4369TIP3    H113052   0.992   0.213   5.095
 4369TIP3    H213053   0.997   0.081   5.170
 4370TIP3   OH213054   1.384   1.688   3.713
 4370TIP3    H113055   1.425   1.773   3.700
 4370TIP3    H213056   1.448   1.638   3.763
 4371TIP3   OH213057   0.298   1.712   4.285
 4371TIP3    H113058   0.233   1.781   4.278
 4371TIP3    H213059   0.382   1.759   4.286
 4372TIP3   OH213060   3.738   6.725   4.323
 4372TIP3    H113061   3.650   6.752   4.350
 4372TIP3    H213062   3.795   6.796   4.352
 4373TIP3   OH213063   8.048   5.382   4.558
 4373TIP3    H113064   8.028   5.297   4.596
 4373TIP3    H213065   8.019   5.445   4.624
 4374TIP3   OH213066   5.538   1.174   1.908
 4374TIP3    H113067   5.516   1.138   1.822
 4374TIP3    H213068   5.633   1.175   1.910
 4375TIP3   OH213069   1.260   6.864   5.983
 4375TIP3    H113070   1.185   6.898   5.934
 4375TIP3    H213071   1.266   6.772   5.957
 4376TIP3   OH213072   2.581   4.488   4.860
 4376TIP3    H113073   2.544   4.472   4.773
 4376TIP3    H213074   2.504   4.492   4.918
 4377TIP3   OH213075   5.096   6.168   2.448
 4377TIP3    H113076   5.002   6.149   2.449
 4377TIP3    H213077   5.136   6.092   2.405
 4378TIP3   OH213078   6.674   3.834   3.464
 4378TIP3    H113079   6.700   3.918   3.503
 4378TIP3    H213080   6.750   3.808   3.412
 4379TIP3   OH213081   6.048   5.930   1.107
 4379TIP3    H113082   5.997   5.886   1.175
 4379TIP3    H213083   5.984   5.957   1.042
 4380TIP3   OH213084   6.867   6.687   1.184
 4380TIP3    H113085   6.773   6.707   1.186
 4380TIP3    H213086   6.875   6.603   1.229
 4381TIP3   OH213087   2.509   5.687   3.028
 4381TIP3    H113088   2.560   5.760   2.992
 4381TIP3    H213089   2.575   5.627   3.062
 4382TIP3   OH213090   5.097   6.079   2.027
 4382TIP3    H113091   5.007   6.074   2.060
 4382TIP3    H213092   5.150   6.038   2.094
 4383TIP3   OH213093   3.603   0.629   4.537
 4383TIP3    H113094   3.546   0.654   4.610
 4383TIP3    H213095   3.684   0.601   4.579
 4384TIP3   OH213096   0.082   1.892   4.966
 4384TIP3    H113097   0.167   1.868   4.928
 4384TIP3    H213098   0.020   1.885   4.893
 4385TIP3   OH213099   8.130   4.155   2.104
 4385TIP3    H113100   8.179   4.231   2.074
 4385TIP3    H213101   8.088   4.184   2.185
 4386TIP3   OH213102   1.428   7.102   6.365
 4386TIP3    H113103   1.361   7.045   6.401
 4386TIP3    H213104   1.410   7.188   6.405
 4387TIP3   OH213105   3.153   5.189   2.140
 4387TIP3    H113106   3.243   5.197   2.109
 4387TIP3    H213107   3.137   5.268   2.191
 4388TIP3   OH213108   4.348   3.072   4.966
 4388TIP3    H113109   4.337   3.126   5.044
 4388TIP3    H213110   4.440   3.046   4.967
 4389TIP3   OH213111   7.355   1.178   5.311
 4389TIP3    H113112   7.396   1.106   5.359
 4389TIP3    H213113   7.337   1.244   5.378
 4390TIP3   OH213114   5.118   3.170   4.669
 4390TIP3    H113115   5.160   3.255   4.657
 4390TIP3    H213116   5.185   3.115   4.710
 4391TIP3   OH213117   7.072   1.866   6.036
 4391TIP3    H113118   6.993   1.917   6.050
 4391TIP3    H213119   7.112   1.859   6.122
 4392TIP3   OH213120   2.025   1.110   3.340
 4392TIP3    H113121   2.021   1.052   3.416
 4392TIP3    H213122   1.934   1.131   3.321
 4393TIP3   OH213123   6.712   2.113   3.042
 4393TIP3    H113124   6.772   2.083   3.111
 4393TIP3    H213125   6.642   2.048   3.040
 4394TIP3   OH213126   6.862   1.631   0.667
 4394TIP3    H113127   6.953   1.656   0.683
 4394TIP3    H213128   6.852   1.545   0.709
 4395TIP3   OH213129   7.180   4.391   6.749
 4395TIP3    H113130   7.213   4.474   6.785
 4395TIP3    H213131   7.252   4.357   6.697
 4396TIP3   OH213132   4.769   6.922   4.105
 4396TIP3    H113133   4.810   6.862   4.043
 4396TIP3    H213134   4.768   6.874   4.188
 4397TIP3   OH213135   5.155   3.471   0.474
 4397TIP3    H113136   5.183   3.491   0.384
 4397TIP3    H213137   5.130   3.556   0.510
 4398TIP3   OH213138   7.583   6.461   6.552
 4398TIP3    H113139   7.515   6.498   6.608
 4398TIP3    H213140   7.592   6.524   6.480
 4399TIP3   OH213141   8.278   4.965   4.350
 4399TIP3    H113142   8.279   4.914   4.269
 4399TIP3    H213143   8.278   5.056   4.321
 4400TIP3   OH213144   3.463   7.673   1.198
 4400TIP3    H113145   3.498   7.678   1.287
 4400TIP3    H213146   3.541   7.672   1.142
 4401TIP3   OH213147   3.401   4.581   5.411
 4401TIP3    H113148   3.493   4.573   5.436
 4401TIP3    H213149   3.374   4.491   5.391
 4402TIP3   OH213150   8.066   0.525   2.918
 4402TIP3    H113151   8.001   0.571   2.864
 4402TIP3    H213152   8.150   0.551   2.881
 4403TIP3   OH213153   0.978   2.102   0.065
 4403TIP3    H113154   0.897   2.123   0.018
 4403TIP3    H213155   0.985   2.169   0.132
 4404TIP3   OH213156   4.487   7.251   3.981
 4404TIP3    H113157   4.550   7.182   3.957
 4404TIP3    H213158   4.404   7.205   3.993
 4405TIP3   OH213159   6.937   4.954   6.408
 4405TIP3    H113160   6.936   5.027   6.469
 4405TIP3    H213161   6.846   4.924   6.405
 4406TIP3   OH213162   1.266   7.151   1.865
 4406TIP3    H113163   1.339   7.142   1.803
 4406TIP3    H213164   1.193   7.105   1.822
 4407TIP3   OH213165   5.143   1.995   5.914
 4407TIP3    H113166   5.168   1.944   5.990
 4407TIP3    H213167   5.083   2.061   5.948
 4408TIP3   OH213168   4.295   5.942   3.905
 4408TIP3    H113169   4.262   5.988   3.828
 4408TIP3    H213170   4.224   5.883   3.931
 4409TIP3   OH213171   4.116   4.865   6.379
 4409TIP3    H113172   4.170   4.788   6.359
 4409TIP3    H213173   4.092   4.854   6.471
 4410TIP3   OH213174   3.877   3.504   4.487
 4410TIP3    H113175   3.955   3.519   4.433
 4410TIP3    H213176   3.825   3.441   4.437
 4411TIP3   OH213177   6.055   3.069   5.740
 4411TIP3    H113178   6.118   3.134   5.771
 4411TIP3    H213179   6.028   3.100   5.654
 4412TIP3   OH213180   5.580   3.555   0.593
 4412TIP3    H113181   5.634   3.577   0.517
 4412TIP3    H213182   5.529   3.479   0.565
 4413TIP3   OH213183   5.621   7.775   5.675
 4413TIP3    H113184   5.689   7.731   5.726
 4413TIP3    H213185   5.633   7.742   5.586
 4414TIP3   OH213186   0.117   1.368   0.345
 4414TIP3    H113187   0.028   1.399   0.328
 4414TIP3    H213188   0.173   1.441   0.319
 4415TIP3   OH213189   4.861   7.202   2.895
 4415TIP3    H113190   4.819   7.286   2.878
 4415TIP3    H213191   4.811   7.139   2.844
 4416TIP3   OH213192   1.125   3.819   3.987
 4416TIP3    H113193   1.159   3.782   4.068
 4416TIP3    H213194   1.115   3.912   4.005
 4417TIP3   OH213195   1.426   7.189   0.080
 4417TIP3    H113196   1.395   7.113   0.130
 4417TIP3    H213197   1.446   7.255   0.146
 4418TIP3   OH213198   7.134   5.773   0.817
 4418TIP3    H113199   7.127   5.789   0.911
 4418TIP3    H213200   7.106   5.855   0.776
 4419TIP3   OH213201   5.824   1.501   4.874
 4419TIP3    H113202   5.741   1.489   4.828
 4419TIP3    H213203   5.818   1.442   4.949
 4420TIP3   OH213204   0.137   5.734   3.481
 4420TIP3    H113205   0.104   5.721   3.392
 4420TIP3    H213206   0.133   5.828   3.495
 4421TIP3   OH213207   6.537   5.216   3.371
 4421TIP3    H113208   6.448   5.188   3.393
 4421TIP3    H213209   6.526   5.271   3.294
 4422TIP3   OH213210   4.409   1.615   3.614
 4422TIP3    H113211   4.437   1.677   3.546
 4422TIP3    H213212   4.313   1.624   3.616
 4423TIP3   OH213213   0.685   6.725   5.924
 4423TIP3    H113214   0.593   6.703   5.933
 4423TIP3    H213215   0.704   6.784   5.997
 4424TIP3   OH213216   8.084   6.220   4.328
 4424TIP3    H113217   8.050   6.202   4.415
 4424TIP3    H213218   8.032   6.293   4.296
 4425TIP3   OH213219   0.345   0.520   1.710
 4425TIP3    H113220   0.264   0.567   1.732
 4425TIP3    H213221   0.363   0.546   1.619
 4426TIP3   OH213222   1.372   6.282   1.207
 4426TIP3    H113223   1.405   6.352   1.263
 4426TIP3    H213224   1.281   6.269   1.235
 4427TIP3   OH213225   4.799   0.958   1.912
 4427TIP3    H113226   4.759   1.039   1.944
 4427TIP3    H213227   4.803   0.901   1.989
 4428TIP3   OH213228   6.022   7.606   1.835
 4428TIP3    H113229   6.090   7.553   1.876
 4428TIP3    H213230   5.971   7.641   1.908
 4429TIP3   OH213231   6.361   2.010   5.003
 4429TIP3    H113232   6.417   1.992   4.927
 4429TIP3    H213233   6.421   2.043   5.070
 4430TIP3   OH213234   0.099   4.258   6.615
 4430TIP3    H113235   0.038   4.314   6.567
 4430TIP3    H213236   0.148   4.211   6.547
 4431TIP3   OH213237   4.029   4.235   6.455
 4431TIP3    H113238   4.092   4.163   6.459
 4431TIP3    H213239   3.944   4.192   6.444
 4432TIP3   OH213240   2.189   5.872   5.930
 4432TIP3    H113241   2.177   5.787   5.887
 4432TIP3    H213242   2.103   5.913   5.926
 4433TIP3   OH213243   1.203   2.688   5.710
 4433TIP3    H113244   1.282   2.735   5.738
 4433TIP3    H213245   1.132   2.731   5.758
 4434TIP3   OH213246   4.100   2.996   4.871
 4434TIP3    H113247   4.184   3.039   4.889
 4434TIP3    H213248   4.084   2.943   4.949
 4435TIP3   OH213249   1.795   6.844   0.159
 4435TIP3    H113250   1.713   6.871   0.200
 4435TIP3    H213251   1.807   6.753   0.185
 4436TIP3   OH213252   0.829   6.423   6.168
 4436TIP3    H113253   0.745   6.378   6.161
 4436TIP3    H213254   0.809   6.507   6.211
 4437TIP3   OH213255   6.441   1.797   4.571
 4437TIP3    H113256   6.362   1.748   4.595
 4437TIP3    H213257   6.410   1.887   4.560
 4438TIP3   OH213258   5.198   3.703   3.374
 4438TIP3    H113259   5.217   3.763   3.446
 4438TIP3    H213260   5.174   3.760   3.301
 4439TIP3   OH213261   6.904   0.355   1.780
 4439TIP3    H113262   6.812   0.352   1.754
 4439TIP3    H213263   6.938   0.434   1.738
 4440TIP3   OH213264   7.454   7.664   5.363
 4440TIP3    H113265   7.532   7.631   5.320
 4440TIP3    H213266   7.382   7.614   5.325
 4441TIP3   OH213267   6.989   4.130   4.464
 4441TIP3    H113268   7.018   4.198   4.524
 4441TIP3    H213269   7.055   4.127   4.396
 4442TIP3   OH213270   3.130   5.858   3.476
 4442TIP3    H113271   3.115   5.865   3.382
 4442TIP3    H213272   3.059   5.802   3.508
 4443TIP3   OH213273   3.375   7.585   3.255
 4443TIP3    H113274   3.323   7.584   3.175
 4443TIP3    H213275   3.442   7.518   3.241
 4444TIP3   OH213276   2.262   0.916   3.283
 4444TIP3    H113277   2.189   0.975   3.299
 4444TIP3    H213278   2.221   0.831   3.268
 4445TIP3   OH213279   4.572   5.404   5.436
 4445TIP3    H113280   4.655   5.401   5.388
 4445TIP3    H213281   4.508   5.431   5.371
 4446TIP3   OH213282   1.469   0.455   4.984
 4446TIP3    H113283   1.437   0.475   5.072
 4446TIP3    H213284   1.431   0.523   4.929
 4447TIP3   OH213285   1.356   4.130   6.542
 4447TIP3    H113286   1.350   4.175   6.626
 4447TIP3    H213287   1.345   4.199   6.476
 4448TIP3   OH213288   2.775   1.125   0.430
 4448TIP3    H113289   2.789   1.032   0.443
 4448TIP3    H213290   2.682   1.138   0.450
 4449TIP3   OH213291   1.601   4.751   2.179
 4449TIP3    H113292   1.585   4.776   2.270
 4449TIP3    H213293   1.690   4.715   2.179
 4450TIP3   OH213294   3.678   3.389   1.538
 4450TIP3    H113295   3.612   3.327   1.507
 4450TIP3    H213296   3.689   3.451   1.467
 4451TIP3   OH213297   1.273   2.902   4.723
 4451TIP3    H113298   1.263   2.879   4.630
 4451TIP3    H213299   1.253   2.996   4.726
 4452TIP3   OH213300   5.192   6.553   6.688
 4452TIP3    H113301   5.177   6.647   6.690
 4452TIP3    H213302   5.234   6.537   6.604
 4453TIP3   OH213303   3.185   0.047   3.509
 4453TIP3    H113304   3.198  -0.004   3.429
 4453TIP3    H213305   3.199   0.138   3.481
 4454TIP3   OH213306   0.435   4.186   3.787
 4454TIP3    H113307   0.364   4.213   3.845
 4454TIP3    H213308   0.507   4.247   3.806
 4455TIP3   OH213309   5.654   7.323   4.990
 4455TIP3    H113310   5.623   7.234   4.976
 4455TIP3    H213311   5.737   7.312   5.037
 4456TIP3   OH213312   4.900   6.660   2.289
 4456TIP3    H113313   4.804   6.656   2.282
 4456TIP3    H213314   4.931   6.659   2.199
 4457TIP3   OH213315   3.436   5.725   6.115
 4457TIP3    H113316   3.526   5.751   6.099
 4457TIP3    H213317   3.425   5.733   6.210
 4458TIP3   OH213318   5.312   3.289   4.111
 4458TIP3    H113319   5.336   3.348   4.040
 4458TIP3    H213320   5.368   3.212   4.099
 4459TIP3   OH213321   7.279   5.646   5.969
 4459TIP3    H113322   7.341   5.619   6.036
 4459TIP3    H213323   7.194   5.650   6.014
 4460TIP3   OH213324   5.502   7.262   4.313
 4460TIP3    H113325   5.425   7.312   4.287
 4460TIP3    H213326   5.572   7.295   4.257
 4461TIP3   OH213327   5.427   2.171   2.708
 4461TIP3    H113328   5.344   2.194   2.667
 4461TIP3    H213329   5.492   2.227   2.664
 4462TIP3   OH213330   2.260   1.810   3.975
 4462TIP3    H113331   2.260   1.715   3.962
 4462TIP3    H213332   2.310   1.823   4.056
 4463TIP3   OH213333   3.503   1.462   0.535
 4463TIP3    H113334   3.498   1.427   0.446
 4463TIP3    H213335   3.445   1.538   0.534
 4464TIP3   OH213336   7.836   1.343   0.932
 4464TIP3    H113337   7.795   1.424   0.964
 4464TIP3    H213338   7.797   1.274   0.986
 4465TIP3   OH213339   6.460   1.099   4.114
 4465TIP3    H113340   6.471   1.130   4.204
 4465TIP3    H213341   6.500   1.012   4.114
 4466TIP3   OH213342   3.236   3.890   0.817
 4466TIP3    H113343   3.211   3.816   0.762
 4466TIP3    H213344   3.275   3.850   0.895
 4467TIP3   OH213345   8.178   6.173   5.244
 4467TIP3    H113346   8.138   6.187   5.159
 4467TIP3    H213347   8.120   6.112   5.289
 4468TIP3   OH213348   5.495   1.670   0.999
 4468TIP3    H113349   5.512   1.730   0.927
 4468TIP3    H213350   5.487   1.726   1.076
 4469TIP3   OH213351   5.089   4.282   1.861
 4469TIP3    H113352   5.167   4.335   1.842
 4469TIP3    H213353   5.114   4.228   1.936
 4470TIP3   OH213354   8.189   0.232   3.208
 4470TIP3    H113355   8.178   0.138   3.200
 4470TIP3    H213356   8.275   0.243   3.250
 4471TIP3   OH213357   5.321   0.482   3.046
 4471TIP3    H113358   5.355   0.456   3.131
 4471TIP3    H213359   5.267   0.408   3.018
 4472TIP3   OH213360   3.956   1.754   0.253
 4472TIP3    H113361   3.974   1.838   0.295
 4472TIP3    H213362   3.898   1.708   0.315
 4473TIP3   OH213363   1.715   3.865   5.478
 4473TIP3    H113364   1.782   3.930   5.457
 4473TIP3    H213365   1.702   3.875   5.573
 4474TIP3   OH213366   6.423   6.672   2.464
 4474TIP3    H113367   6.515   6.660   2.488
 4474TIP3    H213368   6.424   6.689   2.370
 4475TIP3   OH213369   7.630   6.985   2.115
 4475TIP3    H113370   7.657   6.946   2.198
 4475TIP3    H213371   7.671   6.929   2.048
 4476TIP3   OH213372   1.630   6.682   4.505
 4476TIP3    H113373   1.651   6.776   4.503
 4476TIP3    H213374   1.694   6.642   4.446
 4477TIP3   OH213375   6.696   4.774   6.163
 4477TIP3    H113376   6.741   4.700   6.202
 4477TIP3    H213377   6.766   4.836   6.142
 4478TIP3   OH213378   1.252   3.328   2.268
 4478TIP3    H113379   1.204   3.363   2.192
 4478TIP3    H213380   1.220   3.379   2.342
 4479TIP3   OH213381   7.280   6.488   5.716
 4479TIP3    H113382   7.259   6.479   5.623
 4479TIP3    H213383   7.242   6.573   5.740
 4480TIP3   OH213384   4.458   1.493   2.322
 4480TIP3    H113385   4.459   1.587   2.308
 4480TIP3    H213386   4.398   1.480   2.396
 4481TIP3   OH213387   5.753   2.092   1.548
 4481TIP3    H113388   5.692   2.062   1.480
 4481TIP3    H213389   5.834   2.045   1.529
 4482TIP3   OH213390   1.799   2.297   5.180
 4482TIP3    H113391   1.829   2.300   5.089
 4482TIP3    H213392   1.874   2.328   5.231
 4483TIP3   OH213393   2.376   0.166   2.942
 4483TIP3    H113394   2.309   0.220   2.900
 4483TIP3    H213395   2.435   0.229   2.984
 4484TIP3   OH213396   1.064   7.746   2.774
 4484TIP3    H113397   0.992   7.684   2.767
 4484TIP3    H213398   1.133   7.709   2.720
 4485TIP3   OH213399   5.975   3.125   0.855
 4485TIP3    H113400   5.966   3.117   0.950
 4485TIP3    H213401   6.051   3.182   0.843
 4486TIP3   OH213402   1.837   5.112   4.428
 4486TIP3    H113403   1.817   5.170   4.354
 4486TIP3    H213404   1.772   5.136   4.494
 4487TIP3   OH213405   2.096   0.125   5.676
 4487TIP3    H113406   2.085   0.106   5.583
 4487TIP3    H213407   2.041   0.202   5.691
 4488TIP3   OH213408   3.295   3.247   0.830
 4488TIP3    H113409   3.348   3.201   0.895
 4488TIP3    H213410   3.358   3.281   0.767
 4489TIP3   OH213411   2.472   1.245   2.627
 4489TIP3    H113412   2.452   1.191   2.551
 4489TIP3    H213413   2.413   1.320   2.620
 4490TIP3   OH213414   5.747   0.479   3.038
 4490TIP3    H113415   5.675   0.538   3.062
 4490TIP3    H213416   5.708   0.392   3.042
 4491TIP3   OH213417   1.446   4.708   6.417
 4491TIP3    H113418   1.428   4.614   6.427
 4491TIP3    H213419   1.529   4.721   6.462
 4492TIP3   OH213420   0.419   6.957   0.739
 4492TIP3    H113421   0.442   6.918   0.823
 4492TIP3    H213422   0.497   7.007   0.714
 4493TIP3   OH213423   7.435   5.301   4.398
 4493TIP3    H113424   7.488   5.237   4.350
 4493TIP3    H213425   7.410   5.256   4.479
 4494TIP3   OH213426   4.035   5.823   3.585
 4494TIP3    H113427   4.021   5.865   3.501
 4494TIP3    H213428   3.952   5.834   3.632
 4495TIP3   OH213429   4.638   5.508   2.401
 4495TIP3    H113430   4.576   5.577   2.377
 4495TIP3    H213431   4.697   5.501   2.327
 4496TIP3   OH213432   2.416   3.374   5.727
 4496TIP3    H113433   2.494   3.319   5.717
 4496TIP3    H213434   2.376   3.342   5.808
 4497TIP3   OH213435   6.058   4.748   1.043
 4497TIP3    H113436   6.116   4.784   0.976
 4497TIP3    H213437   5.979   4.801   1.037
 4498TIP3   OH213438   3.587   2.666   3.559
 4498TIP3    H113439   3.596   2.757   3.585
 4498TIP3    H213440   3.547   2.623   3.635
 4499TIP3   OH213441   2.215   4.841   3.689
 4499TIP3    H113442   2.247   4.845   3.599
 4499TIP3    H213443   2.127   4.877   3.685
 4500TIP3   OH213444   8.094   0.689   3.436
 4500TIP3    H113445   8.090   0.682   3.341
 4500TIP3    H213446   8.096   0.598   3.467
 4501TIP3   OH213447   4.806   0.491   3.210
 4501TIP3    H113448   4.813   0.471   3.304
 4501TIP3    H213449   4.833   0.410   3.167
 4502TIP3   OH213450   4.002   3.189   0.110
 4502TIP3    H113451   4.007   3.167   0.017
 4502TIP3    H213452   4.052   3.271   0.118
 4503TIP3   OH213453   6.953   5.380   5.246
 4503TIP3    H113454   6.975   5.288   5.259
 4503TIP3    H213455   6.915   5.383   5.158
 4504TIP3   OH213456   2.588   5.047   3.636
 4504TIP3    H113457   2.635   5.077   3.714
 4504TIP3    H213458   2.639   5.082   3.563
 4505TIP3   OH213459   3.487   5.670   4.775
 4505TIP3    H113460   3.441   5.702   4.852
 4505TIP3    H213461   3.579   5.694   4.790
 4506TIP3   OH213462   4.241   7.099   5.225
 4506TIP3    H113463   4.186   7.089   5.148
 4506TIP3    H213464   4.204   7.175   5.271
 4507TIP3   OH213465   0.604   7.179   4.744
 4507TIP3    H113466   0.526   7.188   4.689
 4507TIP3    H213467   0.617   7.266   4.781
 4508TIP3   OH213468   2.258   0.907   5.839
 4508TIP3    H113469   2.272   0.991   5.796
 4508TIP3    H213470   2.244   0.845   5.768
 4509TIP3   OH213471   7.104   5.837   1.468
 4509TIP3    H113472   7.175   5.892   1.503
 4509TIP3    H213473   7.149   5.764   1.425
 4510TIP3   OH213474   3.013   2.607   2.426
 4510TIP3    H113475   3.093   2.651   2.457
 4510TIP3    H213476   2.959   2.600   2.505
 4511TIP3   OH213477   3.023   3.295   6.479
 4511TIP3    H113478   3.077   3.346   6.420
 4511TIP3    H213479   2.945   3.274   6.428
 4512TIP3   OH213480   1.713   0.590   0.855
 4512TIP3    H113481   1.743   0.537   0.781
 4512TIP3    H213482   1.790   0.640   0.881
 4513TIP3   OH213483   1.394   0.990   5.686
 4513TIP3    H113484   1.356   0.910   5.652
 4513TIP3    H213485   1.428   0.966   5.772
 4514TIP3   OH213486   5.981   7.308   4.940
 4514TIP3    H113487   6.028   7.259   4.872
 4514TIP3    H213488   6.002   7.262   5.021
 4515TIP3   OH213489   3.950   3.994   6.180
 4515TIP3    H113490   4.039   4.008   6.148
 4515TIP3    H213491   3.921   4.080   6.210
 4516TIP3   OH213492   1.822   5.964   2.004
 4516TIP3    H113493   1.872   6.035   1.965
 4516TIP3    H213494   1.831   5.892   1.942
 4517TIP3   OH213495   7.539   2.677   6.482
 4517TIP3    H113496   7.470   2.700   6.544
 4517TIP3    H213497   7.619   2.673   6.535
 4518TIP3   OH213498   1.484   4.824   2.555
 4518TIP3    H113499   1.453   4.743   2.515
 4518TIP3    H213500   1.427   4.892   2.519
 4519TIP3   OH213501   4.600   4.517   4.297
 4519TIP3    H113502   4.554   4.578   4.355
 4519TIP3    H213503   4.608   4.437   4.348
 4520TIP3   OH213504   0.377   6.580   0.421
 4520TIP3    H113505   0.357   6.505   0.364
 4520TIP3    H213506   0.468   6.602   0.399
 4521TIP3   OH213507   3.362   7.657   0.202
 4521TIP3    H113508   3.455   7.637   0.199
 4521TIP3    H213509   3.330   7.611   0.280
 4522TIP3   OH213510   4.015   3.434   2.527
 4522TIP3    H113511   4.021   3.353   2.577
 4522TIP3    H213512   3.939   3.422   2.470
 4523TIP3   OH213513   4.554   5.985   4.652
 4523TIP3    H113514   4.554   6.010   4.560
 4523TIP3    H213515   4.618   6.043   4.694
 4524TIP3   OH213516   5.562   6.769   1.607
 4524TIP3    H113517   5.528   6.834   1.669
 4524TIP3    H213518   5.512   6.784   1.526
 4525TIP3   OH213519   7.694   5.458   4.893
 4525TIP3    H113520   7.709   5.416   4.978
 4525TIP3    H213521   7.642   5.536   4.914
 4526TIP3   OH213522   6.744   0.167   2.699
 4526TIP3    H113523   6.791   0.233   2.648
 4526TIP3    H213524   6.759   0.192   2.790
 4527TIP3   OH213525   4.340   3.050   4.197
 4527TIP3    H113526   4.311   2.965   4.232
 4527TIP3    H213527   4.352   3.105   4.275
 4528TIP3   OH213528   3.284   2.150   6.205
 4528TIP3    H113529   3.228   2.217   6.166
 4528TIP3    H213530   3.223   2.091   6.249
 4529TIP3   OH213531   2.930   5.095   3.115
 4529TIP3    H113532   3.013   5.055   3.089
 4529TIP3    H213533   2.879   5.024   3.154
 4530TIP3   OH213534   7.858   2.931   4.825
 4530TIP3    H113535   7.869   3.000   4.760
 4530TIP3    H213536   7.806   2.971   4.895
 4531TIP3   OH213537   1.095   4.357   1.705
 4531TIP3    H113538   1.002   4.349   1.685
 4531TIP3    H213539   1.131   4.410   1.634
 4532TIP3   OH213540   5.174   0.676   2.307
 4532TIP3    H113541   5.134   0.677   2.220
 4532TIP3    H213542   5.131   0.604   2.352
 4533TIP3   OH213543   6.324   3.474   1.357
 4533TIP3    H113544   6.408   3.506   1.326
 4533TIP3    H213545   6.260   3.514   1.299
 4534TIP3   OH213546   5.472   2.419   1.498
 4534TIP3    H113547   5.418   2.498   1.497
 4534TIP3    H213548   5.502   2.413   1.589
 4535TIP3   OH213549   0.492   0.459   3.617
 4535TIP3    H113550   0.434   0.531   3.641
 4535TIP3    H213551   0.474   0.443   3.524
 4536TIP3   OH213552   4.951   3.096   5.575
 4536TIP3    H113553   4.893   3.166   5.607
 4536TIP3    H213554   4.902   3.015   5.590
 4537TIP3   OH213555   2.872   0.333   1.931
 4537TIP3    H113556   2.965   0.329   1.956
 4537TIP3    H213557   2.830   0.269   1.989
 4538TIP3   OH213558   2.818   0.694   3.818
 4538TIP3    H113559   2.874   0.687   3.740
 4538TIP3    H213560   2.767   0.774   3.804
 4539TIP3   OH213561   6.952   7.294   4.144
 4539TIP3    H113562   6.925   7.213   4.100
 4539TIP3    H213563   6.870   7.334   4.172
 4540TIP3   OH213564   3.654   4.337   3.992
 4540TIP3    H113565   3.571   4.365   3.953
 4540TIP3    H213566   3.629   4.295   4.074
 4541TIP3   OH213567   3.019   2.328   6.283
 4541TIP3    H113568   3.046   2.246   6.324
 4541TIP3    H213569   2.931   2.344   6.318
 4542TIP3   OH213570   6.430   2.607   5.530
 4542TIP3    H113571   6.443   2.622   5.437
 4542TIP3    H213572   6.346   2.649   5.550
 4543TIP3   OH213573   6.734   4.315   4.789
 4543TIP3    H113574   6.683   4.297   4.868
 4543TIP3    H213575   6.731   4.234   4.739
 4544TIP3   OH213576   6.524   6.964   0.077
 4544TIP3    H113577   6.476   6.998   0.001
 4544TIP3    H213578   6.462   6.970   0.150
 4545TIP3   OH213579   1.162   2.277   4.651
 4545TIP3    H113580   1.225   2.283   4.722
 4545TIP3    H213581   1.146   2.184   4.640
 4546TIP3   OH213582   7.239   1.216   6.295
 4546TIP3    H113583   7.296   1.292   6.284
 4546TIP3    H213584   7.297   1.141   6.284
 4547TIP3   OH213585   5.731   3.185   1.209
 4547TIP3    H113586   5.821   3.183   1.177
 4547TIP3    H213587   5.677   3.176   1.131
 4548TIP3   OH213588   6.381   5.155   0.293
 4548TIP3    H113589   6.463   5.180   0.250
 4548TIP3    H213590   6.393   5.064   0.318
 4549TIP3   OH213591   7.106   6.135   2.865
 4549TIP3    H113592   7.070   6.177   2.943
 4549TIP3    H213593   7.199   6.158   2.865
 4550TIP3   OH213594   1.451   2.328   2.120
 4550TIP3    H113595   1.380   2.390   2.103
 4550TIP3    H213596   1.477   2.345   2.211
 4551TIP3   OH213597   0.913   6.461   4.563
 4551TIP3    H113598   0.861   6.462   4.483
 4551TIP3    H213599   0.977   6.531   4.552
 4552TIP3   OH213600   3.877   1.583   4.266
 4552TIP3    H113601   3.801   1.584   4.208
 4552TIP3    H213602   3.897   1.675   4.282
 4553TIP3   OH213603   5.895   2.277   3.723
 4553TIP3    H113604   5.917   2.268   3.816
 4553TIP3    H213605   5.897   2.187   3.690
 4554TIP3   OH213606   6.506   4.277   5.007
 4554TIP3    H113607   6.484   4.315   5.092
 4554TIP3    H213608   6.426   4.232   4.979
 4555TIP3   OH213609   0.853   7.237   0.356
 4555TIP3    H113610   0.882   7.205   0.270
 4555TIP3    H213611   0.888   7.326   0.362
 4556TIP3   OH213612   7.599   6.578   3.301
 4556TIP3    H113613   7.646   6.632   3.364
 4556TIP3    H213614   7.554   6.640   3.244
 4557TIP3   OH213615   3.656   6.027   6.244
 4557TIP3    H113616   3.733   6.053   6.296
 4557TIP3    H213617   3.680   5.942   6.207
 4558TIP3   OH213618   2.924   3.130   2.942
 4558TIP3    H113619   2.905   3.213   2.897
 4558TIP3    H213620   3.019   3.122   2.939
 4559TIP3   OH213621   7.804   7.232   5.464
 4559TIP3    H113622   7.737   7.264   5.525
 4559TIP3    H213623   7.772   7.146   5.437
 4560TIP3   OH213624   4.897   1.840   2.838
 4560TIP3    H113625   4.890   1.936   2.834
 4560TIP3    H213626   4.817   1.813   2.884
 4561TIP3   OH213627   3.848   4.775   0.290
 4561TIP3    H113628   3.921   4.734   0.337
 4561TIP3    H213629   3.886   4.800   0.205
 4562TIP3   OH213630   7.186   2.962   0.750
 4562TIP3    H113631   7.141   3.038   0.714
 4562TIP3    H213632   7.246   2.999   0.815
 4563TIP3   OH213633   7.764   4.150   4.907
 4563TIP3    H113634   7.811   4.067   4.899
 4563TIP3    H213635   7.818   4.213   4.858
 4564TIP3   OH213636   4.401   3.997   3.178
 4564TIP3    H113637   4.313   3.979   3.145
 4564TIP3    H213638   4.390   4.070   3.240
 4565TIP3   OH213639   5.348   4.284   4.559
 4565TIP3    H113640   5.360   4.364   4.508
 4565TIP3    H213641   5.430   4.274   4.607
 4566TIP3   OH213642   0.859   4.833   1.995
 4566TIP3    H113643   0.891   4.751   1.958
 4566TIP3    H213644   0.932   4.868   2.046
 4567TIP3   OH213645   6.389   0.267   6.209
 4567TIP3    H113646   6.420   0.352   6.176
 4567TIP3    H213647   6.468   0.214   6.216
 4568TIP3   OH213648   1.882   6.516   2.494
 4568TIP3    H113649   1.803   6.512   2.548
 4568TIP3    H213650   1.855   6.476   2.410
 4569TIP3   OH213651   6.140   3.309   5.180
 4569TIP3    H113652   6.095   3.367   5.242
 4569TIP3    H213653   6.098   3.223   5.193
 4570TIP3   OH213654   2.260   1.714   1.488
 4570TIP3    H113655   2.320   1.757   1.549
 4570TIP3    H213656   2.314   1.649   1.443
 4571TIP3   OH213657   1.813   2.422   0.306
 4571TIP3    H113658   1.876   2.387   0.368
 4571TIP3    H213659   1.777   2.345   0.262
 4572TIP3   OH213660   8.286   0.718   5.386
 4572TIP3    H113661   8.281   0.794   5.444
 4572TIP3    H213662   8.262   0.753   5.300
 4573TIP3   OH213663   3.728   6.036   4.109
 4573TIP3    H113664   3.745   6.068   4.020
 4573TIP3    H213665   3.640   6.000   4.105
 4574TIP3   OH213666   4.680   4.497   2.911
 4574TIP3    H113667   4.739   4.561   2.951
 4574TIP3    H213668   4.739   4.432   2.872
 4575TIP3   OH213669   5.398   1.303   3.044
 4575TIP3    H113670   5.415   1.304   3.138
 4575TIP3    H213671   5.477   1.341   3.005
 4576TIP3   OH213672   3.448   6.984   4.061
 4576TIP3    H113673   3.479   7.069   4.092
 4576TIP3    H213674   3.466   6.924   4.134
 4577TIP3   OH213675   7.857   7.752   4.885
 4577TIP3    H113676   7.869   7.681   4.948
 4577TIP3    H213677   7.919   7.819   4.912
 4578TIP3   OH213678   7.452   7.175   0.065
 4578TIP3    H113679   7.521   7.217   0.116
 4578TIP3    H213680   7.498   7.116   0.006
 4579TIP3   OH213681   6.846   5.199   6.166
 4579TIP3    H113682   6.937   5.195   6.197
 4579TIP3    H213683   6.803   5.258   6.228
 4580TIP3   OH213684   3.588   4.213   5.530
 4580TIP3    H113685   3.678   4.184   5.543
 4580TIP3    H213686   3.583   4.235   5.437
 4581TIP3   OH213687   7.501   1.538   2.511
 4581TIP3    H113688   7.493   1.470   2.443
 4581TIP3    H213689   7.412   1.553   2.541
 4582TIP3   OH213690   0.064   1.462   2.216
 4582TIP3    H113691   0.105   1.389   2.264
 4582TIP3    H213692  -0.005   1.493   2.275
 4583TIP3   OH213693   7.074   0.635   5.614
 4583TIP3    H113694   7.069   0.694   5.538
 4583TIP3    H213695   7.006   0.570   5.596
 4584TIP3   OH213696   8.283   1.887   1.477
 4584TIP3    H113697   8.275   1.922   1.388
 4584TIP3    H213698   8.228   1.809   1.476
 4585TIP3   OH213699   4.533   4.302   6.366
 4585TIP3    H113700   4.595   4.373   6.377
 4585TIP3    H213701   4.532   4.256   6.450
 4586TIP3   OH213702   1.410   4.749   0.092
 4586TIP3    H113703   1.460   4.707   0.023
 4586TIP3    H213704   1.463   4.737   0.171
 4587TIP3   OH213705   4.891   0.097   0.653
 4587TIP3    H113706   4.840   0.073   0.731
 4587TIP3    H213707   4.825   0.119   0.588
 4588TIP3   OH213708   7.404   4.252   6.735
 4588TIP3    H113709   7.406   4.204   6.819
 4588TIP3    H213710   7.496   4.262   6.712
 4589TIP3   OH213711   2.220   1.244   6.679
 4589TIP3    H113712   2.145   1.184   6.677
 4589TIP3    H213713   2.291   1.194   6.639
 4590TIP3   OH213714   4.809   5.218   0.824
 4590TIP3    H113715   4.758   5.221   0.904
 4590TIP3    H213716   4.854   5.302   0.820
 4591TIP3   OH213717   5.554   1.266   1.618
 4591TIP3    H113718   5.474   1.310   1.590
 4591TIP3    H213719   5.595   1.328   1.679
 4592TIP3   OH213720   0.208   5.608   3.186
 4592TIP3    H113721   0.293   5.563   3.180
 4592TIP3    H213722   0.219   5.688   3.135
 4593TIP3   OH213723   6.697   3.985   4.787
 4593TIP3    H113724   6.687   3.913   4.724
 4593TIP3    H213725   6.630   4.048   4.763
 4594TIP3   OH213726   2.823   2.267   2.002
 4594TIP3    H113727   2.900   2.225   2.039
 4594TIP3    H213728   2.779   2.199   1.951
 4595TIP3   OH213729   8.126   6.457   5.381
 4595TIP3    H113730   8.198   6.480   5.441
 4595TIP3    H213731   8.152   6.373   5.343
 4596TIP3   OH213732   1.680   4.045   1.087
 4596TIP3    H113733   1.756   3.989   1.069
 4596TIP3    H213734   1.631   3.998   1.154
 4597TIP3   OH213735   5.255   3.402   4.623
 4597TIP3    H113736   5.255   3.399   4.528
 4597TIP3    H213737   5.326   3.463   4.645
 4598TIP3   OH213738   6.627   4.846   6.430
 4598TIP3    H113739   6.620   4.780   6.361
 4598TIP3    H213740   6.561   4.911   6.407
 4599TIP3   OH213741   3.010   6.949   5.665
 4599TIP3    H113742   3.022   6.864   5.623
 4599TIP3    H213743   2.965   6.929   5.747
 4600TIP3   OH213744   8.135   0.902   3.204
 4600TIP3    H113745   8.229   0.886   3.210
 4600TIP3    H213746   8.097   0.817   3.183
 4601TIP3   OH213747   1.477   0.900   0.751
 4601TIP3    H113748   1.559   0.946   0.767
 4601TIP3    H213749   1.484   0.868   0.661
 4602TIP3   OH213750   2.916   7.583   0.831
 4602TIP3    H113751   2.823   7.601   0.846
 4602TIP3    H213752   2.957   7.597   0.916
 4603TIP3   OH213753   2.372   0.322   1.488
 4603TIP3    H113754   2.399   0.412   1.468
 4603TIP3    H213755   2.454   0.276   1.504
 4604TIP3   OH213756   6.199   3.141   1.518
 4604TIP3    H113757   6.197   3.091   1.599
 4604TIP3    H213758   6.268   3.206   1.532
 4605TIP3   OH213759   7.350   7.564   6.126
 4605TIP3    H113760   7.409   7.527   6.192
 4605TIP3    H213761   7.405   7.621   6.073
 4606TIP3   OH213762   0.212   5.875   1.087
 4606TIP3    H113763   0.226   5.969   1.076
 4606TIP3    H213764   0.123   5.860   1.055
 4607TIP3   OH213765   1.205   6.137   2.305
 4607TIP3    H113766   1.176   6.117   2.394
 4607TIP3    H213767   1.128   6.173   2.262
 4608TIP3   OH213768   5.110   4.129   1.610
 4608TIP3    H113769   5.108   4.162   1.700
 4608TIP3    H213770   5.019   4.128   1.582
 4609TIP3   OH213771   1.857   7.538   6.379
 4609TIP3    H113772   1.908   7.615   6.404
 4609TIP3    H213773   1.893   7.467   6.433
 4610TIP3   OH213774   2.893   2.413   2.263
 4610TIP3    H113775   2.959   2.468   2.304
 4610TIP3    H213776   2.810   2.455   2.284
 4611TIP3   OH213777   5.033   4.947   4.598
 4611TIP3    H113778   5.105   4.970   4.658
 4611TIP3    H213779   5.065   4.869   4.553
 4612TIP3   OH213780   1.703   1.695   3.271
 4612TIP3    H113781   1.650   1.671   3.347
 4612TIP3    H213782   1.683   1.787   3.256
 4613TIP3   OH213783   5.825   4.301   3.308
 4613TIP3    H113784   5.872   4.335   3.231
 4613TIP3    H213785   5.790   4.379   3.351
 4614TIP3   OH213786   0.651   3.346   2.719
 4614TIP3    H113787   0.742   3.337   2.691
 4614TIP3    H213788   0.652   3.419   2.780
 4615TIP3   OH213789   7.456   6.604   4.656
 4615TIP3    H113790   7.488   6.672   4.596
 4615TIP3    H213791   7.364   6.625   4.668
 4616TIP3   OH213792   2.199   3.552   2.332
 4616TIP3    H113793   2.285   3.586   2.359
 4616TIP3    H213794   2.150   3.545   2.414
 4617TIP3   OH213795   1.550   1.586   4.899
 4617TIP3    H113796   1.548   1.536   4.981
 4617TIP3    H213797   1.641   1.615   4.890
 4618TIP3   OH213798   7.515   5.710   5.009
 4618TIP3    H113799   7.543   5.763   5.084
 4618TIP3    H213800   7.558   5.750   4.934
 4619TIP3   OH213801   2.073   3.086   2.327
 4619TIP3    H113802   1.995   3.100   2.380
 4619TIP3    H213803   2.056   3.134   2.245
 4620TIP3   OH213804   5.420   3.027   0.234
 4620TIP3    H113805   5.373   2.954   0.275
 4620TIP3    H213806   5.367   3.050   0.158
 4621TIP3   OH213807   6.079   3.273   3.758
 4621TIP3    H113808   6.129   3.309   3.831
 4621TIP3    H213809   6.134   3.290   3.681
 4622TIP3   OH213810   2.615   7.683   6.367
 4622TIP3    H113811   2.533   7.677   6.416
 4622TIP3    H213812   2.606   7.617   6.298
 4623TIP3   OH213813   1.697   1.606   4.204
 4623TIP3    H113814   1.745   1.648   4.275
 4623TIP3    H213815   1.623   1.564   4.247
 4624TIP3   OH213816   4.167   2.725   6.773
 4624TIP3    H113817   4.095   2.778   6.809
 4624TIP3    H213818   4.171   2.750   6.681
 4625TIP3   OH213819   5.294   0.555   1.404
 4625TIP3    H113820   5.269   0.647   1.421
 4625TIP3    H213821   5.389   0.556   1.402
 4626TIP3   OH213822   1.611   4.905   1.476
 4626TIP3    H113823   1.526   4.887   1.437
 4626TIP3    H213824   1.629   4.996   1.452
 4627TIP3   OH213825   0.227   6.564   5.737
 4627TIP3    H113826   0.196   6.634   5.679
 4627TIP3    H213827   0.147   6.527   5.774
 4628TIP3   OH213828   1.085   7.724   4.123
 4628TIP3    H113829   1.082   7.773   4.041
 4628TIP3    H213830   1.054   7.636   4.099
 4629TIP3   OH213831   1.025   0.080   6.437
 4629TIP3    H113832   1.119   0.096   6.450
 4629TIP3    H213833   0.985   0.107   6.520
 4630TIP3   OH213834   7.378   5.560   4.426
 4630TIP3    H113835   7.403   5.603   4.344
 4630TIP3    H213836   7.390   5.467   4.408
 4631TIP3   OH213837   7.745   6.519   5.143
 4631TIP3    H113838   7.809   6.578   5.183
 4631TIP3    H213839   7.770   6.514   5.051
 4632TIP3   OH213840   2.673   3.417   3.048
 4632TIP3    H113841   2.629   3.381   3.125
 4632TIP3    H213842   2.647   3.509   3.046
 4633TIP3   OH213843   1.643   2.704   2.939
 4633TIP3    H113844   1.601   2.790   2.927
 4633TIP3    H213845   1.629   2.683   3.031
 4634TIP3   OH213846   0.211   4.424   2.929
 4634TIP3    H113847   0.152   4.390   2.996
 4634TIP3    H213848   0.281   4.466   2.979
 4635TIP3   OH213849   7.848   6.969   0.216
 4635TIP3    H113850   7.930   7.011   0.188
 4635TIP3    H213851   7.835   7.001   0.305
 4636TIP3   OH213852   6.956   7.780   3.007
 4636TIP3    H113853   6.966   7.698   2.959
 4636TIP3    H213854   6.896   7.759   3.078
 4637TIP3   OH213855   0.464   3.037   2.016
 4637TIP3    H113856   0.480   2.944   2.031
 4637TIP3    H213857   0.501   3.054   1.930
 4638TIP3   OH213858   1.136   3.387   3.433
 4638TIP3    H113859   1.098   3.344   3.510
 4638TIP3    H213860   1.223   3.346   3.425
 4639TIP3   OH213861   0.831   5.277   2.794
 4639TIP3    H113862   0.870   5.338   2.731
 4639TIP3    H213863   0.845   5.191   2.755
 4640TIP3   OH213864   0.581   5.510   5.533
 4640TIP3    H113865   0.615   5.526   5.446
 4640TIP3    H213866   0.598   5.591   5.581
 4641TIP3   OH213867   2.414   6.661   0.030
 4641TIP3    H113868   2.325   6.695   0.036
 4641TIP3    H213869   2.470   6.736   0.051
 4642TIP3   OH213870   6.599   5.234   3.057
 4642TIP3    H113871   6.636   5.234   2.969
 4642TIP3    H213872   6.524   5.293   3.052
 4643TIP3   OH213873   3.437   0.781   6.726
 4643TIP3    H113874   3.431   0.853   6.664
 4643TIP3    H213875   3.363   0.795   6.786
 4644TIP3   OH213876   2.791   4.543   1.577
 4644TIP3    H113877   2.836   4.624   1.600
 4644TIP3    H213878   2.860   4.485   1.545
 4645TIP3   OH213879   0.768   0.074   3.230
 4645TIP3    H113880   0.826   0.081   3.305
 4645TIP3    H213881   0.715   0.154   3.233
 4646TIP3   OH213882   3.749   3.275   0.855
 4646TIP3    H113883   3.749   3.207   0.922
 4646TIP3    H213884   3.833   3.319   0.864
 4647TIP3   OH213885   4.013   2.452   1.337
 4647TIP3    H113886   4.070   2.493   1.403
 4647TIP3    H213887   3.924   2.474   1.365
 4648TIP3   OH213888   0.094   3.204   6.056
 4648TIP3    H113889   0.169   3.233   6.109
 4648TIP3    H213890   0.073   3.117   6.091
 4649TIP3   OH213891   1.305   7.357   1.037
 4649TIP3    H113892   1.248   7.281   1.025
 4649TIP3    H213893   1.245   7.431   1.040
 4650TIP3   OH213894   7.282   5.110   2.016
 4650TIP3    H113895   7.367   5.114   1.971
 4650TIP3    H213896   7.234   5.041   1.970
 4651TIP3   OH213897   5.039   7.571   6.728
 4651TIP3    H113898   5.014   7.485   6.761
 4651TIP3    H213899   4.974   7.591   6.661
 4652TIP3   OH213900   0.187   6.068   4.185
 4652TIP3    H113901   0.155   5.981   4.208
 4652TIP3    H213902   0.246   6.054   4.111
 4653TIP3   OH213903   2.316   3.640   3.119
 4653TIP3    H113904   2.267   3.560   3.135
 4653TIP3    H213905   2.255   3.696   3.070
 4654TIP3   OH213906   5.635   1.896   1.928
 4654TIP3    H113907   5.558   1.860   1.972
 4654TIP3    H213908   5.708   1.873   1.986
 4655TIP3   OH213909   1.010   7.355   6.054
 4655TIP3    H113910   0.993   7.301   5.977
 4655TIP3    H213911   1.092   7.320   6.089
 4656TIP3   OH213912   7.797   2.794   5.689
 4656TIP3    H113913   7.843   2.710   5.682
 4656TIP3    H213914   7.704   2.770   5.691
 4657TIP3   OH213915   5.688   4.481   3.820
 4657TIP3    H113916   5.716   4.563   3.780
 4657TIP3    H213917   5.715   4.488   3.911
 4658TIP3   OH213918   7.449   0.026   6.661
 4658TIP3    H113919   7.358   0.009   6.686
 4658TIP3    H213920   7.461  -0.024   6.581
 4659TIP3   OH213921   6.868   6.257   0.854
 4659TIP3    H113922   6.808   6.236   0.926
 4659TIP3    H213923   6.838   6.342   0.822
 4660TIP3   OH213924   7.893   5.379   5.520
 4660TIP3    H113925   7.972   5.401   5.568
 4660TIP3    H213926   7.848   5.315   5.576
 4661TIP3   OH213927   3.625   6.867   4.676
 4661TIP3    H113928   3.583   6.864   4.590
 4661TIP3    H213929   3.608   6.956   4.708
 4662TIP3   OH213930   2.627   4.765   5.268
 4662TIP3    H113931   2.616   4.702   5.197
 4662TIP3    H213932   2.689   4.725   5.328
 4663TIP3   OH213933   0.986   3.308   0.752
 4663TIP3    H113934   1.075   3.338   0.774
 4663TIP3    H213935   0.988   3.294   0.658
 4664TIP3   OH213936   7.415   3.251   4.706
 4664TIP3    H113937   7.369   3.324   4.664
 4664TIP3    H213938   7.346   3.204   4.753
 4665TIP3   OH213939   5.104   5.597   3.474
 4665TIP3    H113940   5.180   5.552   3.510
 4665TIP3    H213941   5.028   5.553   3.513
 4666TIP3   OH213942   3.804   5.058   2.605
 4666TIP3    H113943   3.775   5.147   2.625
 4666TIP3    H213944   3.823   5.019   2.690
 4667TIP3   OH213945   3.233   4.409   2.646
 4667TIP3    H113946   3.215   4.485   2.702
 4667TIP3    H213947   3.260   4.446   2.563
 4668TIP3   OH213948   7.601   1.780   2.488
 4668TIP3    H113949   7.583   1.686   2.493
 4668TIP3    H213950   7.638   1.802   2.574
 4669TIP3   OH213951   5.911   6.016   5.216
 4669TIP3    H113952   5.913   6.084   5.149
 4669TIP3    H213953   5.820   5.987   5.218
 4670TIP3   OH213954   7.301   5.630   6.542
 4670TIP3    H113955   7.211   5.663   6.547
 4670TIP3    H213956   7.297   5.558   6.479
 4671TIP3   OH213957   0.024   4.039   4.028
 4671TIP3    H113958   0.067   4.120   4.052
 4671TIP3    H213959  -0.014   4.006   4.110
 4672TIP3   OH213960   6.859   3.684   3.772
 4672TIP3    H113961   6.918   3.622   3.816
 4672TIP3    H213962   6.867   3.663   3.679
 4673TIP3   OH213963   6.793   1.279   5.763
 4673TIP3    H113964   6.747   1.265   5.681
 4673TIP3    H213965   6.827   1.368   5.758
 4674TIP3   OH213966   6.185   0.179   0.653
 4674TIP3    H113967   6.108   0.133   0.689
 4674TIP3    H213968   6.258   0.149   0.707
 4675TIP3   OH213969   4.870   6.782   4.401
 4675TIP3    H113970   4.960   6.797   4.430
 4675TIP3    H213971   4.835   6.719   4.464
 4676TIP3   OH213972   3.452   4.663   5.839
 4676TIP3    H113973   3.381   4.652   5.776
 4676TIP3    H213974   3.494   4.745   5.814
 4677TIP3   OH213975   6.257   5.217   2.005
 4677TIP3    H113976   6.268   5.238   2.098
 4677TIP3    H213977   6.208   5.291   1.969
 4678TIP3   OH213978   7.206   2.287   5.493
 4678TIP3    H113979   7.171   2.208   5.451
 4678TIP3    H213980   7.301   2.273   5.492
 4679TIP3   OH213981   5.742   5.110   3.287
 4679TIP3    H113982   5.779   5.082   3.203
 4679TIP3    H213983   5.764   5.040   3.348
 4680TIP3   OH213984   0.957   0.075   4.021
 4680TIP3    H113985   1.036   0.122   4.046
 4680TIP3    H213986   0.921   0.043   4.104
 4681TIP3   OH213987   8.077   0.562   2.004
 4681TIP3    H113988   8.060   0.561   1.910
 4681TIP3    H213989   8.007   0.617   2.040
 4682TIP3   OH213990   5.189   4.448   4.242
 4682TIP3    H113991   5.129   4.469   4.171
 4682TIP3    H213992   5.252   4.520   4.242
 4683TIP3   OH213993   6.918   5.639   6.463
 4683TIP3    H113994   7.012   5.654   6.454
 4683TIP3    H213995   6.885   5.720   6.502
 4684TIP3   OH213996   2.681   0.091   5.485
 4684TIP3    H113997   2.630   0.088   5.404
 4684TIP3    H213998   2.712   0.181   5.490
 4685TIP3   OH213999   4.388   5.521   1.828
 4685TIP3    H114000   4.378   5.506   1.922
 4685TIP3    H214001   4.433   5.443   1.795
 4686TIP3   OH214002   5.217   0.303   4.556
 4686TIP3    H114003   5.191   0.216   4.527
 4686TIP3    H214004   5.213   0.299   4.651
 4687TIP3   OH214005   8.017   6.168   3.844
 4687TIP3    H114006   8.000   6.256   3.878
 4687TIP3    H214007   7.944   6.115   3.877
 4688TIP3   OH214008   4.959   5.631   1.834
 4688TIP3    H114009   4.957   5.726   1.823
 4688TIP3    H214010   5.046   5.604   1.804
 4689TIP3   OH214011   1.201   2.134   1.201
 4689TIP3    H114012   1.121   2.133   1.254
 4689TIP3    H214013   1.203   2.048   1.159
 4690TIP3   OH214014   4.698   7.022   4.642
 4690TIP3    H114015   4.756   6.951   4.667
 4690TIP3    H214016   4.641   7.035   4.718
 4691TIP3   OH214017   1.935   1.929   3.165
 4691TIP3    H114018   1.988   1.919   3.243
 4691TIP3    H214019   1.845   1.914   3.195
 4692TIP3   OH214020   3.075   6.031   6.015
 4692TIP3    H114021   3.082   6.122   5.988
 4692TIP3    H214022   2.982   6.016   6.026
 4693TIP3   OH214023   5.697   5.923   4.962
 4693TIP3    H114024   5.654   5.954   5.042
 4693TIP3    H214025   5.689   5.995   4.900
 4694TIP3   OH214026   6.164   4.120   0.296
 4694TIP3    H114027   6.197   4.070   0.221
 4694TIP3    H214028   6.234   4.114   0.361
 4695TIP3   OH214029   4.554   0.978   3.240
 4695TIP3    H114030   4.563   0.896   3.192
 4695TIP3    H214031   4.602   0.964   3.321
 4696TIP3   OH214032   7.449   2.500   4.825
 4696TIP3    H114033   7.445   2.443   4.901
 4696TIP3    H214034   7.509   2.570   4.851
 4697TIP3   OH214035   5.160   5.203   3.544
 4697TIP3    H114036   5.234   5.260   3.523
 4697TIP3    H214037   5.163   5.193   3.639
 4698TIP3   OH214038   2.014   3.654   0.887
 4698TIP3    H114039   2.084   3.719   0.888
 4698TIP3    H214040   2.030   3.600   0.964
 4699TIP3   OH214041   2.391   0.684   4.400
 4699TIP3    H114042   2.483   0.665   4.382
 4699TIP3    H214043   2.391   0.731   4.484
 4700TIP3   OH214044   1.577   0.689   5.148
 4700TIP3    H114045   1.603   0.749   5.219
 4700TIP3    H214046   1.482   0.682   5.157
 4701TIP3   OH214047   6.729   6.778   0.169
 4701TIP3    H114048   6.674   6.701   0.152
 4701TIP3    H214049   6.671   6.853   0.151
 4702TIP3   OH214050   1.804   6.213   1.827
 4702TIP3    H114051   1.845   6.242   1.909
 4702TIP3    H214052   1.778   6.293   1.783
 4703TIP3   OH214053   0.503   4.574   2.770
 4703TIP3    H114054   0.531   4.633   2.701
 4703TIP3    H214055   0.572   4.508   2.775
 4704TIP3   OH214056   5.226   3.121   2.944
 4704TIP3    H114057   5.186   3.184   3.004
 4704TIP3    H214058   5.312   3.103   2.983
 4705TIP3   OH214059   5.102   2.406   6.011
 4705TIP3    H114060   5.086   2.492   6.051
 4705TIP3    H214061   5.161   2.424   5.938
 4706TIP3   OH214062   4.293   1.252   5.269
 4706TIP3    H114063   4.384   1.276   5.290
 4706TIP3    H214064   4.301   1.175   5.214
 4707TIP3   OH214065   2.621   0.132   1.115
 4707TIP3    H114066   2.716   0.141   1.123
 4707TIP3    H214067   2.591   0.216   1.081
 4708TIP3   OH214068   0.624   4.423   5.239
 4708TIP3    H114069   0.706   4.438   5.286
 4708TIP3    H214070   0.606   4.506   5.195
 4709TIP3   OH214071   2.173   4.469   5.540
 4709TIP3    H114072   2.126   4.521   5.475
 4709TIP3    H214073   2.150   4.509   5.624
 4710TIP3   OH214074   4.324   4.222   5.191
 4710TIP3    H114075   4.276   4.304   5.177
 4710TIP3    H214076   4.365   4.205   5.106
 4711TIP3   OH214077   7.403   7.488   6.666
 4711TIP3    H114078   7.443   7.469   6.751
 4711TIP3    H214079   7.429   7.577   6.646
 4712TIP3   OH214080   5.649   7.063   2.363
 4712TIP3    H114081   5.568   7.032   2.322
 4712TIP3    H214082   5.658   7.153   2.333
 4713TIP3   OH214083   6.812   5.697   1.169
 4713TIP3    H114084   6.724   5.695   1.207
 4713TIP3    H214085   6.806   5.765   1.101
 4714TIP3   OH214086   8.081   1.101   3.419
 4714TIP3    H114087   8.108   1.050   3.343
 4714TIP3    H214088   8.155   1.097   3.479
 4715TIP3   OH214089   2.516   7.650   4.091
 4715TIP3    H114090   2.461   7.574   4.109
 4715TIP3    H214091   2.584   7.647   4.158
 4716TIP3   OH214092   4.534   3.170   2.095
 4716TIP3    H114093   4.441   3.146   2.094
 4716TIP3    H214094   4.573   3.114   2.028
 4717TIP3   OH214095   4.832   6.058   5.502
 4717TIP3    H114096   4.898   5.999   5.464
 4717TIP3    H214097   4.855   6.063   5.594
 4718TIP3   OH214098   0.984   3.381   5.831
 4718TIP3    H114099   0.994   3.447   5.899
 4718TIP3    H214100   1.072   3.373   5.792
 4719TIP3   OH214101   8.119   2.413   5.000
 4719TIP3    H114102   8.061   2.474   5.045
 4719TIP3    H214103   8.105   2.431   4.907
 4720TIP3   OH214104   6.205   3.535   3.182
 4720TIP3    H114105   6.207   3.440   3.175
 4720TIP3    H214106   6.171   3.552   3.270
 4721TIP3   OH214107   1.019   7.536   2.156
 4721TIP3    H114108   1.058   7.519   2.070
 4721TIP3    H214109   1.068   7.610   2.191
 4722TIP3   OH214110   6.082   6.608   2.014
 4722TIP3    H114111   6.086   6.567   2.100
 4722TIP3    H214112   6.056   6.699   2.032
 4723TIP3   OH214113   2.267   3.408   3.368
 4723TIP3    H114114   2.306   3.476   3.313
 4723TIP3    H214115   2.174   3.432   3.373
 4724TIP3   OH214116   2.726   4.822   4.056
 4724TIP3    H114117   2.818   4.807   4.034
 4724TIP3    H214118   2.687   4.735   4.060
 4725TIP3   OH214119   0.454   2.907   5.031
 4725TIP3    H114120   0.379   2.881   4.977
 4725TIP3    H214121   0.488   2.986   4.987
 4726TIP3   OH214122   3.687   0.675   3.272
 4726TIP3    H114123   3.688   0.650   3.180
 4726TIP3    H214124   3.609   0.731   3.281
 4727TIP3   OH214125   7.585   1.225  -0.017
 4727TIP3    H114126   7.646   1.298  -0.006
 4727TIP3    H214127   7.581   1.185   0.070
 4728TIP3   OH214128   1.750   0.853   5.665
 4728TIP3    H114129   1.813   0.786   5.690
 4728TIP3    H214130   1.803   0.926   5.634
 4729TIP3   OH214131   2.616   0.010   1.391
 4729TIP3    H114132   2.690   0.059   1.356
 4729TIP3    H214133   2.550   0.013   1.322
 4730TIP3   OH214134   2.590   0.756   5.441
 4730TIP3    H114135   2.645   0.695   5.490
 4730TIP3    H214136   2.652   0.806   5.388
 4731TIP3   OH214137   7.389   4.606  -0.036
 4731TIP3    H114138   7.381   4.680   0.023
 4731TIP3    H214139   7.358   4.531   0.015
 4732TIP3   OH214140   0.709   6.622   3.830
 4732TIP3    H114141   0.625   6.587   3.860
 4732TIP3    H214142   0.686   6.694   3.772
 4733TIP3   OH214143   2.421   4.175   3.080
 4733TIP3    H114144   2.372   4.257   3.089
 4733TIP3    H214145   2.387   4.119   3.150
 4734TIP3   OH214146   4.093   6.768   3.796
 4734TIP3    H114147   4.179   6.797   3.765
 4734TIP3    H214148   4.110   6.683   3.837
 4735TIP3   OH214149   3.581   5.755   3.013
 4735TIP3    H114150   3.627   5.725   2.935
 4735TIP3    H214151   3.605   5.692   3.081
 4736TIP3   OH214152   6.488   5.448   1.030
 4736TIP3    H114153   6.478   5.538   0.998
 4736TIP3    H214154   6.461   5.452   1.122
 4737TIP3   OH214155   4.670   6.807   0.488
 4737TIP3    H114156   4.577   6.810   0.510
 4737TIP3    H214157   4.711   6.763   0.562
 4738TIP3   OH214158   7.154   1.978   0.798
 4738TIP3    H114159   7.167   2.072   0.789
 4738TIP3    H214160   7.092   1.969   0.871
 4739TIP3   OH214161   4.666   6.255   1.356
 4739TIP3    H114162   4.683   6.317   1.285
 4739TIP3    H214163   4.750   6.246   1.401
 4740TIP3   OH214164   5.933   7.137   4.064
 4740TIP3    H114165   5.972   7.190   4.133
 4740TIP3    H214166   6.007   7.096   4.020
 4741TIP3   OH214167   8.251   1.162   5.120
 4741TIP3    H114168   8.220   1.228   5.182
 4741TIP3    H214169   8.322   1.117   5.166
 4742TIP3   OH214170   7.396   7.129   5.712
 4742TIP3    H114171   7.368   7.190   5.780
 4742TIP3    H214172   7.489   7.117   5.727
 4743TIP3   OH214173   7.093   3.068   4.351
 4743TIP3    H114174   7.184   3.078   4.324
 4743TIP3    H214175   7.083   3.128   4.425
 4744TIP3   OH214176   0.907   7.317   4.712
 4744TIP3    H114177   0.992   7.295   4.748
 4744TIP3    H214178   0.861   7.233   4.706
 4745TIP3   OH214179   2.266   0.162   4.153
 4745TIP3    H114180   2.223   0.165   4.239
 4745TIP3    H214181   2.304   0.074   4.148
 4746TIP3   OH214182   0.368   1.370   2.339
 4746TIP3    H114183   0.383   1.304   2.408
 4746TIP3    H214184   0.369   1.453   2.386
 4747TIP3   OH214185   3.141   0.018   1.849
 4747TIP3    H114186   3.212  -0.002   1.910
 4747TIP3    H214187   3.176   0.087   1.793
 4748TIP3   OH214188   1.217   3.444   0.775
 4748TIP3    H114189   1.203   3.537   0.795
 4748TIP3    H214190   1.279   3.414   0.841
 4749TIP3   OH214191   3.215   4.114   2.907
 4749TIP3    H114192   3.224   4.178   2.979
 4749TIP3    H214193   3.134   4.139   2.863
 4750TIP3   OH214194   5.591   7.164   0.075
 4750TIP3    H114195   5.616   7.256   0.083
 4750TIP3    H214196   5.496   7.163   0.090
 4751TIP3   OH214197   0.085   1.913   4.298
 4751TIP3    H114198  -0.008   1.891   4.302
 4751TIP3    H214199   0.091   1.980   4.230
 4752TIP3   OH214200   0.197   4.835   4.953
 4752TIP3    H114201   0.172   4.919   4.915
 4752TIP3    H214202   0.263   4.857   5.020
 4753TIP3   OH214203   3.822   3.567   1.385
 4753TIP3    H114204   3.769   3.646   1.389
 4753TIP3    H214205   3.885   3.576   1.457
 4754TIP3   OH214206   4.699   2.704   4.942
 4754TIP3    H114207   4.762   2.777   4.942
 4754TIP3    H214208   4.617   2.743   4.974
 4755TIP3   OH214209   3.809   2.361   4.102
 4755TIP3    H114210   3.801   2.418   4.026
 4755TIP3    H214211   3.726   2.371   4.149
 4756TIP3   OH214212   7.194   4.548   4.962
 4756TIP3    H114213   7.182   4.629   5.012
 4756TIP3    H214214   7.150   4.564   4.879
 4757TIP3   OH214215   2.192   1.345   5.413
 4757TIP3    H114216   2.231   1.386   5.490
 4757TIP3    H214217   2.098   1.343   5.432
 4758TIP3   OH214218   5.489   0.240   4.879
 4758TIP3    H114219   5.408   0.222   4.831
 4758TIP3    H214220   5.558   0.224   4.815
 4759TIP3   OH214221   1.798   1.752   1.177
 4759TIP3    H114222   1.742   1.707   1.113
 4759TIP3    H214223   1.777   1.709   1.260
 4760TIP3   OH214224   6.446   5.668   2.458
 4760TIP3    H114225   6.414   5.738   2.514
 4760TIP3    H214226   6.408   5.687   2.372
 4761TIP3   OH214227   1.157   4.741   1.131
 4761TIP3    H114228   1.100   4.668   1.105
 4761TIP3    H214229   1.123   4.769   1.216
 4762TIP3   OH214230   4.067   0.109   6.647
 4762TIP3    H114231   3.992   0.049   6.652
 4762TIP3    H214232   4.033   0.187   6.602
 4763TIP3   OH214233   2.670   1.639   0.679
 4763TIP3    H114234   2.662   1.646   0.774
 4763TIP3    H214235   2.640   1.724   0.646
 4764TIP3   OH214236   6.813   5.542   4.380
 4764TIP3    H114237   6.826   5.599   4.456
 4764TIP3    H214238   6.902   5.527   4.346
 4765TIP3   OH214239   7.396   6.591   6.704
 4765TIP3    H114240   7.344   6.671   6.718
 4765TIP3    H214241   7.331   6.524   6.686
 4766TIP3   OH214242   1.671   5.704   1.910
 4766TIP3    H114243   1.749   5.649   1.907
 4766TIP3    H214244   1.632   5.686   1.996
 4767TIP3   OH214245   7.834   1.998   6.400
 4767TIP3    H114246   7.749   2.041   6.404
 4767TIP3    H214247   7.896   2.064   6.432
 4768TIP3   OH214248   1.108   6.845   0.132
 4768TIP3    H114249   1.076   6.872   0.046
 4768TIP3    H214250   1.034   6.860   0.191
 4769TIP3   OH214251   5.604   2.154   4.055
 4769TIP3    H114252   5.640   2.140   3.967
 4769TIP3    H214253   5.563   2.071   4.078
 4770TIP3   OH214254   3.569   3.285   1.866
 4770TIP3    H114255   3.616   3.207   1.894
 4770TIP3    H214256   3.611   3.310   1.783
 4771TIP3   OH214257   2.734   6.647   0.664
 4771TIP3    H114258   2.656   6.655   0.720
 4771TIP3    H214259   2.700   6.623   0.578
 4772TIP3   OH214260   2.986   5.607   3.306
 4772TIP3    H114261   3.064   5.553   3.322
 4772TIP3    H214262   3.020   5.686   3.264
 4773TIP3   OH214263   5.743   4.277   6.617
 4773TIP3    H114264   5.806   4.338   6.655
 4773TIP3    H214265   5.788   4.239   6.542
 4774TIP3   OH214266   7.124   2.266   6.545
 4774TIP3    H114267   7.210   2.224   6.547
 4774TIP3    H214268   7.142   2.360   6.544
 4775TIP3   OH214269   4.315   5.671   3.231
 4775TIP3    H114270   4.290   5.608   3.298
 4775TIP3    H214271   4.249   5.660   3.162
 4776TIP3   OH214272   7.310   0.680   6.711
 4776TIP3    H114273   7.214   0.677   6.706
 4776TIP3    H214274   7.338   0.677   6.620
 4777TIP3   OH214275   2.661   5.836   0.639
 4777TIP3    H114276   2.578   5.788   0.638
 4777TIP3    H214277   2.647   5.909   0.579
 4778TIP3   OH214278   2.547   3.740   0.164
 4778TIP3    H114279   2.539   3.822   0.213
 4778TIP3    H214280   2.465   3.734   0.115
 4779TIP3   OH214281   8.230   5.137   1.844
 4779TIP3    H114282   8.314   5.155   1.801
 4779TIP3    H214283   8.208   5.219   1.888
 4780TIP3   OH214284   0.479   1.905   4.668
 4780TIP3    H114285   0.550   1.969   4.678
 4780TIP3    H214286   0.513   1.842   4.605
 4781TIP3   OH214287   2.697   7.466   4.982
 4781TIP3    H114288   2.642   7.529   4.936
 4781TIP3    H214289   2.775   7.517   5.007
 4782TIP3   OH214290   7.202   0.950   4.517
 4782TIP3    H114291   7.236   1.019   4.574
 4782TIP3    H214292   7.134   0.994   4.465
 4783TIP3   OH214293   2.052   2.595   6.302
 4783TIP3    H114294   2.066   2.690   6.304
 4783TIP3    H214295   2.121   2.562   6.243
 4784TIP3   OH214296   1.385   0.793   1.277
 4784TIP3    H114297   1.297   0.824   1.300
 4784TIP3    H214298   1.403   0.832   1.191
 4785TIP3   OH214299   8.148   5.722   3.594
 4785TIP3    H114300   8.078   5.730   3.529
 4785TIP3    H214301   8.229   5.724   3.542
 4786TIP3   OH214302   7.154   1.576   6.353
 4786TIP3    H114303   7.239   1.555   6.313
 4786TIP3    H214304   7.098   1.502   6.328
 4787TIP3   OH214305   3.554   2.346   4.195
 4787TIP3    H114306   3.510   2.408   4.136
 4787TIP3    H214307   3.498   2.269   4.195
 4788TIP3   OH214308   1.211   3.703   4.241
 4788TIP3    H114309   1.192   3.610   4.231
 4788TIP3    H214310   1.173   3.726   4.326
 4789TIP3   OH214311   6.276   4.764   3.387
 4789TIP3    H114312   6.236   4.796   3.306
 4789TIP3    H214313   6.236   4.678   3.401
 4790TIP3   OH214314   6.299   6.231   4.672
 4790TIP3    H114315   6.300   6.326   4.672
 4790TIP3    H214316   6.226   6.208   4.614
 4791TIP3   OH214317   7.197   6.378   1.203
 4791TIP3    H114318   7.207   6.378   1.108
 4791TIP3    H214319   7.259   6.444   1.233
 4792TIP3   OH214320   7.096   6.423   0.015
 4792TIP3    H114321   7.035   6.497   0.016
 4792TIP3    H214322   7.040   6.346   0.002
 4793TIP3   OH214323   4.371   4.916   2.471
 4793TIP3    H114324   4.372   4.906   2.376
 4793TIP3    H214325   4.286   4.956   2.489
 4794TIP3   OH214326   0.193   3.083   1.834
 4794TIP3    H114327   0.266   3.067   1.774
 4794TIP3    H214328   0.117   3.044   1.790
 4795TIP3   OH214329   4.750   0.795   0.982
 4795TIP3    H114330   4.777   0.885   0.963
 4795TIP3    H214331   4.657   0.802   1.004
 4796TIP3   OH214332   4.334   4.921   4.393
 4796TIP3    H114333   4.259   4.880   4.349
 4796TIP3    H214334   4.397   4.936   4.323
 4797TIP3   OH214335   8.206   6.864   2.059
 4797TIP3    H114336   8.158   6.936   2.017
 4797TIP3    H214337   8.140   6.797   2.075
 4798TIP3   OH214338   4.709   6.638   0.728
 4798TIP3    H114339   4.640   6.662   0.790
 4798TIP3    H214340   4.697   6.544   0.714
 4799TIP3   OH214341   3.140   4.935   2.682
 4799TIP3    H114342   3.151   4.885   2.601
 4799TIP3    H214343   3.076   5.003   2.660
 4800TIP3   OH214344   0.563   7.633   0.034
 4800TIP3    H114345   0.604   7.547   0.045
 4800TIP3    H214346   0.615   7.676  -0.035
 4801TIP3   OH214347   5.254   6.038   1.359
 4801TIP3    H114348   5.267   5.959   1.307
 4801TIP3    H214349   5.260   6.110   1.297
 4802TIP3   OH214350   3.366   3.866   0.475
 4802TIP3    H114351   3.295   3.812   0.511
 4802TIP3    H214352   3.439   3.853   0.534
 4803TIP3   OH214353   6.230   0.277   6.443
 4803TIP3    H114354   6.240   0.267   6.349
 4803TIP3    H214355   6.154   0.222   6.465
 4804TIP3   OH214356   5.444   6.114   4.074
 4804TIP3    H114357   5.440   6.096   3.980
 4804TIP3    H214358   5.465   6.030   4.113
 4805TIP3   OH214359   5.710   6.792   5.568
 4805TIP3    H114360   5.766   6.751   5.503
 4805TIP3    H214361   5.648   6.845   5.517
 4806TIP3   OH214362   0.832   1.905   1.733
 4806TIP3    H114363   0.749   1.875   1.771
 4806TIP3    H214364   0.831   2.000   1.746
 4807TIP3   OH214365   5.969   3.476   0.068
 4807TIP3    H114366   5.960   3.571   0.066
 4807TIP3    H214367   6.000   3.456   0.156
 4808TIP3   OH214368   7.109   4.645   4.712
 4808TIP3    H114369   7.096   4.584   4.640
 4808TIP3    H214370   7.127   4.729   4.669
 4809TIP3   OH214371   5.961   7.529   6.133
 4809TIP3    H114372   5.877   7.567   6.107
 4809TIP3    H214373   5.946   7.497   6.222
 4810TIP3   OH214374   5.801   0.620   6.239
 4810TIP3    H114375   5.857   0.690   6.203
 4810TIP3    H214376   5.713   0.658   6.240
 4811TIP3   OH214377   6.196   0.653   0.906
 4811TIP3    H114378   6.103   0.678   0.904
 4811TIP3    H214379   6.216   0.626   0.817
 4812TIP3   OH214380   7.572   1.895   3.177
 4812TIP3    H114381   7.661   1.914   3.148
 4812TIP3    H214382   7.567   1.799   3.180
 4813TIP3   OH214383   4.894   0.251   6.124
 4813TIP3    H114384   4.881   0.298   6.206
 4813TIP3    H214385   4.833   0.291   6.063
 4814TIP3   OH214386   1.642   3.168   3.424
 4814TIP3    H114387   1.637   3.076   3.398
 4814TIP3    H214388   1.731   3.195   3.400
 4815TIP3   OH214389   2.431   4.337   0.562
 4815TIP3    H114390   2.354   4.393   0.576
 4815TIP3    H214391   2.399   4.266   0.506
 4816TIP3   OH214392   6.120   7.282   1.772
 4816TIP3    H114393   6.164   7.199   1.790
 4816TIP3    H214394   6.033   7.272   1.812
 4817TIP3   OH214395   3.625   2.631   4.952
 4817TIP3    H114396   3.567   2.556   4.961
 4817TIP3    H214397   3.650   2.632   4.860
 4818TIP3   OH214398   5.049   7.439   4.049
 4818TIP3    H114399   5.020   7.359   4.005
 4818TIP3    H214400   5.142   7.445   4.030
 4819TIP3   OH214401   2.392   3.876   5.557
 4819TIP3    H114402   2.398   3.902   5.465
 4819TIP3    H214403   2.381   3.959   5.604
 4820TIP3   OH214404   0.481   3.729   5.185
 4820TIP3    H114405   0.481   3.649   5.132
 4820TIP3    H214406   0.390   3.757   5.186
 4821TIP3   OH214407   4.905   4.844   6.255
 4821TIP3    H114408   4.857   4.791   6.191
 4821TIP3    H214409   4.880   4.934   6.235
 4822TIP3   OH214410   7.852   3.881   0.111
 4822TIP3    H114411   7.917   3.905   0.044
 4822TIP3    H214412   7.768   3.911   0.075
 4823TIP3   OH214413   5.700   3.277   5.299
 4823TIP3    H114414   5.617   3.287   5.346
 4823TIP3    H214415   5.735   3.366   5.293
 4824TIP3   OH214416   3.245   1.075   5.551
 4824TIP3    H114417   3.324   1.050   5.504
 4824TIP3    H214418   3.190   0.997   5.549
 4825TIP3   OH214419   1.804   3.452   1.306
 4825TIP3    H114420   1.789   3.383   1.241
 4825TIP3    H214421   1.802   3.406   1.390
 4826TIP3   OH214422   5.934   7.448   1.620
 4826TIP3    H114423   5.939   7.528   1.673
 4826TIP3    H214424   5.989   7.385   1.666
 4827TIP3   OH214425   4.019   6.861   1.403
 4827TIP3    H114426   3.977   6.926   1.459
 4827TIP3    H214427   3.952   6.839   1.338
 4828TIP3   OH214428   4.782   1.614   4.144
 4828TIP3    H114429   4.772   1.523   4.116
 4828TIP3    H214430   4.696   1.636   4.180
 4829TIP3   OH214431   8.183   2.710   2.801
 4829TIP3    H114432   8.093   2.679   2.809
 4829TIP3    H214433   8.175   2.805   2.791
 4830TIP3   OH214434   4.896   1.818   4.817
 4830TIP3    H114435   4.952   1.885   4.777
 4830TIP3    H214436   4.958   1.760   4.862
 4831TIP3   OH214437   3.248   2.754   3.506
 4831TIP3    H114438   3.239   2.716   3.594
 4831TIP3    H214439   3.240   2.848   3.520
 4832TIP3   OH214440   6.040   1.406   3.376
 4832TIP3    H114441   5.997   1.323   3.399
 4832TIP3    H214442   6.007   1.469   3.440
 4833TIP3   OH214443   2.444   1.548   5.006
 4833TIP3    H114444   2.431   1.503   5.090
 4833TIP3    H214445   2.418   1.639   5.023
 4834TIP3   OH214446   8.227   6.747   3.811
 4834TIP3    H114447   8.192   6.672   3.764
 4834TIP3    H214448   8.184   6.823   3.770
 4835TIP3   OH214449   5.474   4.428   0.485
 4835TIP3    H114450   5.433   4.421   0.399
 4835TIP3    H214451   5.568   4.427   0.467
 4836TIP3   OH214452   0.933   2.006   5.353
 4836TIP3    H114453   1.003   2.060   5.389
 4836TIP3    H214454   0.853   2.046   5.385
 4837TIP3   OH214455   7.318   7.574   0.585
 4837TIP3    H114456   7.298   7.481   0.572
 4837TIP3    H214457   7.321   7.611   0.497
 4838TIP3   OH214458   5.972   1.689   6.417
 4838TIP3    H114459   5.965   1.782   6.437
 4838TIP3    H214460   5.882   1.660   6.405
 4839TIP3   OH214461   0.023   5.613   2.173
 4839TIP3    H114462   0.033   5.572   2.088
 4839TIP3    H214463   0.113   5.626   2.205
 4840TIP3   OH214464   0.606   6.533   4.836
 4840TIP3    H114465   0.536   6.598   4.835
 4840TIP3    H214466   0.606   6.498   4.925
 4841TIP3   OH214467   6.745   1.177   6.432
 4841TIP3    H114468   6.715   1.141   6.349
 4841TIP3    H214469   6.731   1.106   6.495
 4842TIP3   OH214470   6.371   2.157   1.753
 4842TIP3    H114471   6.280   2.182   1.736
 4842TIP3    H214472   6.409   2.143   1.666
 4843TIP3   OH214473   0.829   0.134   1.518
 4843TIP3    H114474   0.774   0.117   1.442
 4843TIP3    H214475   0.796   0.217   1.553
 4844TIP3   OH214476   6.150   5.300   4.454
 4844TIP3    H114477   6.238   5.262   4.454
 4844TIP3    H214478   6.098   5.242   4.510
 4845TIP3   OH214479   5.790   2.985   5.098
 4845TIP3    H114480   5.719   2.957   5.040
 4845TIP3    H214481   5.788   2.922   5.170
 4846TIP3   OH214482   6.640   2.490   2.367
 4846TIP3    H114483   6.566   2.551   2.372
 4846TIP3    H214484   6.677   2.503   2.280
 4847TIP3   OH214485   4.401   3.777   4.022
 4847TIP3    H114486   4.308   3.754   4.023
 4847TIP3    H214487   4.407   3.850   3.961
 4848TIP3   OH214488   7.552   6.702   1.019
 4848TIP3    H114489   7.626   6.762   1.026
 4848TIP3    H214490   7.484   6.742   1.073
 4849TIP3   OH214491   0.062   1.452   0.620
 4849TIP3    H114492  -0.033   1.463   0.628
 4849TIP3    H214493   0.076   1.426   0.529
 4850TIP3   OH214494   6.771   2.425   0.463
 4850TIP3    H114495   6.748   2.509   0.422
 4850TIP3    H214496   6.840   2.390   0.406
 4851TIP3   OH214497   2.218   5.229   1.176
 4851TIP3    H114498   2.160   5.221   1.251
 4851TIP3    H214499   2.240   5.139   1.152
 4852TIP3   OH214500   4.897   6.434   6.744
 4852TIP3    H114501   4.985   6.465   6.725
 4852TIP3    H214502   4.840   6.488   6.689
 4853TIP3   OH214503   1.163   6.699   1.323
 4853TIP3    H114504   1.149   6.675   1.415
 4853TIP3    H214505   1.105   6.641   1.274
 4854TIP3   OH214506   3.893   6.375   2.362
 4854TIP3    H114507   3.907   6.386   2.456
 4854TIP3    H214508   3.876   6.463   2.330
 4855TIP3   OH214509   4.083   3.545   6.299
 4855TIP3    H114510   4.158   3.521   6.353
 4855TIP3    H214511   4.014   3.483   6.323
 4856TIP3   OH214512   5.427   2.478   3.551
 4856TIP3    H114513   5.384   2.508   3.631
 4856TIP3    H214514   5.520   2.480   3.572
 4857TIP3   OH214515   1.019   3.071   5.049
 4857TIP3    H114516   0.951   3.011   5.077
 4857TIP3    H214517   0.976   3.126   4.982
 4858TIP3   OH214518   3.074   4.809   5.505
 4858TIP3    H114519   2.997   4.840   5.553
 4858TIP3    H214520   3.111   4.889   5.466
 4859TIP3   OH214521   1.825   7.080   1.916
 4859TIP3    H114522   1.774   7.040   1.985
 4859TIP3    H214523   1.838   7.170   1.945
 4860TIP3   OH214524   0.957   2.305   1.074
 4860TIP3    H114525   1.052   2.299   1.065
 4860TIP3    H214526   0.923   2.264   0.994
 4861TIP3   OH214527   1.839   3.488   3.930
 4861TIP3    H114528   1.895   3.413   3.912
 4861TIP3    H214529   1.751   3.459   3.905
 4862TIP3   OH214530   6.170   3.320   6.317
 4862TIP3    H114531   6.261   3.322   6.287
 4862TIP3    H214532   6.162   3.398   6.372
 4863TIP3   OH214533   3.700   4.724   5.207
 4863TIP3    H114534   3.721   4.654   5.268
 4863TIP3    H214535   3.671   4.796   5.262
 4864TIP3   OH214536   2.776   2.339   3.279
 4864TIP3    H114537   2.869   2.364   3.286
 4864TIP3    H214538   2.750   2.317   3.369
 4865TIP3   OH214539   0.133   7.285   0.001
 4865TIP3    H114540   0.205   7.348   0.005
 4865TIP3    H214541   0.105   7.274   0.092
 4866TIP3   OH214542   1.232   0.483   3.524
 4866TIP3    H114543   1.192   0.423   3.462
 4866TIP3    H214544   1.304   0.433   3.563
 4867TIP3   OH214545   6.721   4.105   3.472
 4867TIP3    H114546   6.800   4.159   3.466
 4867TIP3    H214547   6.651   4.160   3.438
 4868TIP3   OH214548   3.365   0.279   3.164
 4868TIP3    H114549   3.406   0.255   3.081
 4868TIP3    H214550   3.408   0.361   3.189
 4869TIP3   OH214551   3.543   2.752   5.911
 4869TIP3    H114552   3.460   2.714   5.941
 4869TIP3    H214553   3.609   2.703   5.961
 4870TIP3   OH214554   2.827   6.791   2.939
 4870TIP3    H114555   2.834   6.872   2.989
 4870TIP3    H214556   2.918   6.765   2.923
 4871TIP3   OH214557   5.747   0.406   5.382
 4871TIP3    H114558   5.689   0.330   5.375
 4871TIP3    H214559   5.710   0.471   5.322
 4872TIP3   OH214560   5.060   3.164   0.327
 4872TIP3    H114561   4.968   3.168   0.300
 4872TIP3    H214562   5.110   3.177   0.246
 4873TIP3   OH214563   3.333   3.420   1.710
 4873TIP3    H114564   3.276   3.344   1.711
 4873TIP3    H214565   3.369   3.425   1.799
 4874TIP3   OH214566   4.024   3.306   6.448
 4874TIP3    H114567   4.027   3.288   6.354
 4874TIP3    H214568   4.043   3.222   6.489
 4875TIP3   OH214569   6.753   2.839   4.307
 4875TIP3    H114570   6.683   2.774   4.307
 4875TIP3    H214571   6.812   2.811   4.378
 4876TIP3   OH214572   3.591   1.599   5.299
 4876TIP3    H114573   3.561   1.612   5.209
 4876TIP3    H214574   3.684   1.579   5.291
 4877TIP3   OH214575   0.219   3.524   5.193
 4877TIP3    H114576   0.301   3.525   5.143
 4877TIP3    H214577   0.243   3.560   5.279
 4878TIP3   OH214578   0.857   6.765   5.707
 4878TIP3    H114579   0.868   6.676   5.674
 4878TIP3    H214580   0.795   6.756   5.779
 4879TIP3   OH214581   1.455   0.156   2.828
 4879TIP3    H114582   1.452   0.084   2.891
 4879TIP3    H214583   1.414   0.229   2.874
 4880TIP3   OH214584   6.825   6.989   0.482
 4880TIP3    H114585   6.793   7.023   0.566
 4880TIP3    H214586   6.805   7.057   0.418
 4881TIP3   OH214587   3.516   5.949   1.801
 4881TIP3    H114588   3.598   5.981   1.763
 4881TIP3    H214589   3.472   5.904   1.729
 4882TIP3   OH214590   6.189   7.194   1.128
 4882TIP3    H114591   6.181   7.277   1.175
 4882TIP3    H214592   6.138   7.132   1.180
 4883TIP3   OH214593   0.063   2.760   1.421
 4883TIP3    H114594   0.052   2.671   1.388
 4883TIP3    H214595   0.145   2.791   1.384
 4884TIP3   OH214596   0.933   7.174   6.521
 4884TIP3    H114597   0.933   7.177   6.425
 4884TIP3    H214598   0.862   7.232   6.548
 4885TIP3   OH214599   0.399   4.122   1.206
 4885TIP3    H114600   0.356   4.181   1.268
 4885TIP3    H214601   0.414   4.177   1.128
 4886TIP3   OH214602   1.100   1.315   0.888
 4886TIP3    H114603   1.104   1.238   0.945
 4886TIP3    H214604   1.116   1.281   0.800
 4887TIP3   OH214605   6.905   5.328   2.566
 4887TIP3    H114606   6.990   5.290   2.588
 4887TIP3    H214607   6.850   5.252   2.547
 4888TIP3   OH214608   4.014   1.332   0.111
 4888TIP3    H114609   3.946   1.331   0.178
 4888TIP3    H214610   4.037   1.240   0.098
 4889TIP3   OH214611   2.883   7.142   4.930
 4889TIP3    H114612   2.797   7.106   4.909
 4889TIP3    H214613   2.920   7.080   4.993
 4890TIP3   OH214614   1.982   3.123   2.846
 4890TIP3    H114615   1.995   3.058   2.915
 4890TIP3    H214616   2.032   3.089   2.771
 4891TIP3   OH214617   1.840   4.396   6.729
 4891TIP3    H114618   1.870   4.306   6.715
 4891TIP3    H214619   1.899   4.430   6.795
 4892TIP3   OH214620   5.071   6.385   1.708
 4892TIP3    H114621   5.112   6.387   1.622
 4892TIP3    H214622   5.051   6.476   1.728
 4893TIP3   OH214623   0.365   2.743   2.280
 4893TIP3    H114624   0.429   2.723   2.349
 4893TIP3    H214625   0.302   2.671   2.284
 4894TIP3   OH214626   4.952   3.585   5.381
 4894TIP3    H114627   4.867   3.542   5.394
 4894TIP3    H214628   5.012   3.536   5.438
 4895TIP3   OH214629   3.562   6.782   5.338
 4895TIP3    H114630   3.541   6.777   5.245
 4895TIP3    H214631   3.651   6.746   5.345
 4896TIP3   OH214632   3.431   4.236   4.539
 4896TIP3    H114633   3.501   4.277   4.488
 4896TIP3    H214634   3.379   4.309   4.572
 4897TIP3   OH214635   0.337   7.412   4.419
 4897TIP3    H114636   0.356   7.423   4.326
 4897TIP3    H214637   0.293   7.493   4.444
 4898TIP3   OH214638   7.981   2.329   5.487
 4898TIP3    H114639   7.991   2.375   5.571
 4898TIP3    H214640   7.894   2.355   5.456
 4899TIP3   OH214641   3.206   7.312   5.405
 4899TIP3    H114642   3.157   7.391   5.427
 4899TIP3    H214643   3.167   7.282   5.322
 4900TIP3   OH214644   1.453   2.278   4.603
 4900TIP3    H114645   1.490   2.366   4.600
 4900TIP3    H214646   1.424   2.267   4.693
 4901TIP3   OH214647   6.470   5.042   4.672
 4901TIP3    H114648   6.418   5.056   4.594
 4901TIP3    H214649   6.413   4.992   4.730
 4902TIP3   OH214650   2.333   1.071   0.302
 4902TIP3    H114651   2.413   1.113   0.334
 4902TIP3    H214652   2.332   0.986   0.347
 4903TIP3   OH214653   7.493   3.129   4.096
 4903TIP3    H114654   7.435   3.192   4.140
 4903TIP3    H214655   7.454   3.118   4.009
 4904TIP3   OH214656   4.800   2.378   4.595
 4904TIP3    H114657   4.733   2.390   4.662
 4904TIP3    H214658   4.755   2.393   4.512
 4905TIP3   OH214659   7.322   0.377   4.933
 4905TIP3    H114660   7.249   0.393   4.873
 4905TIP3    H214661   7.301   0.294   4.976
 4906TIP3   OH214662   8.212   4.640   1.816
 4906TIP3    H114663   8.275   4.580   1.777
 4906TIP3    H214664   8.246   4.659   1.904
 4907TIP3   OH214665   7.799   4.949   1.783
 4907TIP3    H114666   7.803   5.039   1.753
 4907TIP3    H214667   7.878   4.938   1.836
 4908TIP3   OH214668   6.854   1.432   4.512
 4908TIP3    H114669   6.764   1.465   4.505
 4908TIP3    H214670   6.844   1.337   4.511
 4909TIP3   OH214671   5.913   5.578   3.414
 4909TIP3    H114672   5.826   5.576   3.455
 4909TIP3    H214673   5.967   5.629   3.475
 4910TIP3   OH214674   7.636   7.289   6.534
 4910TIP3    H114675   7.715   7.237   6.526
 4910TIP3    H214676   7.666   7.380   6.528
 4911TIP3   OH214677   7.402   1.796   2.047
 4911TIP3    H114678   7.359   1.852   2.112
 4911TIP3    H214679   7.337   1.729   2.026
 4912TIP3   OH214680   3.759   3.377   3.064
 4912TIP3    H114681   3.829   3.343   3.119
 4912TIP3    H214682   3.802   3.437   3.003
 4913TIP3   OH214683   7.937   1.925   4.631
 4913TIP3    H114684   7.912   1.833   4.626
 4913TIP3    H214685   7.962   1.949   4.542
 4914TIP3   OH214686   6.822   1.880   4.888
 4914TIP3    H114687   6.892   1.934   4.925
 4914TIP3    H214688   6.840   1.876   4.795
 4915TIP3   OH214689   4.056   6.040   2.622
 4915TIP3    H114690   3.995   6.111   2.644
 4915TIP3    H214691   4.136   6.062   2.669
 4916TIP3   OH214692   5.514   4.447   1.104
 4916TIP3    H114693   5.591   4.440   1.047
 4916TIP3    H214694   5.465   4.366   1.088
 4917TIP3   OH214695   1.009   6.297   5.185
 4917TIP3    H114696   0.964   6.378   5.158
 4917TIP3    H214697   0.956   6.263   5.257
 4918TIP3   OH214698   6.397   3.794   3.894
 4918TIP3    H114699   6.484   3.798   3.933
 4918TIP3    H214700   6.366   3.884   3.896
 4919TIP3   OH214701   2.669   4.183   0.621
 4919TIP3    H114702   2.681   4.140   0.537
 4919TIP3    H214703   2.591   4.236   0.611
 4920TIP3   OH214704   2.219   7.545   5.420
 4920TIP3    H114705   2.245   7.480   5.485
 4920TIP3    H214706   2.137   7.512   5.383
 4921TIP3   OH214707   5.445   4.249   1.872
 4921TIP3    H114708   5.515   4.184   1.873
 4921TIP3    H214709   5.459   4.297   1.790
 4922TIP3   OH214710   7.338   6.332   1.497
 4922TIP3    H114711   7.345   6.242   1.465
 4922TIP3    H214712   7.244   6.349   1.502
 4923TIP3   OH214713   2.279   2.041   6.334
 4923TIP3    H114714   2.347   2.097   6.372
 4923TIP3    H214715   2.261   2.080   6.248
 4924TIP3   OH214716   1.979   6.238   4.534
 4924TIP3    H114717   1.887   6.213   4.548
 4924TIP3    H214718   1.985   6.326   4.571
 4925TIP3   OH214719   6.525   2.222   2.633
 4925TIP3    H114720   6.585   2.226   2.559
 4925TIP3    H214721   6.562   2.282   2.697
 4926TIP3   OH214722   8.155   4.370   3.769
 4926TIP3    H114723   8.230   4.357   3.711
 4926TIP3    H214724   8.127   4.281   3.792
 4927TIP3   OH214725   4.335   3.084   1.320
 4927TIP3    H114726   4.405   3.125   1.268
 4927TIP3    H214727   4.365   2.994   1.334
 4928TIP3   OH214728   1.155   7.789   2.245
 4928TIP3    H114729   1.126   7.821   2.159
 4928TIP3    H214730   1.243   7.757   2.230
 4929TIP3   OH214731   2.037   5.738   4.906
 4929TIP3    H114732   2.122   5.714   4.870
 4929TIP3    H214733   2.031   5.689   4.989
 4930TIP3   OH214734   1.228   3.612   3.237
 4930TIP3    H114735   1.250   3.675   3.305
 4930TIP3    H214736   1.150   3.566   3.270
 4931TIP3   OH214737   2.715   6.492   6.183
 4931TIP3    H114738   2.702   6.526   6.095
 4931TIP3    H214739   2.737   6.400   6.171
 4932TIP3   OH214740   1.830   2.599   1.587
 4932TIP3    H114741   1.781   2.616   1.506
 4932TIP3    H214742   1.828   2.683   1.633
 4933TIP3   OH214743   2.219   4.717   0.891
 4933TIP3    H114744   2.302   4.668   0.891
 4933TIP3    H214745   2.152   4.651   0.875
 4934TIP3   OH214746   1.856   1.097   5.898
 4934TIP3    H114747   1.872   1.060   5.811
 4934TIP3    H214748   1.767   1.131   5.894
 4935TIP3   OH214749   2.007   1.743   2.960
 4935TIP3    H114750   1.988   1.828   3.001
 4935TIP3    H214751   1.963   1.680   3.017
 4936TIP3   OH214752   2.586   4.751   3.091
 4936TIP3    H114753   2.631   4.781   3.012
 4936TIP3    H214754   2.598   4.656   3.092
 4937TIP3   OH214755   7.088   2.655   4.528
 4937TIP3    H114756   7.140   2.676   4.450
 4937TIP3    H214757   7.097   2.560   4.538
 4938TIP3   OH214758   5.454   2.994   5.072
 4938TIP3    H114759   5.502   3.073   5.049
 4938TIP3    H214760   5.456   2.992   5.168
 4939TIP3   OH214761   5.694   5.000   2.264
 4939TIP3    H114762   5.606   5.036   2.253
 4939TIP3    H214763   5.749   5.077   2.279
 4940TIP3   OH214764   5.205   7.492   5.878
 4940TIP3    H114765   5.271   7.535   5.823
 4940TIP3    H214766   5.236   7.401   5.885
 4941TIP3   OH214767   2.284   1.506   6.616
 4941TIP3    H114768   2.258   1.419   6.646
 4941TIP3    H214769   2.361   1.489   6.561
 4942TIP3   OH214770   5.236   6.198   1.809
 4942TIP3    H114771   5.178   6.271   1.788
 4942TIP3    H214772   5.192   6.152   1.881
 4943TIP3   OH214773   0.419   6.756   4.796
 4943TIP3    H114774   0.417   6.774   4.702
 4943TIP3    H214775   0.327   6.738   4.818
 4944TIP3   OH214776   6.887   5.977   2.792
 4944TIP3    H114777   6.854   6.019   2.713
 4944TIP3    H214778   6.978   6.004   2.798
 4945TIP3   OH214779   2.891   1.253   0.204
 4945TIP3    H114780   2.868   1.206   0.284
 4945TIP3    H214781   2.815   1.307   0.185
 4946TIP3   OH214782   1.768   1.328   1.787
 4946TIP3    H114783   1.707   1.350   1.858
 4946TIP3    H214784   1.744   1.239   1.762
 4947TIP3   OH214785   6.494   1.123   4.985
 4947TIP3    H114786   6.542   1.047   4.950
 4947TIP3    H214787   6.404   1.091   4.994
 4948TIP3   OH214788   4.154   6.317   0.465
 4948TIP3    H114789   4.186   6.245   0.519
 4948TIP3    H214790   4.188   6.298   0.377
 4949TIP3   OH214791   3.411   6.273   3.652
 4949TIP3    H114792   3.381   6.357   3.619
 4949TIP3    H214793   3.451   6.292   3.737
 4950TIP3   OH214794   2.518   5.331   2.132
 4950TIP3    H114795   2.583   5.262   2.142
 4950TIP3    H214796   2.569   5.411   2.122
 4951TIP3   OH214797   6.397   0.533   1.401
 4951TIP3    H114798   6.477   0.570   1.437
 4951TIP3    H214799   6.328   0.593   1.427
 4952TIP3   OH214800   3.521   7.623   3.935
 4952TIP3    H114801   3.535   7.694   3.872
 4952TIP3    H214802   3.428   7.601   3.925
 4953TIP3   OH214803   4.802   5.679   5.334
 4953TIP3    H114804   4.773   5.618   5.266
 4953TIP3    H214805   4.723   5.726   5.359
 4954TIP3   OH214806   1.760   2.661   4.859
 4954TIP3    H114807   1.752   2.708   4.775
 4954TIP3    H214808   1.689   2.596   4.857
 4955TIP3   OH214809   3.677  -0.001   3.432
 4955TIP3    H114810   3.609  -0.003   3.365
 4955TIP3    H214811   3.699   0.092   3.442
 4956TIP3   OH214812   4.106   1.460   0.634
 4956TIP3    H114813   4.086   1.366   0.632
 4956TIP3    H214814   4.065   1.491   0.714
 4957TIP3   OH214815   4.290   6.486   3.020
 4957TIP3    H114816   4.356   6.542   3.059
 4957TIP3    H214817   4.279   6.519   2.931
 4958TIP3   OH214818   2.097   4.638   5.726
 4958TIP3    H114819   2.134   4.687   5.799
 4958TIP3    H214820   2.012   4.679   5.710
 4959TIP3   OH214821   5.129   7.397   6.381
 4959TIP3    H114822   5.128   7.365   6.471
 4959TIP3    H214823   5.139   7.492   6.389
 4960TIP3   OH214824   7.302   5.085   5.087
 4960TIP3    H114825   7.377   5.033   5.060
 4960TIP3    H214826   7.340   5.164   5.125
 4961TIP3   OH214827   0.045   6.839   6.619
 4961TIP3    H114828  -0.032   6.892   6.639
 4961TIP3    H214829   0.101   6.850   6.696
 4962TIP3   OH214830   2.220   1.291   0.529
 4962TIP3    H114831   2.232   1.296   0.623
 4962TIP3    H214832   2.302   1.254   0.496
 4963TIP3   OH214833   6.385   4.694   4.710
 4963TIP3    H114834   6.464   4.719   4.661
 4963TIP3    H214835   6.416   4.629   4.773
 4964TIP3   OH214836   3.440   2.746   0.088
 4964TIP3    H114837   3.412   2.832   0.056
 4964TIP3    H214838   3.384   2.729   0.164
 4965TIP3   OH214839   5.387   2.351   3.900
 4965TIP3    H114840   5.413   2.309   3.982
 4965TIP3    H214841   5.468   2.388   3.866
 4966TIP3   OH214842   5.084   1.770   2.625
 4966TIP3    H114843   5.045   1.697   2.578
 4966TIP3    H214844   5.016   1.797   2.687
 4967TIP3   OH214845   1.874   7.253   4.321
 4967TIP3    H114846   1.812   7.296   4.262
 4967TIP3    H214847   1.828   7.248   4.405
 4968TIP3   OH214848   3.460   2.652   2.950
 4968TIP3    H114849   3.373   2.647   2.990
 4968TIP3    H214850   3.444   2.683   2.861
 4969TIP3   OH214851   1.581   1.759   4.531
 4969TIP3    H114852   1.604   1.842   4.573
 4969TIP3    H214853   1.665   1.721   4.504
 4970TIP3   OH214854   3.745   6.587   6.464
 4970TIP3    H114855   3.710   6.628   6.385
 4970TIP3    H214856   3.839   6.583   6.450
 4971TIP3   OH214857   7.578   4.851   5.473
 4971TIP3    H114858   7.537   4.919   5.527
 4971TIP3    H214859   7.633   4.802   5.534
 4972TIP3   OH214860   4.319   4.330   2.314
 4972TIP3    H114861   4.289   4.239   2.307
 4972TIP3    H214862   4.241   4.379   2.340
 4973TIP3   OH214863   3.264   3.440   1.215
 4973TIP3    H114864   3.263   3.345   1.226
 4973TIP3    H214865   3.290   3.474   1.300
 4974TIP3   OH214866   4.964   7.601   5.848
 4974TIP3    H114867   5.024   7.534   5.879
 4974TIP3    H214868   5.012   7.647   5.779
 4975TIP3   OH214869   3.004   7.433   6.206
 4975TIP3    H114870   3.041   7.447   6.119
 4975TIP3    H214871   3.064   7.479   6.266
 4976TIP3   OH214872   2.390   7.326   2.337
 4976TIP3    H114873   2.387   7.335   2.242
 4976TIP3    H214874   2.474   7.284   2.355
 4977TIP3   OH214875   2.242   7.144   4.651
 4977TIP3    H114876   2.244   7.192   4.569
 4977TIP3    H214877   2.297   7.067   4.636
 4978TIP3   OH214878   8.153   5.573   2.808
 4978TIP3    H114879   8.104   5.526   2.876
 4978TIP3    H214880   8.086   5.612   2.753
 4979TIP3   OH214881   5.943   2.645   6.443
 4979TIP3    H114882   5.879   2.713   6.464
 4979TIP3    H214883   5.921   2.573   6.503
 4980TIP3   OH214884   6.860   0.936   0.172
 4980TIP3    H114885   6.891   1.007   0.115
 4980TIP3    H214886   6.927   0.930   0.240
 4981TIP3   OH214887   5.523   7.129   6.711
 4981TIP3    H114888   5.470   7.182   6.652
 4981TIP3    H214889   5.502   7.162   6.798
 4982TIP3   OH214890   1.444   7.214   5.642
 4982TIP3    H114891   1.363   7.224   5.691
 4982TIP3    H214892   1.419   7.231   5.551
 4983TIP3   OH214893   0.675   3.097   5.228
 4983TIP3    H114894   0.714   3.011   5.241
 4983TIP3    H214895   0.696   3.121   5.138
 4984TIP3   OH214896   1.647   6.077   0.309
 4984TIP3    H114897   1.613   6.043   0.391
 4984TIP3    H214898   1.659   6.000   0.254
 4985TIP3   OH214899   3.266   0.597   4.955
 4985TIP3    H114900   3.209   0.661   4.995
 4985TIP3    H214901   3.233   0.512   4.986
 4986TIP3   OH214902   1.472   5.911   6.089
 4986TIP3    H114903   1.497   5.989   6.138
 4986TIP3    H214904   1.518   5.839   6.133
 4987TIP3   OH214905   6.776   0.844   5.642
 4987TIP3    H114906   6.792   0.790   5.565
 4987TIP3    H214907   6.691   0.886   5.625
 4988TIP3   OH214908   3.484   5.179   5.439
 4988TIP3    H114909   3.536   5.224   5.373
 4988TIP3    H214910   3.514   5.216   5.522
 4989TIP3   OH214911   1.396   3.491   3.581
 4989TIP3    H114912   1.410   3.416   3.522
 4989TIP3    H214913   1.341   3.551   3.531
 4990TIP3   OH214914   3.177   2.406   5.265
 4990TIP3    H114915   3.149   2.442   5.350
 4990TIP3    H214916   3.096   2.375   5.225
 4991TIP3   OH214917   5.327   4.230   1.090
 4991TIP3    H114918   5.251   4.269   1.048
 4991TIP3    H214919   5.304   4.228   1.183
 4992TIP3   OH214920   6.154   6.499   3.571
 4992TIP3    H114921   6.186   6.503   3.661
 4992TIP3    H214922   6.210   6.434   3.529
 4993TIP3   OH214923   6.928   5.043   4.574
 4993TIP3    H114924   6.850   5.032   4.628
 4993TIP3    H214925   6.953   5.134   4.585
 4994TIP3   OH214926   4.646   4.487   0.357
 4994TIP3    H114927   4.737   4.491   0.386
 4994TIP3    H214928   4.598   4.458   0.435
 4995TIP3   OH214929   1.103   1.336   5.315
 4995TIP3    H114930   1.111   1.251   5.272
 4995TIP3    H214931   1.112   1.317   5.409
 4996TIP3   OH214932   4.153   1.134   2.881
 4996TIP3    H114933   4.167   1.200   2.949
 4996TIP3    H214934   4.092   1.072   2.921
 4997TIP3   OH214935   3.301   0.793   4.519
 4997TIP3    H114936   3.254   0.713   4.500
 4997TIP3    H214937   3.351   0.773   4.598
 4998TIP3   OH214938   2.010   2.364   0.501
 4998TIP3    H114939   2.044   2.343   0.589
 4998TIP3    H214940   2.088   2.370   0.446
 4999TIP3   OH214941   2.896   3.587   5.125
 4999TIP3    H114942   2.967   3.635   5.166
 4999TIP3    H214943   2.829   3.653   5.107
 5000TIP3   OH214944   7.161   5.944   0.023
 5000TIP3    H114945   7.155   5.927   0.117
 5000TIP3    H214946   7.177   6.039   0.017
 5001TIP3   OH214947   7.826   2.153   1.832
 5001TIP3    H114948   7.851   2.187   1.746
 5001TIP3    H214949   7.766   2.219   1.867
 5002TIP3   OH214950   0.949   0.545   1.670
 5002TIP3    H114951   0.992   0.523   1.588
 5002TIP3    H214952   0.866   0.586   1.644
 5003TIP3   OH214953   6.725   1.801   5.137
 5003TIP3    H114954   6.765   1.830   5.055
 5003TIP3    H214955   6.689   1.715   5.116
 5004TIP3   OH214956   3.575   4.886   4.352
 5004TIP3    H114957   3.560   4.801   4.394
 5004TIP3    H214958   3.624   4.937   4.416
 5005TIP3   OH214959   3.742   3.087   4.240
 5005TIP3    H114960   3.672   3.022   4.229
 5005TIP3    H214961   3.803   3.047   4.301
 5006TIP3   OH214962   3.704   5.466   6.481
 5006TIP3    H114963   3.679   5.547   6.526
 5006TIP3    H214964   3.788   5.487   6.439
 5007TIP3   OH214965   2.062   7.693   1.111
 5007TIP3    H114966   2.019   7.756   1.169
 5007TIP3    H214967   2.092   7.624   1.170
 5008TIP3   OH214968   6.739   0.427   5.916
 5008TIP3    H114969   6.818   0.473   5.943
 5008TIP3    H214970   6.673   0.455   5.980
 5009TIP3   OH214971   7.283   5.320   6.677
 5009TIP3    H114972   7.200   5.360   6.649
 5009TIP3    H214973   7.259   5.267   6.753
 5010TIP3   OH214974   1.779   5.425   5.130
 5010TIP3    H114975   1.730   5.504   5.108
 5010TIP3    H214976   1.871   5.451   5.125
 5011TIP3   OH214977   4.808   2.644   6.012
 5011TIP3    H114978   4.892   2.685   6.032
 5011TIP3    H214979   4.754   2.716   5.979
 5012TIP3   OH214980   7.223   3.991   5.940
 5012TIP3    H114981   7.250   3.974   6.030
 5012TIP3    H214982   7.128   3.999   5.945
 5013TIP3   OH214983   3.743   7.649   2.327
 5013TIP3    H114984   3.727   7.740   2.304
 5013TIP3    H214985   3.658   7.606   2.312
 5014TIP3   OH214986   3.303   7.225   4.593
 5014TIP3    H114987   3.295   7.199   4.501
 5014TIP3    H214988   3.216   7.209   4.630
 5015TIP3   OH214989   2.918   6.029   4.529
 5015TIP3    H114990   2.839   5.975   4.537
 5015TIP3    H214991   2.991   5.968   4.541
 5016TIP3   OH214992   1.510   0.557   5.499
 5016TIP3    H114993   1.476   0.502   5.570
 5016TIP3    H214994   1.474   0.518   5.419
 5017TIP3   OH214995   7.142   5.212   2.672
 5017TIP3    H114996   7.233   5.185   2.668
 5017TIP3    H214997   7.143   5.294   2.720
 5018TIP3   OH214998   0.382   3.272   2.702
 5018TIP3    H114999   0.471   3.300   2.721
 5018TIP3    H215000   0.329   3.314   2.769
 5019TIP3   OH215001   6.939   0.890   0.673
 5019TIP3    H115002   6.885   0.880   0.751
 5019TIP3    H215003   6.911   0.819   0.615
 5020TIP3   OH215004   0.680   3.909   1.837
 5020TIP3    H115005   0.691   3.850   1.911
 5020TIP3    H215006   0.764   3.956   1.832
 5021TIP3   OH215007   4.369   2.645   2.262
 5021TIP3    H115008   4.412   2.730   2.251
 5021TIP3    H215009   4.282   2.666   2.297
 5022TIP3   OH215010   6.646   5.233   0.198
 5022TIP3    H115011   6.717   5.170   0.181
 5022TIP3    H215012   6.605   5.246   0.112
 5023TIP3   OH215013   0.688   2.251   5.454
 5023TIP3    H115014   0.642   2.216   5.378
 5023TIP3    H215015   0.738   2.324   5.421
 5024TIP3   OH215016   1.116   4.338   4.291
 5024TIP3    H115017   1.153   4.379   4.370
 5024TIP3    H215018   1.082   4.412   4.240
 5025TIP3   OH215019   8.298   7.597   2.984
 5025TIP3    H115020   8.217   7.604   3.033
 5025TIP3    H215021   8.271   7.578   2.894
 5026TIP3   OH215022   7.598   3.734   5.205
 5026TIP3    H115023   7.522   3.677   5.197
 5026TIP3    H215024   7.589   3.796   5.132
 5027TIP3   OH215025   2.586   2.888   4.378
 5027TIP3    H115026   2.515   2.825   4.389
 5027TIP3    H215027   2.649   2.864   4.446
 5028TIP3   OH215028   0.388   4.823   6.184
 5028TIP3    H115029   0.415   4.878   6.110
 5028TIP3    H215030   0.469   4.781   6.213
 5029TIP3   OH215031   0.525   5.220   0.520
 5029TIP3    H115032   0.452   5.279   0.538
 5029TIP3    H215033   0.600   5.278   0.507
 5030TIP3   OH215034   1.605   0.247   5.075
 5030TIP3    H115035   1.635   0.300   5.149
 5030TIP3    H215036   1.526   0.204   5.108
 5031TIP3   OH215037   4.922   3.747   4.260
 5031TIP3    H115038   4.876   3.752   4.176
 5031TIP3    H215039   5.008   3.711   4.238
 5032TIP3   OH215040   0.915   5.632   1.602
 5032TIP3    H115041   0.956   5.701   1.653
 5032TIP3    H215042   0.823   5.634   1.629
 5033TIP3   OH215043   4.083   6.733   2.439
 5033TIP3    H115044   4.098   6.793   2.366
 5033TIP3    H215045   4.090   6.788   2.517
 5034TIP3   OH215046   2.122   1.478   2.265
 5034TIP3    H115047   2.040   1.453   2.222
 5034TIP3    H215048   2.171   1.526   2.198
 5035TIP3   OH215049   1.694   0.092   3.056
 5035TIP3    H115050   1.624   0.045   3.011
 5035TIP3    H215051   1.735   0.145   2.987
 5036TIP3   OH215052   4.183   7.611   3.207
 5036TIP3    H115053   4.199   7.685   3.266
 5036TIP3    H215054   4.228   7.634   3.126
 5037TIP3   OH215055   5.935   5.423   2.487
 5037TIP3    H115056   5.887   5.347   2.455
 5037TIP3    H215057   5.908   5.495   2.429
 5038TIP3   OH215058   1.387   5.218   6.237
 5038TIP3    H115059   1.474   5.243   6.270
 5038TIP3    H215060   1.406   5.165   6.160
 5039TIP3   OH215061   0.891   2.429   1.924
 5039TIP3    H115062   0.880   2.508   1.871
 5039TIP3    H215063   0.863   2.456   2.012
 5040TIP3   OH215064   7.098   3.464   5.476
 5040TIP3    H115065   7.081   3.476   5.382
 5040TIP3    H215066   7.183   3.421   5.479
 5041TIP3   OH215067   5.131   7.531   3.336
 5041TIP3    H115068   5.059   7.561   3.393
 5041TIP3    H215069   5.138   7.438   3.355
 5042TIP3   OH215070   2.563   7.761   3.623
 5042TIP3    H115071   2.649   7.728   3.596
 5042TIP3    H215072   2.524   7.689   3.672
 5043TIP3   OH215073   4.841   5.999   0.918
 5043TIP3    H115074   4.815   6.085   0.952
 5043TIP3    H215075   4.760   5.962   0.883
 5044TIP3   OH215076   0.821   4.507   5.387
 5044TIP3    H115077   0.917   4.507   5.380
 5044TIP3    H215078   0.804   4.535   5.477
 5045TIP3   OH215079   4.763   2.486   0.414
 5045TIP3    H115080   4.698   2.554   0.429
 5045TIP3    H215081   4.790   2.460   0.503
 5046TIP3   OH215082   2.727   3.586   6.638
 5046TIP3    H115083   2.733   3.613   6.730
 5046TIP3    H215084   2.815   3.597   6.604
 5047TIP3   OH215085   7.380   1.918   4.051
 5047TIP3    H115086   7.351   1.912   4.142
 5047TIP3    H215087   7.367   1.829   4.016
 5048TIP3   OH215088   0.594   5.317   1.798
 5048TIP3    H115089   0.655   5.266   1.852
 5048TIP3    H215090   0.651   5.377   1.749
 5049TIP3   OH215091   7.293   6.835   0.122
 5049TIP3    H115092   7.270   6.912   0.173
 5049TIP3    H215093   7.297   6.764   0.186
 5050TIP3   OH215094   3.843   3.609   4.801
 5050TIP3    H115095   3.878   3.696   4.820
 5050TIP3    H215096   3.827   3.611   4.706
 5051TIP3   OH215097   5.387   5.847   3.499
 5051TIP3    H115098   5.363   5.840   3.591
 5051TIP3    H215099   5.365   5.937   3.475
 5052TIP3   OH215100   6.690   3.061   5.816
 5052TIP3    H115101   6.734   3.046   5.900
 5052TIP3    H215102   6.758   3.046   5.750
 5053TIP3   OH215103   0.376   7.621   5.748
 5053TIP3    H115104   0.420   7.706   5.754
 5053TIP3    H215105   0.312   7.632   5.679
 5054TIP3   OH215106   3.993   5.015   0.443
 5054TIP3    H115107   3.919   4.956   0.453
 5054TIP3    H215108   4.053   4.990   0.514
 5055TIP3   OH215109   6.182   3.535   2.190
 5055TIP3    H115110   6.147   3.583   2.115
 5055TIP3    H215111   6.143   3.448   2.183
 5056TIP3   OH215112   6.803   2.612   3.441
 5056TIP3    H115113   6.748   2.678   3.398
 5056TIP3    H215114   6.842   2.658   3.515
 5057TIP3   OH215115   0.347   1.395   6.500
 5057TIP3    H115116   0.280   1.453   6.464
 5057TIP3    H215117   0.418   1.454   6.526
 5058TIP3   OH215118   5.223   3.289   5.063
 5058TIP3    H115119   5.218   3.378   5.029
 5058TIP3    H215120   5.317   3.272   5.070
 5059TIP3   OH215121   4.044   0.882   6.055
 5059TIP3    H115122   4.104   0.887   5.981
 5059TIP3    H215123   3.968   0.934   6.029
 5060TIP3   OH215124   7.710   1.879   4.827
 5060TIP3    H115125   7.768   1.945   4.866
 5060TIP3    H215126   7.742   1.868   4.738
 5061TIP3   OH215127   3.415   0.755   3.628
 5061TIP3    H115128   3.494   0.795   3.662
 5061TIP3    H215129   3.436   0.733   3.537
 5062TIP3   OH215130   1.282   1.475   0.018
 5062TIP3    H115131   1.234   1.557   0.011
 5062TIP3    H215132   1.217   1.412   0.051
 5063TIP3   OH215133   8.244   2.143   0.746
 5063TIP3    H115134   8.197   2.226   0.744
 5063TIP3    H215135   8.331   2.164   0.713
 5064TIP3   OH215136   1.546   2.165   6.121
 5064TIP3    H115137   1.501   2.128   6.046
 5064TIP3    H215138   1.557   2.092   6.182
 5065TIP3   OH215139   5.371   6.169   0.500
 5065TIP3    H115140   5.457   6.179   0.541
 5065TIP3    H215141   5.310   6.214   0.559
 5066TIP3   OH215142   7.354   6.006   4.247
 5066TIP3    H115143   7.303   6.084   4.270
 5066TIP3    H215144   7.393   5.978   4.329
 5067TIP3   OH215145   4.703   7.660   0.511
 5067TIP3    H115146   4.744   7.617   0.585
 5067TIP3    H215147   4.770   7.661   0.443
 5068TIP3   OH215148   5.926   7.430   6.656
 5068TIP3    H115149   5.956   7.340   6.671
 5068TIP3    H215150   5.909   7.464   6.744
 5069TIP3   OH215151   2.925   5.039   2.086
 5069TIP3    H115152   2.992   5.085   2.137
 5069TIP3    H215153   2.956   5.044   1.996
 5070TIP3   OH215154   6.522   3.292   2.025
 5070TIP3    H115155   6.528   3.196   2.031
 5070TIP3    H215156   6.551   3.312   1.936
 5071TIP3   OH215157   6.096   2.526   4.432
 5071TIP3    H115158   6.010   2.560   4.406
 5071TIP3    H215159   6.090   2.432   4.417
 5072TIP3   OH215160   1.069   1.207   6.452
 5072TIP3    H115161   1.135   1.210   6.383
 5072TIP3    H215162   1.037   1.297   6.459
 5073TIP3   OH215163   3.356   1.899   0.416
 5073TIP3    H115164   3.271   1.872   0.382
 5073TIP3    H215165   3.346   1.992   0.435
 5074TIP3   OH215166   2.463   3.233   1.777
 5074TIP3    H115167   2.478   3.319   1.814
 5074TIP3    H215168   2.547   3.210   1.735
 5075TIP3   OH215169   6.848   5.036   4.291
 5075TIP3    H115170   6.804   4.988   4.362
 5075TIP3    H215171   6.941   5.029   4.312
 5076TIP3   OH215172   8.037   0.405   5.990
 5076TIP3    H115173   8.104   0.438   6.050
 5076TIP3    H215174   7.954   0.427   6.032
 5077TIP3   OH215175   4.414   1.179   0.063
 5077TIP3    H115176   4.374   1.225   0.136
 5077TIP3    H215177   4.405   1.086   0.085
 5078TIP3   OH215178   0.745   5.959   4.101
 5078TIP3    H115179   0.714   5.955   4.011
 5078TIP3    H215180   0.786   5.874   4.116
 5079TIP3   OH215181   3.082   1.213   0.007
 5079TIP3    H115182   3.025   1.220   0.083
 5079TIP3    H215183   3.031   1.160  -0.056
 5080TIP3   OH215184   1.589   6.723   5.020
 5080TIP3    H115185   1.673   6.767   5.031
 5080TIP3    H215186   1.536   6.754   5.093
 5081TIP3   OH215187   6.935   6.333   6.603
 5081TIP3    H115188   6.875   6.406   6.619
 5081TIP3    H215189   6.917   6.308   6.512
 5082TIP3   OH215190   5.249  -0.007   5.150
 5082TIP3    H115191   5.281   0.083   5.147
 5082TIP3    H215192   5.301  -0.053   5.083
 5083TIP3   OH215193   4.237   4.485   5.235
 5083TIP3    H115194   4.190   4.540   5.172
 5083TIP3    H215195   4.300   4.545   5.276
 5084TIP3   OH215196   6.276   4.901   3.632
 5084TIP3    H115197   6.272   4.988   3.591
 5084TIP3    H215198   6.303   4.842   3.561
 5085TIP3   OH215199   3.696   0.895   2.085
 5085TIP3    H115200   3.664   0.883   1.996
 5085TIP3    H215201   3.782   0.936   2.074
 5086TIP3   OH215202   2.099   4.154   2.477
 5086TIP3    H115203   2.156   4.126   2.549
 5086TIP3    H215204   2.067   4.240   2.504
 5087TIP3   OH215205   7.317   7.701   5.611
 5087TIP3    H115206   7.315   7.796   5.615
 5087TIP3    H215207   7.371   7.680   5.534
 5088TIP3   OH215208   4.015   0.198   1.695
 5088TIP3    H115209   4.073   0.134   1.655
 5088TIP3    H215210   4.038   0.196   1.788
 5089TIP3   OH215211   5.888   6.721   0.387
 5089TIP3    H115212   5.963   6.663   0.380
 5089TIP3    H215213   5.860   6.736   0.297
 5090TIP3   OH215214   4.093   4.197   0.956
 5090TIP3    H115215   4.154   4.148   0.901
 5090TIP3    H215216   4.144   4.272   0.987
 5091TIP3   OH215217   6.486   1.557   0.989
 5091TIP3    H115218   6.437   1.476   1.004
 5091TIP3    H215219   6.548   1.535   0.920
 5092TIP3   OH215220   3.646   2.473   2.814
 5092TIP3    H115221   3.603   2.389   2.799
 5092TIP3    H215222   3.596   2.535   2.761
 5093TIP3   OH215223   0.316   3.606   0.807
 5093TIP3    H115224   0.242   3.656   0.840
 5093TIP3    H215225   0.344   3.654   0.729
 5094TIP3   OH215226   0.152   2.554   0.789
 5094TIP3    H115227   0.240   2.552   0.751
 5094TIP3    H215228   0.099   2.501   0.730
 5095TIP3   OH215229   7.387   5.347   4.054
 5095TIP3    H115230   7.339   5.324   4.134
 5095TIP3    H215231   7.395   5.442   4.058
 5096TIP3   OH215232   2.762   1.771   1.375
 5096TIP3    H115233   2.760   1.866   1.364
 5096TIP3    H215234   2.851   1.747   1.351
 5097TIP3   OH215235   1.807   6.133   6.513
 5097TIP3    H115236   1.737   6.193   6.538
 5097TIP3    H215237   1.857   6.181   6.447
 5098TIP3   OH215238   4.311   5.942   5.256
 5098TIP3    H115239   4.327   6.035   5.241
 5098TIP3    H215240   4.219   5.930   5.233
 5099TIP3   OH215241   6.900   0.359   3.677
 5099TIP3    H115242   6.827   0.415   3.652
 5099TIP3    H215243   6.940   0.403   3.752
 5100TIP3   OH215244   3.197   5.276   6.621
 5100TIP3    H115245   3.145   5.196   6.625
 5100TIP3    H215246   3.274   5.252   6.569
 5101TIP3   OH215247   3.758   5.585   4.045
 5101TIP3    H115248   3.770   5.624   3.959
 5101TIP3    H215249   3.664   5.569   4.052
 5102TIP3   OH215250   3.566   2.216   6.152
 5102TIP3    H115251   3.576   2.154   6.079
 5102TIP3    H215252   3.529   2.164   6.223
 5103TIP3   OH215253   3.168   0.513   0.031
 5103TIP3    H115254   3.126   0.553   0.107
 5103TIP3    H215255   3.221   0.584  -0.007
 5104TIP3   OH215256   4.996   5.675   3.828
 5104TIP3    H115257   4.939   5.602   3.805
 5104TIP3    H215258   4.942   5.731   3.884
 5105TIP3   OH215259   4.514   2.826   1.467
 5105TIP3    H115260   4.554   2.746   1.501
 5105TIP3    H215261   4.469   2.799   1.387
 5106TIP3   OH215262   4.331   3.335   1.579
 5106TIP3    H115263   4.349   3.241   1.586
 5106TIP3    H215264   4.236   3.341   1.566
 5107TIP3   OH215265   5.812   3.066   2.136
 5107TIP3    H115266   5.744   3.088   2.200
 5107TIP3    H215267   5.809   2.970   2.131
 5108TIP3   OH215268   2.781   5.176   1.211
 5108TIP3    H115269   2.704   5.141   1.256
 5108TIP3    H215270   2.799   5.259   1.255
 5109TIP3   OH215271   6.148   6.121   4.009
 5109TIP3    H115272   6.243   6.133   4.013
 5109TIP3    H215273   6.125   6.141   3.919
 5110TIP3   OH215274   5.495   2.069   2.351
 5110TIP3    H115275   5.477   2.075   2.258
 5110TIP3    H215276   5.430   2.007   2.385
 5111TIP3   OH215277   3.481   7.167   2.629
 5111TIP3    H115278   3.414   7.106   2.660
 5111TIP3    H215279   3.512   7.129   2.546
 5112TIP3   OH215280   2.065   6.283   1.361
 5112TIP3    H115281   2.025   6.236   1.434
 5112TIP3    H215282   2.027   6.243   1.283
 5113TIP3   OH215283   0.973   2.829   2.724
 5113TIP3    H115284   0.984   2.756   2.786
 5113TIP3    H215285   0.880   2.832   2.706
 5114TIP3   OH215286   0.938   1.972   0.976
 5114TIP3    H115287   0.927   1.908   0.906
 5114TIP3    H215288   0.961   2.054   0.932
 5115TIP3   OH215289   1.717   2.413   2.908
 5115TIP3    H115290   1.651   2.344   2.910
 5115TIP3    H215291   1.668   2.493   2.893
 5116TIP3   OH215292   3.077   1.100   5.248
 5116TIP3    H115293   3.157   1.050   5.232
 5116TIP3    H215294   3.040   1.117   5.162
 5117TIP3   OH215295   1.461   0.809   0.999
 5117TIP3    H115296   1.542   0.761   1.011
 5117TIP3    H215297   1.467   0.845   0.910
 5118TIP3   OH215298   6.830   3.072   0.578
 5118TIP3    H115299   6.865   3.107   0.660
 5118TIP3    H215300   6.891   3.001   0.555
 5119TIP3   OH215301   4.594   3.515   3.766
 5119TIP3    H115302   4.589   3.450   3.836
 5119TIP3    H215303   4.674   3.564   3.785
 5120TIP3   OH215304   4.392   5.243   0.192
 5120TIP3    H115305   4.417   5.263   0.282
 5120TIP3    H215306   4.350   5.322   0.160
 5121TIP3   OH215307   5.028   5.061   0.479
 5121TIP3    H115308   5.100   4.999   0.482
 5121TIP3    H215309   4.959   5.015   0.430
 5122TIP3   OH215310   4.728   5.656   3.556
 5122TIP3    H115311   4.718   5.644   3.462
 5122TIP3    H215312   4.639   5.652   3.590
 5123TIP3   OH215313   5.633   7.639   3.213
 5123TIP3    H115314   5.556   7.604   3.258
 5123TIP3    H215315   5.597   7.686   3.137
 5124TIP3   OH215316   5.763   4.235   2.019
 5124TIP3    H115317   5.801   4.229   1.931
 5124TIP3    H215318   5.721   4.321   2.021
 5125TIP3   OH215319   1.881   2.875  -0.020
 5125TIP3    H115320   1.873   2.969  -0.010
 5125TIP3    H215321   1.872   2.840   0.069
 5126TIP3   OH215322   1.804   6.905   4.842
 5126TIP3    H115323   1.863   6.856   4.785
 5126TIP3    H215324   1.829   6.880   4.931
 5127TIP3   OH215325   4.802   4.924   5.872
 5127TIP3    H115326   4.803   4.837   5.913
 5127TIP3    H215327   4.893   4.953   5.876
 5128TIP3   OH215328   2.475   1.724   2.961
 5128TIP3    H115329   2.454   1.808   2.921
 5128TIP3    H215330   2.564   1.704   2.932
 5129TIP3   OH215331   3.998   0.904   2.599
 5129TIP3    H115332   4.018   0.875   2.510
 5129TIP3    H215333   4.005   0.999   2.596
 5130TIP3   OH215334   0.931   6.270   5.949
 5130TIP3    H115335   0.916   6.346   6.005
 5130TIP3    H215336   0.867   6.278   5.879
 5131TIP3   OH215337   3.749   7.761   2.921
 5131TIP3    H115338   3.805   7.697   2.965
 5131TIP3    H215339   3.760   7.743   2.827
 5132TIP3   OH215340   0.255   5.667   6.415
 5132TIP3    H115341   0.335   5.620   6.393
 5132TIP3    H215342   0.185   5.602   6.406
 5133TIP3   OH215343   6.636   4.766   5.705
 5133TIP3    H115344   6.557   4.744   5.655
 5133TIP3    H215345   6.701   4.703   5.676
 5134TIP3   OH215346   4.035   6.693   2.819
 5134TIP3    H115347   4.114   6.734   2.785
 5134TIP3    H215348   4.038   6.707   2.913
 5135TIP3   OH215349   1.320   7.708   0.372
 5135TIP3    H115350   1.353   7.784   0.324
 5135TIP3    H215351   1.390   7.643   0.366
 5136TIP3   OH215352   8.005   7.601   6.432
 5136TIP3    H115353   8.034   7.565   6.516
 5136TIP3    H215354   7.980   7.691   6.451
 5137TIP3   OH215355   4.874   5.100   2.585
 5137TIP3    H115356   4.863   5.193   2.570
 5137TIP3    H215357   4.795   5.059   2.550
 5138TIP3   OH215358   5.949   2.714   3.910
 5138TIP3    H115359   5.915   2.745   3.825
 5138TIP3    H215360   5.903   2.767   3.975
 5139TIP3   OH215361   7.084   1.455   1.841
 5139TIP3    H115362   7.003   1.504   1.826
 5139TIP3    H215363   7.109   1.422   1.755
 5140TIP3   OH215364   3.972   5.845   1.817
 5140TIP3    H115365   4.058   5.855   1.858
 5140TIP3    H215366   3.915   5.906   1.864
 5141TIP3   OH215367   6.889   2.193   5.552
 5141TIP3    H115368   6.868   2.232   5.637
 5141TIP3    H215369   6.846   2.108   5.554
 5142TIP3   OH215370   7.248   5.287   5.432
 5142TIP3    H115371   7.326   5.294   5.488
 5142TIP3    H215372   7.270   5.338   5.354
 5143TIP3   OH215373   0.221   2.121   2.787
 5143TIP3    H115374   0.305   2.166   2.786
 5143TIP3    H215375   0.216   2.078   2.701
 5144TIP3   OH215376   4.197   6.638   5.568
 5144TIP3    H115377   4.259   6.581   5.614
 5144TIP3    H215378   4.224   6.633   5.476
 5145TIP3   OH215379   5.834   2.501   6.646
 5145TIP3    H115380   5.787   2.584   6.658
 5145TIP3    H215381   5.766   2.434   6.650
 5146TIP3   OH215382   4.862   6.356   1.965
 5146TIP3    H115383   4.843   6.335   2.057
 5146TIP3    H215384   4.956   6.375   1.963
 5147TIP3   OH215385   2.668   2.997   4.772
 5147TIP3    H115386   2.683   3.082   4.730
 5147TIP3    H215387   2.714   2.934   4.717
 5148TIP3   OH215388   2.182   4.180   1.511
 5148TIP3    H115389   2.242   4.236   1.461
 5148TIP3    H215390   2.133   4.242   1.566
 5149TIP3   OH215391   1.519   4.166   4.692
 5149TIP3    H115392   1.525   4.261   4.698
 5149TIP3    H215393   1.561   4.143   4.609
 5150TIP3   OH215394   0.662   0.172   4.249
 5150TIP3    H115395   0.673   0.266   4.237
 5150TIP3    H215396   0.620   0.142   4.168
 5151TIP3   OH215397   7.777   2.925   4.068
 5151TIP3    H115398   7.696   2.925   4.118
 5151TIP3    H215399   7.770   2.849   4.011
 5152TIP3   OH215400   3.641   2.873   2.512
 5152TIP3    H115401   3.654   2.946   2.572
 5152TIP3    H215402   3.569   2.823   2.550
 5153TIP3   OH215403   4.346   1.183   3.481
 5153TIP3    H115404   4.362   1.089   3.491
 5153TIP3    H215405   4.251   1.193   3.488
 5154TIP3   OH215406   2.989   3.032   4.161
 5154TIP3    H115407   3.042   3.073   4.093
 5154TIP3    H215408   2.899   3.056   4.139
 5155TIP3   OH215409   5.907   2.367   2.892
 5155TIP3    H115410   5.829   2.361   2.947
 5155TIP3    H215411   5.919   2.461   2.879
 5156TIP3   OH215412   6.085   6.373   3.059
 5156TIP3    H115413   6.032   6.446   3.091
 5156TIP3    H215414   6.085   6.383   2.964
 5157TIP3   OH215415   5.034   7.174   4.974
 5157TIP3    H115416   5.042   7.145   5.065
 5157TIP3    H215417   5.028   7.094   4.923
 5158TIP3   OH215418   2.104   7.707   6.690
 5158TIP3    H115419   2.102   7.655   6.771
 5158TIP3    H215420   2.027   7.763   6.695
 5159TIP3   OH215421   1.999   5.392   2.807
 5159TIP3    H115422   2.024   5.339   2.732
 5159TIP3    H215423   2.079   5.402   2.858
 5160TIP3   OH215424   7.734   0.343   2.484
 5160TIP3    H115425   7.786   0.382   2.414
 5160TIP3    H215426   7.656   0.399   2.490
 5161TIP3   OH215427   1.316   5.072   1.060
 5161TIP3    H115428   1.256   5.146   1.066
 5161TIP3    H215429   1.318   5.051   0.967
 5162TIP3   OH215430   0.299   2.240   0.065
 5162TIP3    H115431   0.394   2.239   0.053
 5162TIP3    H215432   0.266   2.178  -0.001
 5163TIP3   OH215433   8.172   5.591   0.610
 5163TIP3    H115434   8.239   5.657   0.598
 5163TIP3    H215435   8.096   5.624   0.561
 5164TIP3   OH215436   5.231   0.536   5.961
 5164TIP3    H115437   5.199   0.491   6.038
 5164TIP3    H215438   5.221   0.473   5.890
 5165TIP3   OH215439   7.992   0.732   6.113
 5165TIP3    H115440   8.079   0.756   6.145
 5165TIP3    H215441   7.936   0.738   6.190
 5166TIP3   OH215442   6.329   4.375   4.672
 5166TIP3    H115443   6.342   4.386   4.578
 5166TIP3    H215444   6.393   4.433   4.713
 5167TIP3   OH215445   7.883   1.680   4.554
 5167TIP3    H115446   7.823   1.605   4.550
 5167TIP3    H215447   7.919   1.686   4.466
 5168TIP3   OH215448   0.707   6.314   4.386
 5168TIP3    H115449   0.721   6.253   4.459
 5168TIP3    H215450   0.691   6.257   4.310
 5169TIP3   OH215451   8.012   6.614   2.589
 5169TIP3    H115452   8.094   6.601   2.635
 5169TIP3    H215453   8.037   6.618   2.496
 5170TIP3   OH215454   1.989   2.664   5.015
 5170TIP3    H115455   2.000   2.569   5.012
 5170TIP3    H215456   1.924   2.682   4.946
 5171TIP3   OH215457   7.853   6.503   6.152
 5171TIP3    H115458   7.923   6.569   6.155
 5171TIP3    H215459   7.847   6.478   6.060
 5172TIP3   OH215460   6.138   4.513   3.341
 5172TIP3    H115461   6.050   4.545   3.359
 5172TIP3    H215462   6.125   4.440   3.280
 5173TIP3   OH215463   2.814   4.378   5.786
 5173TIP3    H115464   2.891   4.431   5.766
 5173TIP3    H215465   2.818   4.365   5.881
 5174TIP3   OH215466   4.242   5.221   5.421
 5174TIP3    H115467   4.221   5.203   5.330
 5174TIP3    H215468   4.257   5.316   5.425
 5175TIP3   OH215469   5.320   5.736   4.052
 5175TIP3    H115470   5.258   5.792   4.099
 5175TIP3    H215471   5.394   5.728   4.112
 5176TIP3   OH215472   5.711   4.213   1.183
 5176TIP3    H115473   5.645   4.146   1.164
 5176TIP3    H215474   5.702   4.277   1.113
 5177TIP3   OH215475   3.219   2.663   0.266
 5177TIP3    H115476   3.254   2.587   0.221
 5177TIP3    H215477   3.132   2.676   0.228
 5178TIP3   OH215478   5.180   5.633   1.429
 5178TIP3    H115479   5.231   5.704   1.389
 5178TIP3    H215480   5.127   5.599   1.357
 5179TIP3   OH215481   2.571   5.194   4.760
 5179TIP3    H115482   2.580   5.101   4.779
 5179TIP3    H215483   2.562   5.235   4.846
 5180TIP3   OH215484   0.661   0.828   4.303
 5180TIP3    H115485   0.616   0.825   4.388
 5180TIP3    H215486   0.627   0.752   4.255
 5181TIP3   OH215487   7.772   3.974   1.770
 5181TIP3    H115488   7.866   3.975   1.755
 5181TIP3    H215489   7.741   3.895   1.724
 5182TIP3   OH215490   7.520   3.298   5.794
 5182TIP3    H115491   7.427   3.292   5.815
 5182TIP3    H215492   7.523   3.328   5.703
 5183TIP3   OH215493   8.079   5.394   1.140
 5183TIP3    H115494   7.991   5.361   1.121
 5183TIP3    H215495   8.096   5.456   1.069
 5184TIP3   OH215496   8.077   7.459   1.213
 5184TIP3    H115497   8.079   7.524   1.142
 5184TIP3    H215498   8.080   7.512   1.293
 5185TIP3   OH215499   1.467   1.036   1.564
 5185TIP3    H115500   1.375   1.016   1.546
 5185TIP3    H215501   1.497   0.963   1.618
 5186TIP3   OH215502   4.512   4.961   1.847
 5186TIP3    H115503   4.594   4.931   1.887
 5186TIP3    H215504   4.502   5.051   1.878
 5187TIP3   OH215505   5.380   5.693   2.103
 5187TIP3    H115506   5.344   5.780   2.123
 5187TIP3    H215507   5.408   5.698   2.012
 5188TIP3   OH215508   5.334   2.624   3.755
 5188TIP3    H115509   5.325   2.603   3.848
 5188TIP3    H215510   5.382   2.707   3.754
 5189TIP3   OH215511   6.987   4.584   6.631
 5189TIP3    H115512   7.044   4.580   6.554
 5189TIP3    H215513   6.999   4.499   6.674
 5190TIP3   OH215514   5.880   7.251   2.470
 5190TIP3    H115515   5.795   7.288   2.448
 5190TIP3    H215516   5.913   7.306   2.541
 5191TIP3   OH215517   1.682   7.534   2.906
 5191TIP3    H115518   1.629   7.557   2.982
 5191TIP3    H215519   1.772   7.536   2.937
 5192TIP3   OH215520   5.008   1.734   4.243
 5192TIP3    H115521   4.947   1.668   4.210
 5192TIP3    H215522   5.057   1.762   4.165
 5193TIP3   OH215523   4.937   5.037   3.050
 5193TIP3    H115524   4.928   5.124   3.089
 5193TIP3    H215525   4.932   5.053   2.955
 5194TIP3   OH215526   2.207   3.517   5.633
 5194TIP3    H115527   2.161   3.462   5.568
 5194TIP3    H215528   2.287   3.469   5.652
 5195TIP3   OH215529   7.267   2.975   3.494
 5195TIP3    H115530   7.348   2.956   3.541
 5195TIP3    H215531   7.197   2.940   3.550
 5196TIP3   OH215532   2.548   1.720   2.254
 5196TIP3    H115533   2.592   1.805   2.259
 5196TIP3    H215534   2.615   1.661   2.220
 5197TIP3   OH215535   5.395   0.489   6.232
 5197TIP3    H115536   5.300   0.481   6.222
 5197TIP3    H215537   5.429   0.401   6.215
 5198TIP3   OH215538   2.406   1.441   2.921
 5198TIP3    H115539   2.422   1.534   2.941
 5198TIP3    H215540   2.415   1.435   2.826
 5199TIP3   OH215541   4.864   4.450   4.252
 5199TIP3    H115542   4.787   4.501   4.275
 5199TIP3    H215543   4.930   4.477   4.316
 5200TIP3   OH215544   4.054   5.494   3.934
 5200TIP3    H115545   4.052   5.399   3.948
 5200TIP3    H215546   3.962   5.520   3.933
 5201TIP3   OH215547   6.779   5.997   5.528
 5201TIP3    H115548   6.740   5.913   5.552
 5201TIP3    H215549   6.777   5.997   5.432
 5202TIP3   OH215550   6.668   0.907   1.573
 5202TIP3    H115551   6.690   0.952   1.491
 5202TIP3    H215552   6.607   0.965   1.617
 5203TIP3   OH215553   1.118   0.280   2.253
 5203TIP3    H115554   1.172   0.359   2.250
 5203TIP3    H215555   1.074   0.278   2.168
 5204TIP3   OH215556   4.051   1.402   2.971
 5204TIP3    H115557   4.095   1.366   3.048
 5204TIP3    H215558   3.989   1.466   3.007
 5205TIP3   OH215559   5.807   1.718   0.337
 5205TIP3    H115560   5.728   1.703   0.285
 5205TIP3    H215561   5.797   1.660   0.413
 5206TIP3   OH215562   7.609   7.034   3.589
 5206TIP3    H115563   7.609   7.010   3.682
 5206TIP3    H215564   7.566   7.119   3.587
 5207TIP3   OH215565   3.102   5.522   0.326
 5207TIP3    H115566   3.013   5.555   0.309
 5207TIP3    H215567   3.158   5.577   0.272
 5208TIP3   OH215568   2.025   5.524   6.639
 5208TIP3    H115569   1.959   5.467   6.678
 5208TIP3    H215570   1.975   5.585   6.585
 5209TIP3   OH215571   3.809   6.652   2.282
 5209TIP3    H115572   3.899   6.672   2.310
 5209TIP3    H215573   3.769   6.738   2.270
 5210TIP3   OH215574   6.115   6.689   5.808
 5210TIP3    H115575   6.207   6.712   5.802
 5210TIP3    H215576   6.100   6.674   5.901
 5211TIP3   OH215577   6.796   6.879   2.766
 5211TIP3    H115578   6.797   6.959   2.714
 5211TIP3    H215579   6.742   6.900   2.843
 5212TIP3   OH215580   1.862   5.461   1.209
 5212TIP3    H115581   1.799   5.442   1.278
 5212TIP3    H215582   1.820   5.430   1.129
 5213TIP3   OH215583   5.432   6.003   3.080
 5213TIP3    H115584   5.446   5.909   3.092
 5213TIP3    H215585   5.340   6.011   3.056
 5214TIP3   OH215586   7.362   1.483   3.758
 5214TIP3    H115587   7.268   1.495   3.744
 5214TIP3    H215588   7.386   1.411   3.700
 5215TIP3   OH215589   3.103   0.955   4.436
 5215TIP3    H115590   3.021   0.911   4.415
 5215TIP3    H215591   3.156   0.888   4.480
 5216TIP3   OH215592   7.064   5.421   0.144
 5216TIP3    H115593   7.014   5.339   0.143
 5216TIP3    H215594   7.131   5.407   0.211
 5217TIP3   OH215595   3.069   5.841   1.849
 5217TIP3    H115596   3.127   5.916   1.842
 5217TIP3    H215597   3.105   5.790   1.922
 5218TIP3   OH215598   7.779   3.541   3.095
 5218TIP3    H115599   7.822   3.622   3.123
 5218TIP3    H215600   7.799   3.478   3.164
 5219TIP3   OH215601   4.309   2.012   0.466
 5219TIP3    H115602   4.288   1.924   0.498
 5219TIP3    H215603   4.274   2.071   0.533
 5220TIP3   OH215604   2.475   3.328   0.530
 5220TIP3    H115605   2.456   3.334   0.624
 5220TIP3    H215606   2.511   3.413   0.507
 5221TIP3   OH215607   5.303   0.186   5.555
 5221TIP3    H115608   5.380   0.147   5.596
 5221TIP3    H215609   5.269   0.118   5.497
 5222TIP3   OH215610   6.669   0.897   0.762
 5222TIP3    H115611   6.650   0.823   0.705
 5222TIP3    H215612   6.594   0.955   0.751
 5223TIP3   OH215613   2.882   7.137   5.478
 5223TIP3    H115614   2.911   7.089   5.400
 5223TIP3    H215615   2.875   7.069   5.546
 5224TIP3   OH215616   2.358   0.269   1.821
 5224TIP3    H115617   2.401   0.238   1.741
 5224TIP3    H215618   2.408   0.347   1.846
 5225TIP3   OH215619   6.725   6.555   3.782
 5225TIP3    H115620   6.784   6.572   3.855
 5225TIP3    H215621   6.768   6.486   3.731
 5226TIP3   OH215622   2.486   1.812   1.089
 5226TIP3    H115623   2.562   1.761   1.061
 5226TIP3    H215624   2.523   1.888   1.134
 5227TIP3   OH215625   4.604   7.105   6.062
 5227TIP3    H115626   4.621   7.013   6.080
 5227TIP3    H215627   4.592   7.109   5.967
 5228TIP3   OH215628   3.631   5.717   2.244
 5228TIP3    H115629   3.606   5.783   2.309
 5228TIP3    H215630   3.625   5.762   2.160
 5229TIP3   OH215631   5.461   0.250   4.083
 5229TIP3    H115632   5.410   0.302   4.146
 5229TIP3    H215633   5.532   0.213   4.135
 5230TIP3   OH215634   2.092   6.641   2.370
 5230TIP3    H115635   2.020   6.596   2.414
 5230TIP3    H215636   2.063   6.731   2.362
 5231TIP3   OH215637   6.339   0.301   2.071
 5231TIP3    H115638   6.329   0.243   1.996
 5231TIP3    H215639   6.369   0.244   2.142
 5232TIP3   OH215640   7.590   0.369   5.553
 5232TIP3    H115641   7.496   0.366   5.565
 5232TIP3    H215642   7.627   0.367   5.641
 5233TIP3   OH215643   6.917   2.811   0.490
 5233TIP3    H115644   6.982   2.757   0.445
 5233TIP3    H215645   6.856   2.749   0.529
 5234TIP3   OH215646   1.765   3.295   5.437
 5234TIP3    H115647   1.860   3.284   5.450
 5234TIP3    H215648   1.728   3.289   5.525
 5235TIP3   OH215649   8.197   1.436   3.845
 5235TIP3    H115650   8.123   1.391   3.886
 5235TIP3    H215651   8.158   1.514   3.804
 5236TIP3   OH215652   2.332   1.063   6.439
 5236TIP3    H115653   2.253   1.053   6.386
 5236TIP3    H215654   2.401   1.022   6.387
 5237TIP3   OH215655   8.201   1.758   5.132
 5237TIP3    H115656   8.233   1.835   5.085
 5237TIP3    H215657   8.122   1.731   5.085
 5238TIP3   OH215658   3.330   0.684   5.603
 5238TIP3    H115659   3.415   0.684   5.645
 5238TIP3    H215660   3.268   0.667   5.674
 5239TIP3   OH215661   6.250   5.773   5.176
 5239TIP3    H115662   6.232   5.755   5.084
 5239TIP3    H215663   6.346   5.777   5.182
 5240TIP3   OH215664   3.030   7.782   2.364
 5240TIP3    H115665   3.072   7.867   2.371
 5240TIP3    H215666   3.083   7.724   2.419
 5241TIP3   OH215667   5.265   6.076   4.696
 5241TIP3    H115668   5.200   6.052   4.630
 5241TIP3    H215669   5.214   6.110   4.769
 5242TIP3   OH215670   6.144   2.914   4.948
 5242TIP3    H115671   6.099   2.872   5.021
 5242TIP3    H215672   6.081   2.978   4.915
 5243TIP3   OH215673   3.598   2.336   1.267
 5243TIP3    H115674   3.562   2.249   1.250
 5243TIP3    H215675   3.663   2.349   1.197
 5244TIP3   OH215676   7.945   1.505   5.239
 5244TIP3    H115677   7.972   1.568   5.306
 5244TIP3    H215678   7.962   1.549   5.156
 5245TIP3   OH215679   6.083   5.261   2.830
 5245TIP3    H115680   6.067   5.355   2.822
 5245TIP3    H215681   6.006   5.226   2.874
 5246TIP3   OH215682   2.128   3.812   3.020
 5246TIP3    H115683   2.034   3.798   3.026
 5246TIP3    H215684   2.138   3.901   2.988
 5247TIP3   OH215685   8.217   4.761   5.910
 5247TIP3    H115686   8.169   4.844   5.903
 5247TIP3    H215687   8.160   4.705   5.962
 5248TIP3   OH215688   0.252   0.357   4.629
 5248TIP3    H115689   0.247   0.450   4.606
 5248TIP3    H215690   0.311   0.320   4.563
 5249TIP3   OH215691   4.930   5.429   0.274
 5249TIP3    H115692   4.893   5.350   0.313
 5249TIP3    H215693   4.898   5.429   0.184
 5250TIP3   OH215694   5.461   1.999   3.456
 5250TIP3    H115695   5.442   1.918   3.504
 5250TIP3    H215696   5.469   1.971   3.365
 5251TIP3   OH215697   3.547   4.999   5.049
 5251TIP3    H115698   3.561   4.973   5.140
 5251TIP3    H215699   3.597   4.935   4.998
 5252TIP3   OH215700   0.486   5.740   2.609
 5252TIP3    H115701   0.563   5.686   2.588
 5252TIP3    H215702   0.517   5.830   2.599
 5253TIP3   OH215703   6.029   2.318   0.311
 5253TIP3    H115704   6.079   2.297   0.233
 5253TIP3    H215705   6.089   2.370   0.365
 5254TIP3   OH215706   4.753  -0.005   3.027
 5254TIP3    H115707   4.729   0.053   3.100
 5254TIP3    H215708   4.809   0.050   2.971
 5255TIP3   OH215709   0.971   2.857   5.350
 5255TIP3    H115710   1.002   2.772   5.382
 5255TIP3    H215711   0.975   2.915   5.426
 5256TIP3   OH215712   0.416   3.350   0.735
 5256TIP3    H115713   0.400   3.442   0.755
 5256TIP3    H215714   0.370   3.335   0.653
 5257TIP3   OH215715   3.939   2.198   1.252
 5257TIP3    H115716   3.991   2.204   1.332
 5257TIP3    H215717   3.904   2.287   1.240
 5258TIP3   OH215718   3.344   3.186   4.702
 5258TIP3    H115719   3.258   3.178   4.660
 5258TIP3    H215720   3.390   3.105   4.677
 5259TIP3   OH215721  -0.005   2.799   2.129
 5259TIP3    H115722  -0.025   2.707   2.147
 5259TIP3    H215723   0.034   2.798   2.042
 5260TIP3   OH215724   4.724   4.018   4.179
 5260TIP3    H115725   4.767   3.949   4.128
 5260TIP3    H215726   4.775   4.024   4.259
 5261TIP3   OH215727   4.483   5.240   1.915
 5261TIP3    H115728   4.577   5.226   1.919
 5261TIP3    H215729   4.465   5.305   1.984
 5262TIP3   OH215730   6.268   4.207   5.466
 5262TIP3    H115731   6.296   4.268   5.398
 5262TIP3    H215732   6.342   4.201   5.526
 5263TIP3   OH215733   2.886   4.748   2.018
 5263TIP3    H115734   2.883   4.692   2.096
 5263TIP3    H215735   2.942   4.822   2.044
 5264TIP3   OH215736   7.732   6.411   5.494
 5264TIP3    H115737   7.710   6.372   5.409
 5264TIP3    H215738   7.662   6.475   5.509
 5265TIP3   OH215739   3.374   4.020   1.547
 5265TIP3    H115740   3.463   4.043   1.520
 5265TIP3    H215741   3.373   3.924   1.546
 5266TIP3   OH215742   0.257   5.457   0.977
 5266TIP3    H115743   0.305   5.412   0.908
 5266TIP3    H215744   0.171   5.473   0.938
 5267TIP3   OH215745   6.440   0.238   4.579
 5267TIP3    H115746   6.425   0.145   4.564
 5267TIP3    H215747   6.531   0.242   4.610
 5268TIP3   OH215748   5.995   5.989   5.628
 5268TIP3    H115749   6.064   5.926   5.606
 5268TIP3    H215750   6.030   6.038   5.702
 5269TIP3   OH215751   7.903   6.828   0.566
 5269TIP3    H115752   7.910   6.895   0.635
 5269TIP3    H215753   7.817   6.842   0.527
 5270TIP3   OH215754   7.365   0.471   1.515
 5270TIP3    H115755   7.383   0.461   1.608
 5270TIP3    H215756   7.270   0.472   1.508
 5271TIP3   OH215757   7.534   1.054   3.259
 5271TIP3    H115758   7.500   1.056   3.349
 5271TIP3    H215759   7.460   1.081   3.205
 5272TIP3   OH215760   7.036   2.472   3.370
 5272TIP3    H115761   7.029   2.378   3.359
 5272TIP3    H215762   6.948   2.500   3.395
 5273TIP3   OH215763   2.481   7.034   1.168
 5273TIP3    H115764   2.473   6.998   1.257
 5273TIP3    H215765   2.556   7.093   1.173
 5274TIP3   OH215766   7.345   5.208   1.252
 5274TIP3    H115767   7.408   5.156   1.302
 5274TIP3    H215768   7.383   5.296   1.249
 5275TIP3   OH215769   7.360   6.606   6.186
 5275TIP3    H115770   7.441   6.570   6.151
 5275TIP3    H215771   7.335   6.545   6.256
 5276TIP3   OH215772   3.061   5.081   0.363
 5276TIP3    H115773   3.079   5.155   0.421
 5276TIP3    H215774   3.131   5.085   0.297
 5277TIP3   OH215775   2.292   7.697   5.989
 5277TIP3    H115776   2.371   7.669   6.034
 5277TIP3    H215777   2.314   7.691   5.896
 5278TIP3   OH215778   1.108   7.002   2.318
 5278TIP3    H115779   1.021   7.040   2.335
 5278TIP3    H215780   1.154   7.009   2.402
 5279TIP3   OH215781   0.682   7.440   4.830
 5279TIP3    H115782   0.760   7.412   4.783
 5279TIP3    H215783   0.713   7.509   4.889
 5280TIP3   OH215784   4.432   2.548   6.000
 5280TIP3    H115785   4.347   2.505   5.996
 5280TIP3    H215786   4.479   2.514   5.924
 5281TIP3   OH215787   4.617   3.054   0.817
 5281TIP3    H115788   4.603   3.138   0.774
 5281TIP3    H215789   4.681   3.009   0.761
 5282TIP3   OH215790   0.775   2.558   6.538
 5282TIP3    H115791   0.822   2.571   6.456
 5282TIP3    H215792   0.786   2.465   6.558
 5283TIP3   OH215793   1.382   2.351   1.753
 5283TIP3    H115794   1.299   2.370   1.797
 5283TIP3    H215795   1.442   2.417   1.785
 5284TIP3   OH215796   8.272   7.036   3.001
 5284TIP3    H115797   8.322   7.043   2.920
 5284TIP3    H215798   8.182   7.020   2.973
 5285TIP3   OH215799   4.415   0.254   6.423
 5285TIP3    H115800   4.475   0.295   6.485
 5285TIP3    H215801   4.462   0.256   6.339
 5286TIP3   OH215802   5.750   7.764   6.349
 5286TIP3    H115803   5.657   7.776   6.328
 5286TIP3    H215804   5.772   7.840   6.403
 5287TIP3   OH215805   5.991   0.390   2.972
 5287TIP3    H115806   5.899   0.413   2.987
 5287TIP3    H215807   6.038   0.473   2.976
 5288TIP3   OH215808   6.291   0.707   5.733
 5288TIP3    H115809   6.280   0.796   5.767
 5288TIP3    H215810   6.205   0.666   5.746
 5289TIP3   OH215811   3.234   7.546   1.095
 5289TIP3    H115812   3.183   7.540   1.176
 5289TIP3    H215813   3.310   7.600   1.118
 5290TIP3   OH215814   3.355   5.150   3.163
 5290TIP3    H115815   3.279   5.172   3.216
 5290TIP3    H215816   3.364   5.055   3.172
 5291TIP3   OH215817   1.532   2.579   1.802
 5291TIP3    H115818   1.493   2.662   1.831
 5291TIP3    H215819   1.623   2.602   1.783
 5292TIP3   OH215820   2.917   7.118   0.561
 5292TIP3    H115821   2.855   7.063   0.609
 5292TIP3    H215822   2.903   7.206   0.597
 5293TIP3   OH215823   5.767   3.721   6.586
 5293TIP3    H115824   5.761   3.802   6.536
 5293TIP3    H215825   5.725   3.740   6.669
 5294TIP3   OH215826   8.060   3.857   2.274
 5294TIP3    H115827   8.008   3.923   2.321
 5294TIP3    H215828   8.048   3.879   2.182
 5295TIP3   OH215829   5.651   0.462   4.969
 5295TIP3    H115830   5.631   0.490   5.058
 5295TIP3    H215831   5.593   0.387   4.954
 5296TIP3   OH215832   8.249   5.740   4.995
 5296TIP3    H115833   8.270   5.682   5.068
 5296TIP3    H215834   8.273   5.827   5.026
 5297TIP3   OH215835   4.284   6.837   4.104
 5297TIP3    H115836   4.217   6.769   4.101
 5297TIP3    H215837   4.355   6.798   4.155
 5298TIP3   OH215838   2.715   1.152   1.005
 5298TIP3    H115839   2.679   1.138   1.092
 5298TIP3    H215840   2.788   1.091   1.000
 5299TIP3   OH215841   5.371   3.262   2.004
 5299TIP3    H115842   5.287   3.307   2.017
 5299TIP3    H215843   5.388   3.269   1.910
 5300TIP3   OH215844   2.813   3.308   2.104
 5300TIP3    H115845   2.741   3.255   2.072
 5300TIP3    H215846   2.892   3.266   2.068
 5301TIP3   OH215847   7.303   2.729   6.317
 5301TIP3    H115848   7.221   2.776   6.299
 5301TIP3    H215849   7.328   2.758   6.404
 5302TIP3   OH215850   3.879   1.193   6.245
 5302TIP3    H115851   3.931   1.129   6.293
 5302TIP3    H215852   3.942   1.242   6.193
 5303TIP3   OH215853   2.832   0.174   1.336
 5303TIP3    H115854   2.886   0.163   1.414
 5303TIP3    H215855   2.878   0.242   1.285
 5304TIP3   OH215856   0.282   3.937   0.040
 5304TIP3    H115857   0.322   3.971  -0.040
 5304TIP3    H215858   0.196   3.979   0.043
 5305TIP3   OH215859   1.503   2.206   0.958
 5305TIP3    H115860   1.458   2.164   0.884
 5305TIP3    H215861   1.484   2.299   0.947
 5306TIP3   OH215862   7.334   0.092   2.678
 5306TIP3    H115863   7.385   0.125   2.752
 5306TIP3    H215864   7.249   0.135   2.686
 5307TIP3   OH215865   4.539   5.877   0.062
 5307TIP3    H115866   4.548   5.796   0.113
 5307TIP3    H215867   4.445   5.895   0.061
 5308TIP3   OH215868   7.991   0.452   5.130
 5308TIP3    H115869   8.037   0.457   5.214
 5308TIP3    H215870   7.906   0.493   5.148
 5309TIP3   OH215871   5.533   1.573   0.654
 5309TIP3    H115872   5.565   1.661   0.630
 5309TIP3    H215873   5.549   1.521   0.575
 5310TIP3   OH215874   2.247   7.089   4.318
 5310TIP3    H115875   2.250   7.185   4.317
 5310TIP3    H215876   2.311   7.065   4.385
 5311TIP3   OH215877   2.278   0.518   6.011
 5311TIP3    H115878   2.242   0.596   6.053
 5311TIP3    H215879   2.364   0.545   5.980
 5312TIP3   OH215880   3.170   0.357   4.749
 5312TIP3    H115881   3.180   0.452   4.743
 5312TIP3    H215882   3.129   0.332   4.666
 5313TIP3   OH215883   2.535   2.138   3.619
 5313TIP3    H115884   2.553   2.216   3.567
 5313TIP3    H215885   2.620   2.115   3.657
 5314TIP3   OH215886   7.800   6.099   5.483
 5314TIP3    H115887   7.777   6.181   5.441
 5314TIP3    H215888   7.716   6.058   5.504
 5315TIP3   OH215889   2.506   3.818   1.761
 5315TIP3    H115890   2.430   3.869   1.731
 5315TIP3    H215891   2.484   3.727   1.742
 5316TIP3   OH215892   4.175   7.199   6.509
 5316TIP3    H115893   4.103   7.262   6.514
 5316TIP3    H215894   4.132   7.114   6.518
 5317TIP3   OH215895   7.481   3.881   4.480
 5317TIP3    H115896   7.576   3.881   4.488
 5317TIP3    H215897   7.462   3.811   4.418
 5318TIP3   OH215898   0.610   1.925   5.985
 5318TIP3    H115899   0.670   1.874   6.040
 5318TIP3    H215900   0.574   1.991   6.045
 5319TIP3   OH215901   6.994   3.097   1.044
 5319TIP3    H115902   6.961   3.135   0.962
 5319TIP3    H215903   6.951   3.012   1.050
 5320TIP3   OH215904   7.024   4.932   3.131
 5320TIP3    H115905   7.095   4.879   3.168
 5320TIP3    H215906   6.980   4.970   3.207
 5321TIP3   OH215907   3.395   2.527   2.340
 5321TIP3    H115908   3.381   2.599   2.279
 5321TIP3    H215909   3.353   2.452   2.298
 5322TIP3   OH215910   7.847   6.386   6.430
 5322TIP3    H115911   7.857   6.449   6.359
 5322TIP3    H215912   7.806   6.436   6.501
 5323TIP3   OH215913   4.973   7.368   2.161
 5323TIP3    H115914   4.956   7.433   2.229
 5323TIP3    H215915   5.058   7.330   2.185
 5324TIP3   OH215916   3.202   6.100   4.293
 5324TIP3    H115917   3.201   6.194   4.310
 5324TIP3    H215918   3.219   6.092   4.200
 5325TIP3   OH215919   7.826   7.230   5.080
 5325TIP3    H115920   7.884   7.163   5.044
 5325TIP3    H215921   7.877   7.270   5.151
 5326TIP3   OH215922   0.444   1.056   5.581
 5326TIP3    H115923   0.536   1.053   5.604
 5326TIP3    H215924   0.399   1.014   5.654
 5327TIP3   OH215925   5.721   2.399   5.363
 5327TIP3    H115926   5.798   2.365   5.409
 5327TIP3    H215927   5.649   2.388   5.426
 5328TIP3   OH215928   1.831   3.125   1.332
 5328TIP3    H115929   1.740   3.096   1.341
 5328TIP3    H215930   1.876   3.085   1.406
 5329TIP3   OH215931   5.645   5.224   0.049
 5329TIP3    H115932   5.695   5.301   0.078
 5329TIP3    H215933   5.563   5.228   0.098
 5330TIP3   OH215934   6.795   2.496   5.806
 5330TIP3    H115935   6.884   2.481   5.772
 5330TIP3    H215936   6.738   2.453   5.743
 5331TIP3   OH215937   1.195   3.615   2.963
 5331TIP3    H115938   1.140   3.693   2.954
 5331TIP3    H215939   1.172   3.579   3.049
 5332TIP3   OH215940   1.070   6.925   6.193
 5332TIP3    H115941   1.057   6.831   6.181
 5332TIP3    H215942   0.990   6.954   6.237
 5333TIP3   OH215943   0.064   7.653   5.887
 5333TIP3    H115944   0.050   7.677   5.795
 5333TIP3    H215945   0.154   7.620   5.889
 5334TIP3   OH215946   8.205   1.183   4.379
 5334TIP3    H115947   8.241   1.271   4.373
 5334TIP3    H215948   8.110   1.195   4.374
 5335TIP3   OH215949   3.879   0.779   4.539
 5335TIP3    H115950   3.881   0.734   4.454
 5335TIP3    H215951   3.969   0.808   4.553
 5336TIP3   OH215952   4.967   1.249   3.728
 5336TIP3    H115953   4.898   1.226   3.791
 5336TIP3    H215954   4.929   1.319   3.675
 5337TIP3   OH215955   5.715   7.663   4.970
 5337TIP3    H115956   5.661   7.598   4.925
 5337TIP3    H215957   5.785   7.612   5.010
 5338TIP3   OH215958   1.815   3.751   0.265
 5338TIP3    H115959   1.752   3.771   0.334
 5338TIP3    H215960   1.838   3.659   0.279
 5339TIP3   OH215961   3.910   6.780   0.576
 5339TIP3    H115962   3.884   6.828   0.498
 5339TIP3    H215963   3.922   6.690   0.547
 5340TIP3   OH215964   7.321   4.297   5.698
 5340TIP3    H115965   7.315   4.393   5.705
 5340TIP3    H215966   7.344   4.269   5.786
 5341TIP3   OH215967   3.088   7.491   5.188
 5341TIP3    H115968   3.086   7.433   5.112
 5341TIP3    H215969   3.027   7.561   5.167
 5342TIP3   OH215970   3.912   4.272   2.226
 5342TIP3    H115971   3.960   4.339   2.276
 5342TIP3    H215972   3.820   4.299   2.232
 5343TIP3   OH215973   6.346   6.528   4.354
 5343TIP3    H115974   6.281   6.591   4.386
 5343TIP3    H215975   6.415   6.530   4.421
 5344TIP3   OH215976   2.249   5.958   4.666
 5344TIP3    H115977   2.186   5.979   4.597
 5344TIP3    H215978   2.330   5.939   4.619
 5345TIP3   OH215979   1.824   1.980   6.459
 5345TIP3    H115980   1.737   1.972   6.497
 5345TIP3    H215981   1.871   1.902   6.491
 5346TIP3   OH215982   2.759   0.608   1.965
 5346TIP3    H115983   2.777   0.533   1.909
 5346TIP3    H215984   2.747   0.571   2.052
 5347TIP3   OH215985   0.164   6.884   6.358
 5347TIP3    H115986   0.253   6.918   6.368
 5347TIP3    H215987   0.126   6.889   6.445
 5348TIP3   OH215988   0.664   3.406   1.513
 5348TIP3    H115989   0.589   3.361   1.550
 5348TIP3    H215990   0.629   3.489   1.482
 5349TIP3   OH215991   7.329   5.307   2.344
 5349TIP3    H115992   7.335   5.356   2.262
 5349TIP3    H215993   7.318   5.375   2.411
 5350TIP3   OH215994   0.992   3.241   0.471
 5350TIP3    H115995   0.998   3.162   0.418
 5350TIP3    H215996   1.008   3.313   0.410
 5351TIP3   OH215997   7.158   3.623   3.987
 5351TIP3    H115998   7.219   3.621   3.913
 5351TIP3    H215999   7.086   3.566   3.961
 5352TIP3   OH216000   5.527   4.096   4.271
 5352TIP3    H116001   5.470   4.068   4.343
 5352TIP3    H216002   5.601   4.035   4.274
 5353TIP3   OH216003   1.917   1.019   6.134
 5353TIP3    H116004   1.901   1.042   6.043
 5353TIP3    H216005   1.846   0.959   6.157
 5354TIP3   OH216006   7.150   5.041   3.955
 5354TIP3    H116007   7.054   5.037   3.959
 5354TIP3    H216008   7.168   5.118   3.900
 5355TIP3   OH216009   4.722   7.223   2.302
 5355TIP3    H116010   4.687   7.240   2.389
 5355TIP3    H216011   4.804   7.272   2.298
 5356TIP3   OH216012   7.193   7.140   6.003
 5356TIP3    H116013   7.124   7.140   5.937
 5356TIP3    H216014   7.172   7.066   6.061
 5357TIP3   OH216015   3.235   2.437   3.496
 5357TIP3    H116016   3.165   2.433   3.431
 5357TIP3    H216017   3.306   2.484   3.451
 5358TIP3   OH216018   8.034   6.142   6.757
 5358TIP3    H116019   8.050   6.207   6.826
 5358TIP3    H216020   8.083   6.174   6.682
 5359TIP3   OH216021   0.557   1.507   4.509
 5359TIP3    H116022   0.635   1.464   4.543
 5359TIP3    H216023   0.524   1.448   4.441
 5360TIP3   OH216024   6.643   4.461   5.337
 5360TIP3    H116025   6.708   4.476   5.267
 5360TIP3    H216026   6.694   4.466   5.418
 5361TIP3   OH216027   0.092   1.042   4.892
 5361TIP3    H116028   0.097   1.078   4.804
 5361TIP3    H216029   0.034   1.101   4.939
 5362TIP3   OH216030   6.524   3.349   2.517
 5362TIP3    H116031   6.617   3.371   2.507
 5362TIP3    H216032   6.491   3.343   2.427
 5363TIP3   OH216033   5.545   6.113   5.808
 5363TIP3    H116034   5.463   6.137   5.851
 5363TIP3    H216035   5.590   6.057   5.871
 5364TIP3   OH216036   6.240   1.421   1.840
 5364TIP3    H116037   6.234   1.374   1.757
 5364TIP3    H216038   6.163   1.393   1.889
 5365TIP3   OH216039   3.642   4.698   2.895
 5365TIP3    H116040   3.605   4.778   2.931
 5365TIP3    H216041   3.656   4.641   2.971
 5366TIP3   OH216042   0.384   7.422   2.595
 5366TIP3    H116043   0.327   7.438   2.671
 5366TIP3    H216044   0.419   7.334   2.611
 5367TIP3   OH216045   5.736   5.885   5.622
 5367TIP3    H116046   5.824   5.921   5.608
 5367TIP3    H216047   5.725   5.886   5.718
 5368TIP3   OH216048   5.406   1.500   5.895
 5368TIP3    H116049   5.499   1.518   5.886
 5368TIP3    H216050   5.364   1.563   5.836
 5369TIP3   OH216051   4.390   4.698   1.782
 5369TIP3    H116052   4.413   4.789   1.800
 5369TIP3    H216053   4.299   4.690   1.808
 5370TIP3   OH216054   2.586   6.279   6.511
 5370TIP3    H116055   2.581   6.263   6.606
 5370TIP3    H216056   2.675   6.253   6.487
 5371TIP3   OH216057   1.787   0.427   3.053
 5371TIP3    H116058   1.699   0.438   3.017
 5371TIP3    H216059   1.794   0.495   3.120
 5372TIP3   OH216060   4.369   3.135   0.038
 5372TIP3    H116061   4.364   3.198  -0.034
 5372TIP3    H216062   4.415   3.181   0.108
 5373TIP3   OH216063   0.381   1.533   0.400
 5373TIP3    H116064   0.399   1.448   0.361
 5373TIP3    H216065   0.418   1.528   0.488
 5374TIP3   OH216066   1.506   1.670   3.426
 5374TIP3    H116067   1.475   1.692   3.514
 5374TIP3    H216068   1.461   1.588   3.405
 5375TIP3   OH216069   3.272   3.641   2.946
 5375TIP3    H116070   3.308   3.630   3.034
 5375TIP3    H216071   3.211   3.714   2.955
 5376TIP3   OH216072   5.131   3.567   4.238
 5376TIP3    H116073   5.196   3.621   4.194
 5376TIP3    H216074   5.180   3.493   4.273
 5377TIP3   OH216075   6.434   7.575   6.158
 5377TIP3    H116076   6.373   7.551   6.228
 5377TIP3    H216077   6.448   7.493   6.110
 5378TIP3   OH216078   1.223   5.397   0.726
 5378TIP3    H116079   1.305   5.361   0.692
 5378TIP3    H216080   1.188   5.449   0.653
 5379TIP3   OH216081   1.115   1.985   4.612
 5379TIP3    H116082   1.089   1.949   4.697
 5379TIP3    H216083   1.053   1.947   4.550
 5380TIP3   OH216084   2.184   7.493   1.247
 5380TIP3    H116085   2.233   7.497   1.329
 5380TIP3    H216086   2.126   7.417   1.257
 5381TIP3   OH216087   3.170   0.645   3.705
 5381TIP3    H116088   3.126   0.660   3.621
 5381TIP3    H216089   3.257   0.684   3.693
 5382TIP3   OH216090   6.491   2.348   4.926
 5382TIP3    H116091   6.545   2.394   4.991
 5382TIP3    H216092   6.536   2.265   4.912
 5383TIP3   OH216093   6.046   4.645   6.096
 5383TIP3    H116094   6.010   4.658   6.009
 5383TIP3    H216095   6.097   4.724   6.114
 5384TIP3   OH216096   6.882   5.670   0.139
 5384TIP3    H116097   6.947   5.602   0.123
 5384TIP3    H216098   6.815   5.656   0.071
 5385TIP3   OH216099   3.034   3.544   0.806
 5385TIP3    H116100   2.962   3.519   0.748
 5385TIP3    H216101   2.998   3.533   0.894
 5386TIP3   OH216102   5.910   3.731   0.082
 5386TIP3    H116103   5.825   3.756   0.116
 5386TIP3    H216104   5.949   3.813   0.052
 5387TIP3   OH216105   3.839   4.119   2.523
 5387TIP3    H116106   3.908   4.137   2.459
 5387TIP3    H216107   3.855   4.030   2.553
 5388TIP3   OH216108   4.943   5.719   0.030
 5388TIP3    H116109   4.868   5.770   0.000
 5388TIP3    H216110   4.915   5.628   0.023
 5389TIP3   OH216111   6.858   2.871   1.060
 5389TIP3    H116112   6.924   2.802   1.053
 5389TIP3    H216113   6.811   2.850   1.141
 5390TIP3   OH216114   1.262   3.404   0.083
 5390TIP3    H116115   1.275   3.468   0.013
 5390TIP3    H216116   1.175   3.368   0.066
 5391TIP3   OH216117   3.952   1.107   3.091
 5391TIP3    H116118   3.927   1.198   3.105
 5391TIP3    H216119   4.004   1.084   3.168
 5392TIP3   OH216120   2.750   4.692   2.829
 5392TIP3    H116121   2.706   4.727   2.751
 5392TIP3    H216122   2.712   4.605   2.841
 5393TIP3   OH216123   0.707   0.167   2.136
 5393TIP3    H116124   0.726   0.121   2.054
 5393TIP3    H216125   0.763   0.124   2.201
 5394TIP3   OH216126   0.350   2.343   6.399
 5394TIP3    H116127   0.423   2.327   6.339
 5394TIP3    H216128   0.290   2.271   6.383
 5395TIP3   OH216129   6.341   7.003   3.740
 5395TIP3    H116130   6.272   6.964   3.686
 5395TIP3    H216131   6.414   6.941   3.735
 5396TIP3   OH216132   1.991   5.733   4.253
 5396TIP3    H116133   1.942   5.804   4.295
 5396TIP3    H216134   2.081   5.763   4.251
 5397TIP3   OH216135   6.573   6.555   0.137
 5397TIP3    H116136   6.583   6.547   0.042
 5397TIP3    H216137   6.552   6.466   0.166
 5398TIP3   OH216138   4.210   3.095   3.400
 5398TIP3    H116139   4.200   3.183   3.364
 5398TIP3    H216140   4.179   3.037   3.330
 5399TIP3   OH216141   4.638   6.114   0.250
 5399TIP3    H116142   4.727   6.139   0.275
 5399TIP3    H216143   4.649   6.057   0.174
 5400TIP3   OH216144   7.391   6.568   0.720
 5400TIP3    H116145   7.459   6.629   0.693
 5400TIP3    H216146   7.332   6.564   0.644
 5401TIP3   OH216147   0.028   4.030   2.972
 5401TIP3    H116148   0.120   4.035   3.000
 5401TIP3    H216149   0.022   4.092   2.899
 5402TIP3   OH216150   0.875   5.140   0.866
 5402TIP3    H116151   0.945   5.077   0.883
 5402TIP3    H216152   0.798   5.104   0.909
 5403TIP3   OH216153   1.071   1.268   3.096
 5403TIP3    H116154   1.069   1.336   3.163
 5403TIP3    H216155   1.120   1.196   3.135
 5404TIP3   OH216156   7.157   3.723   2.082
 5404TIP3    H116157   7.250   3.721   2.105
 5404TIP3    H216158   7.134   3.816   2.089
 5405TIP3   OH216159   2.275   5.533   5.361
 5405TIP3    H116160   2.202   5.486   5.321
 5405TIP3    H216161   2.276   5.504   5.453
 5406TIP3   OH216162   5.227   1.693   5.796
 5406TIP3    H116163   5.139   1.721   5.771
 5406TIP3    H216164   5.229   1.703   5.891
 5407TIP3   OH216165   2.568   5.361   4.991
 5407TIP3    H116166   2.585   5.445   4.949
 5407TIP3    H216167   2.531   5.384   5.076
 5408TIP3   OH216168   4.977   1.957   2.350
 5408TIP3    H116169   4.904   1.997   2.304
 5408TIP3    H216170   4.982   1.869   2.315
 5409TIP3   OH216171   1.031   4.271   0.734
 5409TIP3    H116172   0.963   4.338   0.735
 5409TIP3    H216173   1.112   4.319   0.714
 5410TIP3   OH216174   5.377   0.691   6.688
 5410TIP3    H116175   5.393   0.689   6.782
 5410TIP3    H216176   5.339   0.606   6.668
 5411TIP3   OH216177   4.757   0.900   3.958
 5411TIP3    H116178   4.692   0.970   3.959
 5411TIP3    H216179   4.707   0.819   3.948
 5412TIP3   OH216180   6.326   2.052   3.209
 5412TIP3    H116181   6.318   2.106   3.130
 5412TIP3    H216182   6.309   1.963   3.179
 5413TIP3   OH216183   1.393   1.416   5.298
 5413TIP3    H116184   1.376   1.504   5.264
 5413TIP3    H216185   1.318   1.396   5.352
 5414TIP3   OH216186   2.818   3.469   6.144
 5414TIP3    H116187   2.907   3.500   6.130
 5414TIP3    H216188   2.765   3.519   6.081
 5415TIP3   OH216189   3.688   4.040   4.400
 5415TIP3    H116190   3.733   4.048   4.484
 5415TIP3    H216191   3.645   4.125   4.387
 5416TIP3   OH216192   0.718   5.717   2.469
 5416TIP3    H116193   0.778   5.748   2.537
 5416TIP3    H216194   0.722   5.784   2.401
 5417TIP3   OH216195   3.959   3.120   3.687
 5417TIP3    H116196   4.039   3.070   3.672
 5417TIP3    H216197   3.913   3.072   3.756
 5418TIP3   OH216198   5.714   0.605   5.658
 5418TIP3    H116199   5.797   0.608   5.612
 5418TIP3    H216200   5.724   0.668   5.729
 5419TIP3   OH216201   5.073   4.173   3.612
 5419TIP3    H116202   5.122   4.203   3.689
 5419TIP3    H216203   4.984   4.161   3.644
 5420TIP3   OH216204   3.561   0.945   1.043
 5420TIP3    H116205   3.475   0.980   1.022
 5420TIP3    H216206   3.600   0.923   0.959
 5421TIP3   OH216207   4.356   3.479   0.314
 5421TIP3    H116208   4.337   3.426   0.391
 5421TIP3    H216209   4.387   3.563   0.349
 5422TIP3   OH216210   2.754   5.741   4.632
 5422TIP3    H116211   2.817   5.670   4.619
 5422TIP3    H216212   2.771   5.773   4.721
 5423TIP3   OH216213   3.587   0.573   3.769
 5423TIP3    H116214   3.557   0.572   3.860
 5423TIP3    H216215   3.516   0.532   3.719
 5424TIP3   OH216216   0.896   4.037   1.742
 5424TIP3    H116217   0.865   4.069   1.657
 5424TIP3    H216218   0.978   3.992   1.721
 5425TIP3   OH216219   5.217   2.683   3.194
 5425TIP3    H116220   5.251   2.614   3.138
 5425TIP3    H216221   5.149   2.725   3.140
 5426TIP3   OH216222   4.601   4.873   6.352
 5426TIP3    H116223   4.638   4.848   6.437
 5426TIP3    H216224   4.536   4.939   6.372
 5427TIP3   OH216225   7.329   0.255   6.243
 5427TIP3    H116226   7.379   0.221   6.317
 5427TIP3    H216227   7.394   0.265   6.173
 5428TIP3   OH216228   3.134   6.736   0.424
 5428TIP3    H116229   3.079   6.763   0.497
 5428TIP3    H216230   3.224   6.749   0.456
 5429TIP3   OH216231   7.411   1.728   6.021
 5429TIP3    H116232   7.378   1.807   5.977
 5429TIP3    H216233   7.468   1.762   6.090
 5430TIP3   OH216234   7.662   1.730   0.366
 5430TIP3    H116235   7.634   1.814   0.402
 5430TIP3    H216236   7.648   1.739   0.272
 5431TIP3   OH216237   0.124   4.180   3.723
 5431TIP3    H116238   0.043   4.134   3.704
 5431TIP3    H216239   0.193   4.123   3.689
 5432TIP3   OH216240   3.829   1.020   5.942
 5432TIP3    H116241   3.814   1.114   5.932
 5432TIP3    H216242   3.752   0.980   5.902
 5433TIP3   OH216243   2.446   1.973   3.184
 5433TIP3    H116244   2.408   1.932   3.106
 5433TIP3    H216245   2.488   2.053   3.152
 5434TIP3   OH216246   1.166   5.992   1.593
 5434TIP3    H116247   1.239   5.990   1.531
 5434TIP3    H216248   1.152   5.901   1.617
 5435TIP3   OH216249   3.295   7.114   6.066
 5435TIP3    H116250   3.371   7.145   6.017
 5435TIP3    H216251   3.290   7.021   6.046
 5436TIP3   OH216252   2.907   2.581   0.802
 5436TIP3    H116253   2.908   2.670   0.765
 5436TIP3    H216254   2.930   2.593   0.894
 5437TIP3   OH216255   0.187   1.480   5.922
 5437TIP3    H116256   0.181   1.524   5.837
 5437TIP3    H216257   0.179   1.387   5.902
 5438TIP3   OH216258   0.029   5.061   3.350
 5438TIP3    H116259   0.045   4.977   3.391
 5438TIP3    H216260   0.116   5.095   3.329
 5439TIP3   OH216261   2.016   2.281   6.740
 5439TIP3    H116262   2.037   2.281   6.647
 5439TIP3    H216263   2.037   2.193   6.770
 5440TIP3   OH216264   0.711   5.141   4.289
 5440TIP3    H116265   0.759   5.060   4.276
 5440TIP3    H216266   0.654   5.124   4.363
 5441TIP3   OH216267   2.791   3.654   0.133
 5441TIP3    H116268   2.830   3.658   0.046
 5441TIP3    H216269   2.699   3.676   0.119
 5442TIP3   OH216270   4.391   0.304   3.632
 5442TIP3    H116271   4.319   0.364   3.613
 5442TIP3    H216272   4.425   0.334   3.717
 5443TIP3   OH216273   4.199   5.397   5.787
 5443TIP3    H116274   4.184   5.388   5.881
 5443TIP3    H216275   4.202   5.307   5.754
 5444TIP3   OH216276   2.186   0.245   5.211
 5444TIP3    H116277   2.192   0.311   5.281
 5444TIP3    H216278   2.274   0.208   5.206
 5445TIP3   OH216279   5.596   1.291   5.956
 5445TIP3    H116280   5.647   1.315   5.878
 5445TIP3    H216281   5.507   1.321   5.937
 5446TIP3   OH216282   3.969   0.004   6.232
 5446TIP3    H116283   3.914   0.082   6.242
 5446TIP3    H216284   4.058   0.038   6.224
 5447TIP3   OH216285   2.349   1.067   1.717
 5447TIP3    H116286   2.344   1.038   1.808
 5447TIP3    H216287   2.430   1.028   1.684
 5448TIP3   OH216288   5.899   4.849   5.466
 5448TIP3    H116289   5.898   4.756   5.487
 5448TIP3    H216290   5.982   4.881   5.503
 5449TIP3   OH216291   1.357   0.446   2.234
 5449TIP3    H116292   1.448   0.417   2.230
 5449TIP3    H216293   1.353   0.520   2.174
 5450TIP3   OH216294   2.233   3.423   0.091
 5450TIP3    H116295   2.163   3.406   0.028
 5450TIP3    H216296   2.190   3.467   0.164
 5451TIP3   OH216297   7.030   4.376   1.519
 5451TIP3    H116298   7.052   4.298   1.569
 5451TIP3    H216299   7.098   4.382   1.452
 5452TIP3   OH216300   6.537   5.521   3.592
 5452TIP3    H116301   6.469   5.580   3.625
 5452TIP3    H216302   6.498   5.482   3.513
 5453TIP3   OH216303   1.117   7.635   3.149
 5453TIP3    H116304   1.087   7.718   3.111
 5453TIP3    H216305   1.181   7.602   3.085
 5454TIP3   OH216306   7.276   2.669   5.561
 5454TIP3    H116307   7.246   2.602   5.499
 5454TIP3    H216308   7.249   2.636   5.647
 5455TIP3   OH216309   7.974   1.117   3.719
 5455TIP3    H116310   8.068   1.104   3.726
 5455TIP3    H216311   7.942   1.038   3.675
 5456TIP3   OH216312   0.728   5.373   0.072
 5456TIP3    H116313   0.821   5.363   0.051
 5456TIP3    H216314   0.689   5.406  -0.008
 5457TIP3   OH216315   1.640   1.649   0.974
 5457TIP3    H116316   1.573   1.683   1.033
 5457TIP3    H216317   1.622   1.555   0.968
 5458TIP3   OH216318   0.297   5.584   2.732
 5458TIP3    H116319   0.356   5.650   2.696
 5458TIP3    H216320   0.351   5.535   2.793
 5459TIP3   OH216321   4.540   1.158   2.961
 5459TIP3    H116322   4.544   1.080   3.017
 5459TIP3    H216323   4.597   1.136   2.887
 5460TIP3   OH216324   4.901   2.407   4.284
 5460TIP3    H116325   4.982   2.355   4.288
 5460TIP3    H216326   4.921   2.479   4.225
 5461TIP3   OH216327   2.745   0.156   4.027
 5461TIP3    H116328   2.711   0.084   3.974
 5461TIP3    H216329   2.838   0.160   4.004
 5462TIP3   OH216330   3.203   4.104   1.164
 5462TIP3    H116331   3.288   4.061   1.172
 5462TIP3    H216332   3.220   4.196   1.183
 5463TIP3   OH216333   4.895   0.292   4.799
 5463TIP3    H116334   4.897   0.258   4.888
 5463TIP3    H216335   4.804   0.315   4.784
 5464TIP3   OH216336   2.001   7.104   6.094
 5464TIP3    H116337   1.983   7.083   6.002
 5464TIP3    H216338   2.079   7.053   6.115
 5465TIP3   OH216339   6.261   1.703   5.564
 5465TIP3    H116340   6.219   1.768   5.620
 5465TIP3    H216341   6.280   1.630   5.623
 5466TIP3   OH216342   6.467   3.050   0.707
 5466TIP3    H116343   6.410   2.992   0.655
 5466TIP3    H216344   6.534   2.991   0.742
 5467TIP3   OH216345   0.975   6.636   1.907
 5467TIP3    H116346   0.891   6.594   1.888
 5467TIP3    H216347   0.954   6.728   1.920
 5468TIP3   OH216348   5.518   0.888   5.602
 5468TIP3    H116349   5.555   0.908   5.516
 5468TIP3    H216350   5.591   0.853   5.652
 5469TIP3   OH216351   1.070   6.199   3.043
 5469TIP3    H116352   1.102   6.110   3.030
 5469TIP3    H216353   1.131   6.253   2.993
 5470TIP3   OH216354   6.288   1.825   2.401
 5470TIP3    H116355   6.376   1.864   2.399
 5470TIP3    H216356   6.229   1.899   2.397
 5471TIP3   OH216357   5.304   5.528   3.857
 5471TIP3    H116358   5.263   5.591   3.916
 5471TIP3    H216359   5.387   5.506   3.899
 5472TIP3   OH216360   7.036   4.556   2.112
 5472TIP3    H116361   6.945   4.529   2.117
 5472TIP3    H216362   7.040   4.638   2.161
 5473TIP3   OH216363   6.309   3.854   5.188
 5473TIP3    H116364   6.400   3.854   5.156
 5473TIP3    H216365   6.269   3.779   5.145
 5474TIP3   OH216366   8.076   6.142   2.278
 5474TIP3    H116367   8.033   6.216   2.321
 5474TIP3    H216368   8.068   6.070   2.340
 5475TIP3   OH216369   2.704   3.307   0.199
 5475TIP3    H116370   2.781   3.361   0.214
 5475TIP3    H216371   2.640   3.339   0.263
 5476TIP3   OH216372   2.559   0.485   1.776
 5476TIP3    H116373   2.586   0.444   1.694
 5476TIP3    H216374   2.609   0.567   1.779
 5477TIP3   OH216375   0.318   2.106   1.265
 5477TIP3    H116376   0.329   2.117   1.171
 5477TIP3    H216377   0.401   2.070   1.295
 5478TIP3   OH216378   6.798   3.479   0.375
 5478TIP3    H116379   6.792   3.385   0.358
 5478TIP3    H216380   6.753   3.520   0.302
 5479TIP3   OH216381   2.907   4.039   3.647
 5479TIP3    H116382   2.922   4.075   3.734
 5479TIP3    H216383   2.943   3.950   3.652
 5480TIP3   OH216384   4.164   5.150   6.323
 5480TIP3    H116385   4.163   5.237   6.363
 5480TIP3    H216386   4.109   5.096   6.380
 5481TIP3   OH216387   3.424   3.370   5.934
 5481TIP3    H116388   3.338   3.381   5.894
 5481TIP3    H216389   3.486   3.384   5.862
 5482TIP3   OH216390   2.910   4.387   4.056
 5482TIP3    H116391   2.943   4.313   4.106
 5482TIP3    H216392   2.822   4.361   4.029
 5483TIP3   OH216393   5.150   4.948   5.325
 5483TIP3    H116394   5.143   5.044   5.319
 5483TIP3    H216395   5.183   4.932   5.413
 5484TIP3   OH216396   4.568   3.427   3.240
 5484TIP3    H116397   4.556   3.447   3.333
 5484TIP3    H216398   4.513   3.350   3.224
 5485TIP3   OH216399   6.339   4.172   3.001
 5485TIP3    H116400   6.292   4.221   2.934
 5485TIP3    H216401   6.357   4.087   2.961
 5486TIP3   OH216402   3.071   6.437   0.437
 5486TIP3    H116403   3.064   6.533   0.440
 5486TIP3    H216404   3.164   6.419   0.431
 5487TIP3   OH216405   3.378   6.388   0.727
 5487TIP3    H116406   3.341   6.304   0.753
 5487TIP3    H216407   3.320   6.453   0.767
 5488TIP3   OH216408   8.132   0.823   2.503
 5488TIP3    H116409   8.203   0.805   2.442
 5488TIP3    H216410   8.174   0.869   2.576
 5489TIP3   OH216411   3.718   7.431   0.824
 5489TIP3    H116412   3.770   7.360   0.786
 5489TIP3    H216413   3.782   7.501   0.841
 5490TIP3   OH216414   5.476   4.868   0.610
 5490TIP3    H116415   5.395   4.896   0.654
 5490TIP3    H216416   5.528   4.948   0.603
 5491TIP3   OH216417   7.938   5.989   2.720
 5491TIP3    H116418   7.893   5.953   2.797
 5491TIP3    H216419   8.025   5.950   2.724
 5492TIP3   OH216420   3.743   0.571   5.015
 5492TIP3    H116421   3.685   0.645   5.034
 5492TIP3    H216422   3.685   0.502   4.984
 5493TIP3   OH216423   1.527   7.279   4.354
 5493TIP3    H116424   1.604   7.265   4.410
 5493TIP3    H216425   1.456   7.294   4.416
 5494TIP3   OH216426   3.420   7.342   5.847
 5494TIP3    H116427   3.470   7.402   5.790
 5494TIP3    H216428   3.371   7.287   5.787
 5495TIP3   OH216429   7.043   6.959   5.063
 5495TIP3    H116430   7.018   6.978   5.153
 5495TIP3    H216431   7.122   7.012   5.048
 5496TIP3   OH216432   6.029   5.663   4.735
 5496TIP3    H116433   6.049   5.686   4.644
 5496TIP3    H216434   5.934   5.670   4.742
 5497TIP3   OH216435   0.716   1.831   2.154
 5497TIP3    H116436   0.797   1.863   2.195
 5497TIP3    H216437   0.697   1.750   2.200
 5498TIP3   OH216438   5.819   1.663   5.491
 5498TIP3    H116439   5.904   1.695   5.459
 5498TIP3    H216440   5.777   1.626   5.413
 5499TIP3   OH216441   1.460   4.586   3.875
 5499TIP3    H116442   1.541   4.600   3.925
 5499TIP3    H216443   1.485   4.603   3.784
 5500TIP3   OH216444   8.131   7.712   2.425
 5500TIP3    H116445   8.099   7.786   2.374
 5500TIP3    H216446   8.078   7.638   2.395
 5501TIP3   OH216447   6.460   3.286   2.772
 5501TIP3    H116448   6.483   3.343   2.846
 5501TIP3    H216449   6.510   3.321   2.698
 5502TIP3   OH216450   6.455   1.440   5.608
 5502TIP3    H116451   6.498   1.358   5.633
 5502TIP3    H216452   6.391   1.414   5.542
 5503TIP3   OH216453   1.069   4.301  -0.007
 5503TIP3    H116454   1.111   4.363   0.052
 5503TIP3    H216455   1.021   4.242   0.051
 5504TIP3   OH216456   4.080   4.399   5.855
 5504TIP3    H116457   4.106   4.331   5.792
 5504TIP3    H216458   4.136   4.384   5.931
 5505TIP3   OH216459   1.483   5.283   0.843
 5505TIP3    H116460   1.511   5.214   0.783
 5505TIP3    H216461   1.409   5.245   0.890
 5506TIP3   OH216462   7.248   7.222   0.748
 5506TIP3    H116463   7.287   7.263   0.825
 5506TIP3    H216464   7.156   7.213   0.770
 5507TIP3   OH216465   0.438   5.526   0.375
 5507TIP3    H116466   0.417   5.592   0.309
 5507TIP3    H216467   0.441   5.574   0.457
 5508TIP3   OH216468   7.345   4.951   4.151
 5508TIP3    H116469   7.298   5.010   4.093
 5508TIP3    H216470   7.288   4.873   4.157
 5509TIP3   OH216471   1.628   3.928   3.576
 5509TIP3    H116472   1.645   3.843   3.619
 5509TIP3    H216473   1.666   3.992   3.636
 5510TIP3   OH216474   6.847   5.829   0.362
 5510TIP3    H116475   6.922   5.884   0.339
 5510TIP3    H216476   6.842   5.765   0.291
 5511TIP3   OH216477   6.220   5.875   0.105
 5511TIP3    H116478   6.130   5.885   0.136
 5511TIP3    H216479   6.273   5.878   0.184
 5512TIP3   OH216480   3.045   2.478   5.473
 5512TIP3    H116481   3.076   2.430   5.549
 5512TIP3    H216482   2.966   2.431   5.445
 5513TIP3   OH216483   3.212   2.788   1.076
 5513TIP3    H116484   3.148   2.789   1.147
 5513TIP3    H216485   3.210   2.698   1.043
 5514TIP3   OH216486   7.698   7.408   4.295
 5514TIP3    H116487   7.765   7.416   4.227
 5514TIP3    H216488   7.740   7.438   4.375
 5515TIP3   OH216489   4.978   0.672   0.898
 5515TIP3    H116490   5.000   0.593   0.946
 5515TIP3    H216491   4.901   0.707   0.943
 5516TIP3   OH216492   5.806   7.560   0.613
 5516TIP3    H116493   5.799   7.600   0.700
 5516TIP3    H216494   5.871   7.491   0.624
 5517TIP3   OH216495   6.484   6.326   1.755
 5517TIP3    H116496   6.577   6.347   1.748
 5517TIP3    H216497   6.447   6.397   1.807
 5518TIP3   OH216498   0.313   3.666   5.445
 5518TIP3    H116499   0.408   3.669   5.452
 5518TIP3    H216500   0.289   3.580   5.480
 5519TIP3   OH216501   8.113   3.438   1.178
 5519TIP3    H116502   8.054   3.496   1.129
 5519TIP3    H216503   8.196   3.486   1.181
 5520TIP3   OH216504   7.087   5.792   5.576
 5520TIP3    H116505   7.174   5.754   5.589
 5520TIP3    H216506   7.054   5.806   5.664
 5521TIP3   OH216507   4.143   3.402   4.905
 5521TIP3    H116508   4.236   3.418   4.919
 5521TIP3    H216509   4.132   3.404   4.810
 5522TIP3   OH216510   7.106   1.871   2.237
 5522TIP3    H116511   7.188   1.832   2.267
 5522TIP3    H216512   7.050   1.872   2.315
 5523TIP3   OH216513   2.415   6.842   0.430
 5523TIP3    H116514   2.361   6.772   0.393
 5523TIP3    H216515   2.352   6.903   0.468
 5524TIP3   OH216516   1.975   2.746   0.704
 5524TIP3    H116517   1.935   2.821   0.749
 5524TIP3    H216518   1.931   2.670   0.740
 5525TIP3   OH216519   0.572   5.497   2.331
 5525TIP3    H116520   0.633   5.558   2.372
 5525TIP3    H216521   0.491   5.548   2.322
 5526TIP3   OH216522   2.526   1.508   0.495
 5526TIP3    H116523   2.578   1.524   0.574
 5526TIP3    H216524   2.452   1.568   0.502
 5527TIP3   OH216525   0.853   1.347   2.808
 5527TIP3    H116526   0.932   1.296   2.826
 5527TIP3    H216527   0.884   1.433   2.781
 5528TIP3   OH216528   5.528   0.053   6.683
 5528TIP3    H116529   5.517   0.143   6.712
 5528TIP3    H216530   5.542   0.059   6.589
 5529TIP3   OH216531   7.188   2.552   2.583
 5529TIP3    H116532   7.116   2.496   2.608
 5529TIP3    H216533   7.242   2.499   2.524
 5530TIP3   OH216534   3.456   3.328   2.289
 5530TIP3    H116535   3.464   3.388   2.363
 5530TIP3    H216536   3.465   3.383   2.212
 5531TIP3   OH216537   0.236   0.577   5.377
 5531TIP3    H116538   0.218   0.484   5.391
 5531TIP3    H216539   0.150   0.619   5.384
 5532TIP3   OH216540   3.497   3.797   2.246
 5532TIP3    H116541   3.563   3.850   2.289
 5532TIP3    H216542   3.504   3.819   2.153
 5533TIP3   OH216543   0.939   4.362   3.843
 5533TIP3    H116544   0.887   4.314   3.779
 5533TIP3    H216545   0.928   4.314   3.925
 5534TIP3   OH216546   6.165   6.247   5.272
 5534TIP3    H116547   6.251   6.222   5.307
 5534TIP3    H216548   6.166   6.215   5.182
 5535TIP3   OH216549   5.198   7.367   2.310
 5535TIP3    H116550   5.209   7.453   2.350
 5535TIP3    H216551   5.247   7.307   2.366
 5536TIP3   OH216552   0.711   7.567   4.106
 5536TIP3    H116553   0.771   7.541   4.036
 5536TIP3    H216554   0.714   7.663   4.106
 5537TIP3   OH216555   7.925   6.369   0.817
 5537TIP3    H116556   8.007   6.322   0.831
 5537TIP3    H216557   7.928   6.394   0.725
 5538TIP3   OH216558   7.316   7.106   3.905
 5538TIP3    H116559   7.404   7.069   3.901
 5538TIP3    H216560   7.270   7.068   3.830
 5539TIP3   OH216561   1.693   6.029   4.215
 5539TIP3    H116562   1.633   5.958   4.192
 5539TIP3    H216563   1.645   6.080   4.280
 5540TIP3   OH216564   0.855   2.127   4.017
 5540TIP3    H116565   0.937   2.146   3.970
 5540TIP3    H216566   0.790   2.184   3.975
 5541TIP3   OH216567   6.694   0.600   2.478
 5541TIP3    H116568   6.684   0.650   2.559
 5541TIP3    H216569   6.705   0.666   2.410
 5542TIP3   OH216570   0.187   0.583   3.401
 5542TIP3    H116571   0.238   0.608   3.477
 5542TIP3    H216572   0.099   0.616   3.418
 5543TIP3   OH216573   4.924   4.318   0.296
 5543TIP3    H116574   4.937   4.324   0.391
 5543TIP3    H216575   5.012   4.328   0.260
 5544TIP3   OH216576   3.610   6.201   0.302
 5544TIP3    H116577   3.622   6.121   0.250
 5544TIP3    H216578   3.694   6.213   0.347
 5545TIP3   OH216579   0.216   4.476   2.092
 5545TIP3    H116580   0.220   4.438   2.180
 5545TIP3    H216581   0.153   4.422   2.045
 5546TIP3   OH216582   1.621   7.011   5.453
 5546TIP3    H116583   1.547   7.021   5.393
 5546TIP3    H216584   1.645   7.101   5.476
 5547TIP3   OH216585   4.140   7.651   6.096
 5547TIP3    H116586   4.169   7.641   6.187
 5547TIP3    H216587   4.046   7.633   6.098
 5548TIP3   OH216588   0.929   1.962   3.059
 5548TIP3    H116589   0.999   2.012   3.018
 5548TIP3    H216590   0.948   1.966   3.153
 5549TIP3   OH216591   4.473   1.953   6.463
 5549TIP3    H116592   4.394   1.942   6.410
 5549TIP3    H216593   4.447   1.924   6.551
 5550TIP3   OH216594   6.641   3.450   2.237
 5550TIP3    H116595   6.569   3.513   2.241
 5550TIP3    H216596   6.626   3.402   2.156
 5551TIP3   OH216597   3.056   5.791   4.545
 5551TIP3    H116598   3.002   5.713   4.535
 5551TIP3    H216599   3.087   5.789   4.636
 5552TIP3   OH216600   0.747   1.072   5.064
 5552TIP3    H116601   0.655   1.088   5.085
 5552TIP3    H216602   0.786   1.159   5.057
 5553TIP3   OH216603   7.360   2.646   0.471
 5553TIP3    H116604   7.281   2.684   0.434
 5553TIP3    H216605   7.432   2.684   0.421
 5554TIP3   OH216606   1.447   5.583   0.396
 5554TIP3    H116607   1.458   5.554   0.487
 5554TIP3    H216608   1.358   5.617   0.392
 5555TIP3   OH216609   5.427   1.285   2.217
 5555TIP3    H116610   5.492   1.322   2.157
 5555TIP3    H216611   5.464   1.200   2.242
 5556TIP3   OH216612   7.420   0.128   0.459
 5556TIP3    H116613   7.437   0.111   0.366
 5556TIP3    H216614   7.424   0.042   0.500
 5557TIP3   OH216615   5.335   1.998   6.183
 5557TIP3    H116616   5.298   2.084   6.163
 5557TIP3    H216617   5.277   1.962   6.250
 5558TIP3   OH216618   2.979   0.888   0.175
 5558TIP3    H116619   2.939   0.975   0.173
 5558TIP3    H216620   2.906   0.828   0.158
 5559TIP3   OH216621   1.729   1.050   1.792
 5559TIP3    H116622   1.769   1.011   1.871
 5559TIP3    H216623   1.789   1.027   1.721
 5560TIP3   OH216624   4.645   3.079   4.951
 5560TIP3    H116625   4.715   3.015   4.935
 5560TIP3    H216626   4.624   3.113   4.864
 5561TIP3   OH216627   4.756   4.394   0.085
 5561TIP3    H116628   4.700   4.408   0.162
 5561TIP3    H216629   4.843   4.380   0.122
 5562TIP3   OH216630   0.457   5.700   1.398
 5562TIP3    H116631   0.373   5.672   1.364
 5562TIP3    H216632   0.492   5.758   1.330
 5563TIP3   OH216633   0.487   4.455   4.303
 5563TIP3    H116634   0.502   4.487   4.214
 5563TIP3    H216635   0.394   4.472   4.319
 5564TIP3   OH216636   3.385   5.666   6.648
 5564TIP3    H116637   3.467   5.666   6.598
 5564TIP3    H216638   3.412   5.653   6.739
 5565TIP3   OH216639   0.714   7.708   1.446
 5565TIP3    H116640   0.716   7.612   1.445
 5565TIP3    H216641   0.746   7.732   1.533
 5566TIP3   OH216642   7.904   0.555   0.418
 5566TIP3    H116643   7.926   0.612   0.344
 5566TIP3    H216644   7.982   0.555   0.473
 5567TIP3   OH216645   3.601   4.650   3.799
 5567TIP3    H116646   3.518   4.679   3.761
 5567TIP3    H216647   3.575   4.592   3.870
 5568TIP3   OH216648   4.573   3.420   1.467
 5568TIP3    H116649   4.546   3.512   1.467
 5568TIP3    H216650   4.503   3.375   1.514
 5569TIP3   OH216651   7.481   6.347   4.725
 5569TIP3    H116652   7.556   6.321   4.672
 5569TIP3    H216653   7.467   6.440   4.704
 5570TIP3   OH216654   1.022   6.658   6.116
 5570TIP3    H116655   1.045   6.630   6.027
 5570TIP3    H216656   1.039   6.580   6.170
 5571TIP3   OH216657   5.647   3.198   5.589
 5571TIP3    H116658   5.690   3.121   5.550
 5571TIP3    H216659   5.584   3.160   5.651
 5572TIP3   OH216660   2.599   1.317   1.482
 5572TIP3    H116661   2.611   1.362   1.565
 5572TIP3    H216662   2.505   1.297   1.479
 5573TIP3   OH216663   1.625   6.618   5.424
 5573TIP3    H116664   1.552   6.565   5.456
 5573TIP3    H216665   1.588   6.670   5.352
 5574TIP3   OH216666   5.075   0.184   2.375
 5574TIP3    H116667   5.091   0.252   2.310
 5574TIP3    H216668   5.123   0.213   2.453
 5575TIP3   OH216669   5.414   2.169   5.466
 5575TIP3    H116670   5.324   2.199   5.452
 5575TIP3    H216671   5.456   2.240   5.515
 5576TIP3   OH216672   7.478   0.130   0.176
 5576TIP3    H116673   7.546   0.123   0.109
 5576TIP3    H216674   7.430   0.047   0.170
 5577TIP3   OH216675   0.032   0.938   4.251
 5577TIP3    H116676  -0.015   1.017   4.276
 5577TIP3    H216677   0.006   0.923   4.160
 5578TIP3   OH216678   3.729   3.823   0.901
 5578TIP3    H116679   3.756   3.865   0.983
 5578TIP3    H216680   3.786   3.746   0.894
 5579TIP3   OH216681   5.313   1.117   5.616
 5579TIP3    H116682   5.385   1.055   5.630
 5579TIP3    H216683   5.290   1.148   5.703
 5580TIP3   OH216684   5.405   4.862   4.781
 5580TIP3    H116685   5.377   4.828   4.866
 5580TIP3    H216686   5.343   4.932   4.762
 5581TIP3   OH216687   5.116   5.661   5.543
 5581TIP3    H116688   5.157   5.583   5.506
 5581TIP3    H216689   5.171   5.683   5.619
 5582TIP3   OH216690   0.274   7.472   6.150
 5582TIP3    H116691   0.350   7.520   6.118
 5582TIP3    H216692   0.243   7.423   6.074
 5583TIP3   OH216693   4.980   2.571   0.848
 5583TIP3    H116694   4.966   2.649   0.794
 5583TIP3    H216695   4.916   2.508   0.815
 5584TIP3   OH216696   6.623   3.178   1.142
 5584TIP3    H116697   6.572   3.102   1.112
 5584TIP3    H216698   6.558   3.243   1.167
 5585TIP3   OH216699   5.797   2.407   5.736
 5585TIP3    H116700   5.764   2.374   5.819
 5585TIP3    H216701   5.840   2.489   5.759
 5586TIP3   OH216702   4.476   0.524   4.202
 5586TIP3    H116703   4.446   0.512   4.292
 5586TIP3    H216704   4.566   0.491   4.201
 5587TIP3   OH216705   6.313   1.278   5.402
 5587TIP3    H116706   6.307   1.190   5.364
 5587TIP3    H216707   6.226   1.316   5.389
 5588TIP3   OH216708   0.207   3.050   2.120
 5588TIP3    H116709   0.187   3.079   2.031
 5588TIP3    H216710   0.289   3.001   2.111
 5589TIP3   OH216711   6.827   0.865   1.978
 5589TIP3    H116712   6.877   0.883   1.898
 5589TIP3    H216713   6.868   0.919   2.045
 5590TIP3   OH216714   3.143   7.768   5.337
 5590TIP3    H116715   3.165   7.766   5.244
 5590TIP3    H216716   3.051   7.744   5.341
 5591TIP3   OH216717   6.727   4.158   4.527
 5591TIP3    H116718   6.813   4.138   4.490
 5591TIP3    H216719   6.667   4.101   4.479
 5592TIP3   OH216720   7.307   4.468   6.013
 5592TIP3    H116721   7.372   4.461   5.943
 5592TIP3    H216722   7.317   4.557   6.046
 5593TIP3   OH216723   3.626   2.113   2.686
 5593TIP3    H116724   3.549   2.164   2.711
 5593TIP3    H216725   3.671   2.096   2.769
 5594TIP3   OH216726   6.401   2.226   2.031
 5594TIP3    H116727   6.491   2.260   2.033
 5594TIP3    H216728   6.390   2.190   1.943
 5595TIP3   OH216729   3.189   0.490   1.075
 5595TIP3    H116730   3.259   0.555   1.066
 5595TIP3    H216731   3.233   0.406   1.060
 5596TIP3   OH216732   1.371   7.230   3.303
 5596TIP3    H116733   1.295   7.195   3.351
 5596TIP3    H216734   1.352   7.324   3.294
 5597TIP3   OH216735   6.806   7.757   4.251
 5597TIP3    H116736   6.809   7.765   4.156
 5597TIP3    H216737   6.713   7.759   4.272
 5598TIP3   OH216738   4.852  -0.028   2.673
 5598TIP3    H116739   4.847   0.058   2.714
 5598TIP3    H216740   4.824  -0.013   2.583
 5599TIP3   OH216741   0.953   6.495   5.628
 5599TIP3    H116742   0.920   6.468   5.542
 5599TIP3    H216743   1.032   6.443   5.641
 5600TIP3   OH216744   1.688   7.034   4.618
 5600TIP3    H116745   1.736   6.989   4.687
 5600TIP3    H216746   1.597   7.037   4.649
 5601TIP3   OH216747   2.243   5.962   0.471
 5601TIP3    H116748   2.261   6.038   0.415
 5601TIP3    H216749   2.329   5.926   0.492
 5602TIP3   OH216750   1.950   3.151   3.473
 5602TIP3    H116751   1.952   3.194   3.558
 5602TIP3    H216752   2.015   3.081   3.480
 5603TIP3   OH216753   3.493   1.004   1.552
 5603TIP3    H116754   3.498   0.965   1.465
 5603TIP3    H216755   3.438   1.081   1.541
 5604TIP3   OH216756   0.981   5.773   4.091
 5604TIP3    H116757   0.935   5.690   4.104
 5604TIP3    H216758   0.952   5.828   4.165
 5605TIP3   OH216759   0.809   0.393   0.996
 5605TIP3    H116760   0.716   0.381   0.976
 5605TIP3    H216761   0.833   0.472   0.948
 5606TIP3   OH216762   4.320   3.505   6.429
 5606TIP3    H116763   4.315   3.445   6.503
 5606TIP3    H216764   4.379   3.463   6.367
 5607TIP3   OH216765   1.557   6.952   1.092
 5607TIP3    H116766   1.527   6.996   1.171
 5607TIP3    H216767   1.489   6.970   1.027
 5608TIP3   OH216768   2.628   0.541   4.505
 5608TIP3    H116769   2.586   0.484   4.570
 5608TIP3    H216770   2.630   0.489   4.425
 5609TIP3   OH216771   3.021   0.115   6.608
 5609TIP3    H116772   3.007   0.192   6.662
 5609TIP3    H216773   3.039   0.149   6.520
 5610TIP3   OH216774   6.625   2.749   5.254
 5610TIP3    H116775   6.661   2.779   5.337
 5610TIP3    H216776   6.620   2.829   5.200
 5611TIP3   OH216777   2.171   3.814   3.321
 5611TIP3    H116778   2.124   3.736   3.350
 5611TIP3    H216779   2.159   3.815   3.226
 5612TIP3   OH216780   7.353   1.771   5.098
 5612TIP3    H116781   7.307   1.812   5.025
 5612TIP3    H216782   7.445   1.770   5.071
 5613TIP3   OH216783   0.452   4.335   5.853
 5613TIP3    H116784   0.470   4.332   5.759
 5613TIP3    H216785   0.479   4.250   5.886
 5614TIP3   OH216786   1.919   0.785   0.357
 5614TIP3    H116787   1.892   0.725   0.426
 5614TIP3    H216788   1.882   0.869   0.383
 5615TIP3   OH216789   1.813   2.885   1.159
 5615TIP3    H116790   1.766   2.897   1.076
 5615TIP3    H216791   1.841   2.974   1.183
 5616TIP3   OH216792   1.203   0.234   3.209
 5616TIP3    H116793   1.154   0.297   3.260
 5616TIP3    H216794   1.295   0.255   3.224
 5617TIP3   OH216795   4.597   4.956   0.763
 5617TIP3    H116796   4.612   5.031   0.705
 5617TIP3    H216797   4.513   4.974   0.805
 5618TIP3   OH216798   7.993   4.683   5.111
 5618TIP3    H116799   7.952   4.769   5.100
 5618TIP3    H216800   8.069   4.700   5.168
 5619TIP3   OH216801   0.470   7.516   5.138
 5619TIP3    H116802   0.404   7.474   5.082
 5619TIP3    H216803   0.515   7.577   5.079
 5620TIP3   OH216804   1.019   0.368   3.368
 5620TIP3    H116805   0.949   0.433   3.372
 5620TIP3    H216806   0.976   0.285   3.390
 5621TIP3   OH216807   4.259   5.594   4.643
 5621TIP3    H116808   4.299   5.660   4.700
 5621TIP3    H216809   4.168   5.623   4.635
 5622TIP3   OH216810   4.478   3.003   3.412
 5622TIP3    H116811   4.510   3.016   3.502
 5622TIP3    H216812   4.394   3.049   3.410
 5623TIP3   OH216813   1.157   6.131   0.869
 5623TIP3    H116814   1.090   6.097   0.928
 5623TIP3    H216815   1.183   6.215   0.907
 5624TIP3   OH216816   4.453   0.912   6.113
 5624TIP3    H116817   4.511   0.973   6.159
 5624TIP3    H216818   4.365   0.945   6.129
 5625TIP3   OH216819   2.325   7.651   0.884
 5625TIP3    H116820   2.245   7.632   0.835
 5625TIP3    H216821   2.326   7.585   0.954
 5626TIP3   OH216822   4.423   3.722   2.733
 5626TIP3    H116823   4.478   3.744   2.808
 5626TIP3    H216824   4.481   3.677   2.672
 5627TIP3   OH216825   2.611   4.317   4.009
 5627TIP3    H116826   2.542   4.280   4.063
 5627TIP3    H216827   2.601   4.272   3.924
 5628TIP3   OH216828   7.112   7.177   6.576
 5628TIP3    H116829   7.173   7.150   6.507
 5628TIP3    H216830   7.037   7.212   6.529
 5629TIP3   OH216831   7.278   1.018   1.901
 5629TIP3    H116832   7.333   0.965   1.843
 5629TIP3    H216833   7.263   1.099   1.852
 5630TIP3   OH216834   2.880   1.052   0.740
 5630TIP3    H116835   2.808   1.001   0.776
 5630TIP3    H216836   2.845   1.142   0.736
 5631TIP3   OH216837   1.000   3.993   5.672
 5631TIP3    H116838   0.936   3.982   5.601
 5631TIP3    H216839   1.079   3.949   5.640
 5632TIP3   OH216840   6.245   4.772   4.460
 5632TIP3    H116841   6.253   4.746   4.368
 5632TIP3    H216842   6.334   4.770   4.494
 5633TIP3   OH216843   2.930   7.453   4.655
 5633TIP3    H116844   2.967   7.539   4.635
 5633TIP3    H216845   2.835   7.465   4.644
 5634TIP3   OH216846   3.670   5.892   4.429
 5634TIP3    H116847   3.725   5.855   4.359
 5634TIP3    H216848   3.656   5.819   4.490
 5635TIP3   OH216849   4.255   7.178   1.003
 5635TIP3    H116850   4.333   7.174   1.058
 5635TIP3    H216851   4.211   7.094   1.017
 5636TIP3   OH216852   7.523   2.509   4.297
 5636TIP3    H116853   7.500   2.534   4.386
 5636TIP3    H216854   7.595   2.447   4.308
 5637TIP3   OH216855   7.723   2.773   2.840
 5637TIP3    H116856   7.792   2.713   2.813
 5637TIP3    H216857   7.767   2.839   2.894
 5638TIP3   OH216858   3.948   5.560   5.810
 5638TIP3    H116859   3.902   5.488   5.766
 5638TIP3    H216860   4.040   5.533   5.811
 5639TIP3   OH216861   4.750   6.626   1.880
 5639TIP3    H116862   4.821   6.658   1.935
 5639TIP3    H216863   4.786   6.628   1.791
 5640TIP3   OH216864   4.680   7.104   1.640
 5640TIP3    H116865   4.719   7.191   1.637
 5640TIP3    H216866   4.698   7.072   1.728
 5641TIP3   OH216867   1.050   6.096   5.013
 5641TIP3    H116868   1.035   6.175   5.065
 5641TIP3    H216869   1.123   6.119   4.956
 5642TIP3   OH216870   0.370   0.225   5.512
 5642TIP3    H116871   0.395   0.244   5.602
 5642TIP3    H216872   0.281   0.260   5.503
 5643TIP3   OH216873   3.310   5.617   1.049
 5643TIP3    H116874   3.333   5.524   1.037
 5643TIP3    H216875   3.361   5.644   1.125
 5644TIP3   OH216876   0.851   3.322   6.293
 5644TIP3    H116877   0.926   3.378   6.313
 5644TIP3    H216878   0.832   3.341   6.201
 5645TIP3   OH216879   4.789   7.437   2.804
 5645TIP3    H116880   4.741   7.518   2.825
 5645TIP3    H216881   4.860   7.466   2.747
 5646TIP3   OH216882   6.604   0.904   5.281
 5646TIP3    H116883   6.685   0.955   5.276
 5646TIP3    H216884   6.618   0.846   5.356
 5647TIP3   OH216885   6.047   1.688   3.836
 5647TIP3    H116886   6.087   1.637   3.907
 5647TIP3    H216887   5.997   1.756   3.881
 5648TIP3   OH216888   2.814   2.530   4.576
 5648TIP3    H116889   2.880   2.529   4.506
 5648TIP3    H216890   2.737   2.490   4.536
 5649TIP3   OH216891   3.379   1.989   5.345
 5649TIP3    H116892   3.332   1.959   5.423
 5649TIP3    H216893   3.314   1.985   5.275
 5650TIP3   OH216894   5.439   0.650   4.076
 5650TIP3    H116895   5.534   0.662   4.070
 5650TIP3    H216896   5.409   0.653   3.985
 5651TIP3   OH216897   2.002   7.386   2.516
 5651TIP3    H116898   2.016   7.303   2.471
 5651TIP3    H216899   1.930   7.368   2.577
 5652TIP3   OH216900   5.463   0.436   2.683
 5652TIP3    H116901   5.504   0.513   2.724
 5652TIP3    H216902   5.437   0.465   2.596
 5653TIP3   OH216903   6.745   1.947   3.572
 5653TIP3    H116904   6.707   1.974   3.489
 5653TIP3    H216905   6.765   1.854   3.561
 5654TIP3   OH216906   2.877   4.684   5.366
 5654TIP3    H116907   2.901   4.595   5.338
 5654TIP3    H216908   2.960   4.725   5.390
 5655TIP3   OH216909   1.396   2.325   3.521
 5655TIP3    H116910   1.409   2.407   3.570
 5655TIP3    H216911   1.390   2.258   3.588
 5656TIP3   OH216912   7.912   5.646   2.662
 5656TIP3    H116913   7.875   5.673   2.746
 5656TIP3    H216914   7.856   5.690   2.597
 5657TIP3   OH216915   5.279   1.939   0.278
 5657TIP3    H116916   5.273   1.954   0.184
 5657TIP3    H216917   5.278   1.844   0.287
 5658TIP3   OH216918   7.749   2.678   3.979
 5658TIP3    H116919   7.691   2.608   3.950
 5658TIP3    H216920   7.818   2.634   4.029
 5659TIP3   OH216921   7.440   3.073   2.411
 5659TIP3    H116922   7.384   3.061   2.334
 5659TIP3    H216923   7.497   3.146   2.389
 5660TIP3   OH216924   7.637   6.305   3.941
 5660TIP3    H116925   7.624   6.214   3.968
 5660TIP3    H216926   7.703   6.301   3.872
 5661TIP3   OH216927   1.235   3.750   3.472
 5661TIP3    H116928   1.209   3.718   3.558
 5661TIP3    H216929   1.296   3.822   3.490
 5662TIP3   OH216930   6.536   6.734   0.594
 5662TIP3    H116931   6.610   6.724   0.535
 5662TIP3    H216932   6.513   6.644   0.619
 5663TIP3   OH216933   3.605   5.510   1.683
 5663TIP3    H116934   3.552   5.565   1.626
 5663TIP3    H216935   3.609   5.425   1.639
 5664TIP3   OH216936   0.903   5.890   4.336
 5664TIP3    H116937   0.953   5.882   4.418
 5664TIP3    H216938   0.913   5.981   4.310
 5665TIP3   OH216939   6.396   0.966   1.301
 5665TIP3    H116940   6.363   0.919   1.225
 5665TIP3    H216941   6.319   1.010   1.338
 5666TIP3   OH216942   0.420   2.035   3.856
 5666TIP3    H116943   0.361   2.100   3.895
 5666TIP3    H216944   0.473   2.004   3.929
 5667TIP3   OH216945   6.735   7.787   0.105
 5667TIP3    H116946   6.760   7.842   0.179
 5667TIP3    H216947   6.818   7.756   0.069
 5668TIP3   OH216948   6.728   7.217   5.195
 5668TIP3    H116949   6.682   7.148   5.148
 5668TIP3    H216950   6.662   7.284   5.210
 5669TIP3   OH216951   0.798   4.225   2.259
 5669TIP3    H116952   0.766   4.143   2.298
 5669TIP3    H216953   0.840   4.198   2.178
 5670TIP3   OH216954   3.848   7.243   0.670
 5670TIP3    H116955   3.846   7.215   0.579
 5670TIP3    H216956   3.873   7.165   0.719
 5671TIP3   OH216957   0.842   5.974   5.473
 5671TIP3    H116958   0.822   6.064   5.449
 5671TIP3    H216959   0.833   5.971   5.568
 5672TIP3   OH216960   2.799   2.049   3.681
 5672TIP3    H116961   2.800   1.985   3.611
 5672TIP3    H216962   2.879   2.031   3.732
 5673TIP3   OH216963   0.062   6.160   4.402
 5673TIP3    H116964  -0.025   6.196   4.383
 5673TIP3    H216965   0.100   6.142   4.317
 5674TIP3   OH216966   5.171   1.653   1.566
 5674TIP3    H116967   5.188   1.745   1.582
 5674TIP3    H216968   5.186   1.642   1.472
 5675TIP3   OH216969   5.585   5.080   1.592
 5675TIP3    H116970   5.642   5.091   1.669
 5675TIP3    H216971   5.525   5.155   1.596
 5676TIP3   OH216972   5.381   3.503   6.024
 5676TIP3    H116973   5.444   3.538   6.087
 5676TIP3    H216974   5.435   3.458   5.959
 5677TIP3   OH216975   6.315   2.563   1.781
 5677TIP3    H116976   6.282   2.512   1.854
 5677TIP3    H216977   6.350   2.498   1.720
 5678TIP3   OH216978   6.593   0.564   4.093
 5678TIP3    H116979   6.658   0.533   4.156
 5678TIP3    H216980   6.646   0.603   4.023
 5679TIP3   OH216981   7.587   0.575   2.787
 5679TIP3    H116982   7.594   0.669   2.774
 5679TIP3    H216983   7.533   0.566   2.866
 5680TIP3   OH216984   5.885   4.600   3.452
 5680TIP3    H116985   5.795   4.567   3.452
 5680TIP3    H216986   5.915   4.587   3.542
 5681TIP3   OH216987   0.523   7.360   1.981
 5681TIP3    H116988   0.601   7.414   1.999
 5681TIP3    H216989   0.459   7.422   1.947
 5682TIP3   OH216990   3.349   2.445   6.676
 5682TIP3    H116991   3.376   2.418   6.588
 5682TIP3    H216992   3.389   2.531   6.688
 5683TIP3   OH216993   4.965   3.506   1.902
 5683TIP3    H116994   4.890   3.451   1.881
 5683TIP3    H216995   5.015   3.456   1.966
 5684TIP3   OH216996   1.501   6.367   5.614
 5684TIP3    H116997   1.436   6.304   5.645
 5684TIP3    H216998   1.498   6.360   5.519
 5685TIP3   OH216999   1.317   5.025   6.702
 5685TIP3    H117000   1.381   5.001   6.634
 5685TIP3    H217001   1.339   5.116   6.723
 5686TIP3   OH217002   1.183   7.340   6.641
 5686TIP3    H117003   1.179   7.272   6.709
 5686TIP3    H217004   1.166   7.421   6.688
 5687TIP3   OH217005   7.563   1.407   0.315
 5687TIP3    H117006   7.550   1.401   0.410
 5687TIP3    H217007   7.555   1.317   0.284
 5688TIP3   OH217008   1.252   2.700   6.172
 5688TIP3    H117009   1.180   2.761   6.188
 5688TIP3    H217010   1.257   2.647   6.251
 5689TIP3   OH217011   5.910   4.336   2.266
 5689TIP3    H117012   5.884   4.334   2.358
 5689TIP3    H217013   5.835   4.375   2.220
 5690TIP3   OH217014   4.508   3.231   2.881
 5690TIP3    H117015   4.473   3.243   2.969
 5690TIP3    H217016   4.433   3.250   2.824
 5691TIP3   OH217017   0.536   6.632   2.112
 5691TIP3    H117018   0.562   6.720   2.085
 5691TIP3    H217019   0.617   6.591   2.141
 5692TIP3   OH217020   1.201   4.510   2.611
 5692TIP3    H117021   1.118   4.466   2.631
 5692TIP3    H217022   1.195   4.594   2.657
 5693TIP3   OH217023   6.178   7.693   5.990
 5693TIP3    H117024   6.107   7.677   6.052
 5693TIP3    H217025   6.196   7.607   5.952
 5694TIP3   OH217026   2.404   7.460   5.230
 5694TIP3    H117027   2.353   7.493   5.304
 5694TIP3    H217028   2.410   7.365   5.245
 5695TIP3   OH217029   2.145   0.191   3.212
 5695TIP3    H117030   2.109   0.103   3.226
 5695TIP3    H217031   2.138   0.205   3.118
 5696TIP3   OH217032   5.710   6.936   3.523
 5696TIP3    H117033   5.787   6.918   3.577
 5696TIP3    H217034   5.740   7.002   3.460
 5697TIP3   OH217035   8.168   1.999   5.756
 5697TIP3    H117036   8.101   2.028   5.694
 5697TIP3    H217037   8.159   2.059   5.830
 5698TIP3   OH217038   1.300   7.475   2.956
 5698TIP3    H117039   1.372   7.414   2.974
 5698TIP3    H217040   1.329   7.525   2.879
 5699TIP3   OH217041   1.754   4.894   2.585
 5699TIP3    H117042   1.678   4.855   2.542
 5699TIP3    H217043   1.722   4.979   2.616
 5700TIP3   OH217044   5.496   5.580   0.303
 5700TIP3    H117045   5.576   5.623   0.273
 5700TIP3    H217046   5.480   5.616   0.390
 5701TIP3   OH217047   1.318   2.888   3.927
 5701TIP3    H117048   1.371   2.965   3.908
 5701TIP3    H217049   1.243   2.895   3.867
 5702TIP3   OH217050   7.906   1.525   1.498
 5702TIP3    H117051   7.952   1.596   1.453
 5702TIP3    H217052   7.813   1.546   1.488
 5703TIP3   OH217053   6.680   6.456   0.767
 5703TIP3    H117054   6.620   6.506   0.822
 5703TIP3    H217055   6.626   6.429   0.692
 5704TIP3   OH217056   5.799   2.146   2.733
 5704TIP3    H117057   5.843   2.214   2.785
 5704TIP3    H217058   5.767   2.083   2.797
 5705TIP3   OH217059   3.436   0.965   5.307
 5705TIP3    H117060   3.480   1.047   5.328
 5705TIP3    H217061   3.404   0.977   5.217
 5706TIP3   OH217062   4.118   1.699   4.625
 5706TIP3    H117063   4.086   1.713   4.536
 5706TIP3    H217064   4.205   1.739   4.627
 5707TIP3   OH217065   4.575   2.990   1.145
 5707TIP3    H117066   4.579   3.083   1.166
 5707TIP3    H217067   4.617   2.982   1.060
 5708TIP3   OH217068   2.293   4.785   4.628
 5708TIP3    H117069   2.313   4.879   4.622
 5708TIP3    H217070   2.210   4.781   4.676
 5709TIP3   OH217071   5.135   3.508   1.294
 5709TIP3    H117072   5.139   3.438   1.230
 5709TIP3    H217073   5.162   3.587   1.246
 5710TIP3   OH217074   1.457   1.393   0.330
 5710TIP3    H117075   1.508   1.423   0.404
 5710TIP3    H217076   1.420   1.473   0.291
 5711TIP3   OH217077   3.804   1.101   4.737
 5711TIP3    H117078   3.843   1.184   4.764
 5711TIP3    H217079   3.767   1.065   4.817
 5712TIP3   OH217080   5.143   0.209   6.052
 5712TIP3    H117081   5.157   0.249   5.966
 5712TIP3    H217082   5.057   0.167   6.045
 5713TIP3   OH217083   7.715   0.341   6.692
 5713TIP3    H117084   7.721   0.407   6.623
 5713TIP3    H217085   7.802   0.300   6.693
 5714TIP3   OH217086   0.058   0.082   1.761
 5714TIP3    H117087   0.010   0.163   1.778
 5714TIP3    H217088   0.148   0.111   1.747
 5715TIP3   OH217089   2.159   7.353   4.373
 5715TIP3    H117090   2.143   7.446   4.393
 5715TIP3    H217091   2.071   7.317   4.361
 5716TIP3   OH217092   5.523   6.551   2.893
 5716TIP3    H117093   5.535   6.469   2.940
 5716TIP3    H217094   5.605   6.564   2.846
 5717TIP3   OH217095   5.142   0.322   3.727
 5717TIP3    H117096   5.085   0.371   3.787
 5717TIP3    H217097   5.213   0.289   3.783
 5718TIP3   OH217098   3.388   6.435   6.403
 5718TIP3    H117099   3.449   6.432   6.477
 5718TIP3    H217100   3.326   6.364   6.420
 5719TIP3   OH217101   1.941   2.045   2.781
 5719TIP3    H117102   1.974   2.126   2.742
 5719TIP3    H217103   1.958   1.978   2.715
 5720TIP3   OH217104   7.025   0.053   1.177
 5720TIP3    H117105   6.948  -0.001   1.199
 5720TIP3    H217106   6.989   0.134   1.141
 5721TIP3   OH217107   2.809   1.324   0.732
 5721TIP3    H117108   2.838   1.412   0.709
 5721TIP3    H217109   2.718   1.336   0.761
 5722TIP3   OH217110   1.946   0.220   1.199
 5722TIP3    H117111   1.952   0.285   1.269
 5722TIP3    H217112   1.923   0.271   1.121
 5723TIP3   OH217113   3.740   0.180   0.528
 5723TIP3    H117114   3.768   0.127   0.454
 5723TIP3    H217115   3.749   0.123   0.604
 5724TIP3   OH217116   4.897   1.429   6.052
 5724TIP3    H117117   4.849   1.417   5.970
 5724TIP3    H217118   4.934   1.517   6.045
 5725TIP3   OH217119   3.661   1.636   1.200
 5725TIP3    H117120   3.665   1.541   1.203
 5725TIP3    H217121   3.710   1.665   1.277
 5726TIP3   OH217122   7.779   5.734   4.508
 5726TIP3    H117123   7.802   5.707   4.419
 5726TIP3    H217124   7.855   5.711   4.561
 5727TIP3   OH217125   5.519   5.939   4.728
 5727TIP3    H117126   5.452   6.001   4.699
 5727TIP3    H217127   5.471   5.869   4.771
 5728TIP3   OH217128   3.937   2.056   0.600
 5728TIP3    H117129   3.946   2.032   0.693
 5728TIP3    H217130   3.845   2.080   0.590
 5729TIP3   OH217131   3.801   1.559   0.978
 5729TIP3    H117132   3.817   1.619   1.051
 5729TIP3    H217133   3.706   1.565   0.962
 5730TIP3   OH217134   0.157   4.772   4.691
 5730TIP3    H117135   0.174   4.679   4.674
 5730TIP3    H217136   0.184   4.785   4.782
 5731TIP3   OH217137   5.806   3.276   3.037
 5731TIP3    H117138   5.884   3.299   2.987
 5731TIP3    H217139   5.781   3.357   3.081
 5732TIP3   OH217140   3.370   1.208   6.401
 5732TIP3    H117141   3.322   1.272   6.453
 5732TIP3    H217142   3.325   1.208   6.316
 5733TIP3   OH217143   4.304   0.756   4.359
 5733TIP3    H117144   4.380   0.814   4.359
 5733TIP3    H217145   4.284   0.742   4.267
 5734TIP3   OH217146   3.917   2.892   1.095
 5734TIP3    H117147   3.906   2.808   1.051
 5734TIP3    H217148   3.840   2.943   1.070
 5735TIP3   OH217149   0.283   0.844   2.997
 5735TIP3    H117150   0.305   0.754   2.972
 5735TIP3    H217151   0.251   0.837   3.087
 5736TIP3   OH217152   2.992   3.015   1.791
 5736TIP3    H117153   3.049   2.951   1.748
 5736TIP3    H217154   2.998   2.994   1.884
 5737TIP3   OH217155   7.323   7.703   2.081
 5737TIP3    H117156   7.401   7.669   2.036
 5737TIP3    H217157   7.302   7.783   2.035
 5738TIP3   OH217158   0.731   1.373   5.222
 5738TIP3    H117159   0.643   1.397   5.253
 5738TIP3    H217160   0.757   1.300   5.279
 5739TIP3   OH217161   6.630   0.606   2.093
 5739TIP3    H117162   6.639   0.687   2.143
 5739TIP3    H217163   6.536   0.594   2.084
 5740TIP3   OH217164   0.354   5.297   2.292
 5740TIP3    H117165   0.258   5.304   2.297
 5740TIP3    H217166   0.378   5.242   2.367
 5741TIP3   OH217167   5.954   7.660   2.178
 5741TIP3    H117168   5.989   7.596   2.240
 5741TIP3    H217169   5.874   7.620   2.145
 5742TIP3   OH217170   4.568   3.965   4.513
 5742TIP3    H117171   4.650   3.921   4.493
 5742TIP3    H217172   4.580   3.998   4.602
 5743TIP3   OH217173   1.174   7.384   0.585
 5743TIP3    H117174   1.139   7.352   0.668
 5743TIP3    H217175   1.200   7.305   0.539
 5744TIP3   OH217176   5.621   1.182   5.207
 5744TIP3    H117177   5.638   1.269   5.170
 5744TIP3    H217178   5.552   1.197   5.272
 5745TIP3   OH217179   3.663   3.877   3.140
 5745TIP3    H117180   3.580   3.907   3.178
 5745TIP3    H217181   3.713   3.844   3.214
 5746TIP3   OH217182   5.973   4.243   5.469
 5746TIP3    H117183   6.056   4.196   5.470
 5746TIP3    H217184   5.960   4.271   5.559
 5747TIP3   OH217185   0.011   7.656   0.372
 5747TIP3    H117186   0.019   7.615   0.458
 5747TIP3    H217187   0.074   7.729   0.375
 5748TIP3   OH217188   6.558   2.740   6.558
 5748TIP3    H117189   6.563   2.659   6.608
 5748TIP3    H217190   6.504   2.719   6.482
 5749TIP3   OH217191   0.946   5.331   6.357
 5749TIP3    H117192   0.940   5.346   6.263
 5749TIP3    H217193   1.040   5.323   6.375
 5750TIP3   OH217194   5.413   0.682   0.724
 5750TIP3    H117195   5.388   0.590   0.725
 5750TIP3    H217196   5.362   0.722   0.794
 5751TIP3   OH217197   3.606   2.851   4.354
 5751TIP3    H117198   3.689   2.813   4.324
 5751TIP3    H217199   3.539   2.791   4.322
 5752TIP3   OH217200   3.546   6.501   0.244
 5752TIP3    H117201   3.562   6.409   0.264
 5752TIP3    H217202   3.597   6.517   0.165
 5753TIP3   OH217203   0.165   7.731   2.713
 5753TIP3    H117204   0.120   7.801   2.760
 5753TIP3    H217205   0.095   7.680   2.673
 5754TIP3   OH217206   3.409   1.360   0.766
 5754TIP3    H117207   3.409   1.265   0.757
 5754TIP3    H217208   3.444   1.392   0.683
 5755TIP3   OH217209   3.458   2.214   2.256
 5755TIP3    H117210   3.403   2.137   2.244
 5755TIP3    H217211   3.531   2.184   2.309
 5756TIP3   OH217212   1.666   0.274   1.673
 5756TIP3    H117213   1.695   0.222   1.598
 5756TIP3    H217214   1.742   0.329   1.695
 5757TIP3   OH217215   6.409   4.473   0.753
 5757TIP3    H117216   6.338   4.412   0.772
 5757TIP3    H217217   6.422   4.522   0.834
 5758TIP3   OH217218   5.188   5.300   1.687
 5758TIP3    H117219   5.234   5.259   1.614
 5758TIP3    H217220   5.194   5.237   1.758
 5759TIP3   OH217221   7.706   0.823   3.301
 5759TIP3    H117222   7.720   0.743   3.251
 5759TIP3    H217223   7.629   0.863   3.260
 5760TIP3   OH217224   6.678   7.645   6.301
 5760TIP3    H117225   6.725   7.562   6.296
 5760TIP3    H217226   6.586   7.620   6.314
 5761TIP3   OH217227   2.272   6.984   0.705
 5761TIP3    H117228   2.305   6.967   0.794
 5761TIP3    H217229   2.338   7.041   0.665
 5762TIP3   OH217230   1.294   2.969   1.546
 5762TIP3    H117231   1.207   2.931   1.558
 5762TIP3    H217232   1.279   3.063   1.536
 5763TIP3   OH217233   6.624   6.627   5.661
 5763TIP3    H117234   6.689   6.575   5.708
 5763TIP3    H217235   6.615   6.584   5.576
 5764TIP3   OH217236   0.789   1.541   6.756
 5764TIP3    H117237   0.819   1.457   6.721
 5764TIP3    H217238   0.866   1.599   6.749
 5765TIP3   OH217239   8.092   3.855   2.620
 5765TIP3    H117240   8.043   3.901   2.552
 5765TIP3    H217241   8.183   3.856   2.589
 5766TIP3   OH217242   5.615   3.226   5.027
 5766TIP3    H117243   5.663   3.181   4.957
 5766TIP3    H217244   5.678   3.234   5.098
 5767TIP3   OH217245   8.024   0.683   0.215
 5767TIP3    H117246   7.983   0.715   0.134
 5767TIP3    H217247   8.050   0.763   0.261
 5768TIP3   OH217248   2.214   4.956   0.754
 5768TIP3    H117249   2.230   4.867   0.786
 5768TIP3    H217250   2.143   4.989   0.810
 5769TIP3   OH217251   0.017   1.591   1.376
 5769TIP3    H117252  -0.010   1.531   1.446
 5769TIP3    H217253   0.109   1.568   1.359
 5770TIP3   OH217254   1.946   5.174   2.409
 5770TIP3    H117255   2.006   5.190   2.337
 5770TIP3    H217256   1.896   5.097   2.383
 5771TIP3   OH217257   3.529   5.574   0.231
 5771TIP3    H117258   3.551   5.538   0.146
 5771TIP3    H217259   3.433   5.584   0.230
 5772TIP3   OH217260   5.520   3.574   2.140
 5772TIP3    H117261   5.608   3.539   2.155
 5772TIP3    H217262   5.477   3.571   2.225
 5773TIP3   OH217263   3.001   2.118   2.340
 5773TIP3    H117264   2.935   2.168   2.292
 5773TIP3    H217265   3.024   2.175   2.414
 5774TIP3   OH217266   0.497   5.944   1.269
 5774TIP3    H117267   0.518   6.007   1.337
 5774TIP3    H217268   0.550   5.971   1.194
 5775TIP3   OH217269   6.006   4.879   2.494
 5775TIP3    H117270   5.917   4.862   2.464
 5775TIP3    H217271   5.994   4.928   2.575
 5776TIP3   OH217272   3.673   6.621   1.963
 5776TIP3    H117273   3.638   6.568   2.034
 5776TIP3    H217274   3.616   6.602   1.889
 5777TIP3   OH217275   7.962   3.260   0.048
 5777TIP3    H117276   8.044   3.300   0.020
 5777TIP3    H217277   7.894   3.317   0.014
 5778TIP3   OH217278   0.141   3.758   3.664
 5778TIP3    H117279   0.181   3.832   3.618
 5778TIP3    H217280   0.209   3.727   3.723
 5779TIP3   OH217281   1.927   2.637   4.267
 5779TIP3    H117282   1.832   2.644   4.281
 5779TIP3    H217283   1.952   2.558   4.315
 5780TIP3   OH217284   7.433   0.967   0.703
 5780TIP3    H117285   7.371   0.917   0.755
 5780TIP3    H217286   7.519   0.937   0.733
 5781TIP3   OH217287   3.800   0.068   2.017
 5781TIP3    H117288   3.799   0.163   2.030
 5781TIP3    H217289   3.753   0.054   1.935
 5782TIP3   OH217290   7.847   1.549   2.502
 5782TIP3    H117291   7.860   1.516   2.591
 5782TIP3    H217292   7.797   1.481   2.458
 5783TIP3   OH217293   7.966   1.578   4.068
 5783TIP3    H117294   7.925   1.494   4.049
 5783TIP3    H217295   7.960   1.627   3.986
 5784TIP3   OH217296   3.295   5.155   5.685
 5784TIP3    H117297   3.381   5.182   5.715
 5784TIP3    H217298   3.295   5.176   5.591
 5785TIP3   OH217299   4.986   1.449   4.962
 5785TIP3    H117300   4.898   1.484   4.977
 5785TIP3    H217301   5.014   1.490   4.880
 5786TIP3   OH217302   0.087   7.756   5.637
 5786TIP3    H117303   0.008   7.798   5.604
 5786TIP3    H217304   0.159   7.814   5.610
 5787TIP3   OH217305   4.793   6.636   0.989
 5787TIP3    H117306   4.814   6.663   0.900
 5787TIP3    H217307   4.706   6.673   1.006
 5788TIP3   OH217308   7.362   4.478   5.223
 5788TIP3    H117309   7.272   4.504   5.240
 5788TIP3    H217310   7.381   4.511   5.135
 5789TIP3   OH217311   3.667   4.283   0.789
 5789TIP3    H117312   3.624   4.203   0.756
 5789TIP3    H217313   3.731   4.251   0.852
 5790TIP3   OH217314   1.815   0.070   5.105
 5790TIP3    H117315   1.798   0.013   5.181
 5790TIP3    H217316   1.731   0.112   5.087
 5791TIP3   OH217317   0.141   3.755   4.902
 5791TIP3    H117318   0.185   3.796   4.976
 5791TIP3    H217319   0.200   3.685   4.875
 5792TIP3   OH217320   2.696   4.481   6.365
 5792TIP3    H117321   2.617   4.515   6.406
 5792TIP3    H217322   2.759   4.552   6.370
 5793TIP3   OH217323   3.965   0.363   1.181
 5793TIP3    H117324   4.022   0.351   1.104
 5793TIP3    H217325   4.017   0.328   1.253
 5794TIP3   OH217326   7.687   4.544   1.973
 5794TIP3    H117327   7.721   4.604   1.907
 5794TIP3    H217328   7.758   4.482   1.989
 5795TIP3   OH217329   7.756   4.230   5.763
 5795TIP3    H117330   7.832   4.192   5.720
 5795TIP3    H217331   7.736   4.170   5.835
 5796TIP3   OH217332   2.510   2.087   0.735
 5796TIP3    H117333   2.552   2.172   0.732
 5796TIP3    H217334   2.583   2.025   0.744
 5797TIP3   OH217335   5.394   7.265   6.519
 5797TIP3    H117336   5.422   7.343   6.471
 5797TIP3    H217337   5.298   7.273   6.522
 5798TIP3   OH217338   6.368   1.899   5.782
 5798TIP3    H117339   6.277   1.912   5.757
 5798TIP3    H217340   6.377   1.804   5.793
 5799TIP3   OH217341   5.471   4.707   1.762
 5799TIP3    H117342   5.541   4.647   1.790
 5799TIP3    H217343   5.466   4.695   1.668
 5800TIP3   OH217344   5.463   5.505   4.544
 5800TIP3    H117345   5.551   5.517   4.510
 5800TIP3    H217346   5.418   5.587   4.525
 5801TIP3   OH217347   0.644   6.741   3.100
 5801TIP3    H117348   0.717   6.792   3.065
 5801TIP3    H217349   0.575   6.751   3.035
 5802TIP3   OH217350   5.643   6.005   2.465
 5802TIP3    H117351   5.662   5.929   2.410
 5802TIP3    H217352   5.591   5.970   2.537
 5803TIP3   OH217353   7.578   3.905   5.008
 5803TIP3    H117354   7.602   3.997   5.016
 5803TIP3    H217355   7.485   3.905   4.986
 5804TIP3   OH217356   7.073   7.317   1.186
 5804TIP3    H117357   7.054   7.232   1.147
 5804TIP3    H217358   7.066   7.303   1.280
 5805TIP3   OH217359   7.010   0.523   5.928
 5805TIP3    H117360   7.035   0.616   5.923
 5805TIP3    H217361   7.093   0.476   5.921
 5806TIP3   OH217362   2.545   1.169   0.761
 5806TIP3    H117363   2.455   1.158   0.791
 5806TIP3    H217364   2.597   1.162   0.841
 5807TIP3   OH217365   4.094   7.403   2.410
 5807TIP3    H117366   4.062   7.349   2.338
 5807TIP3    H217367   4.050   7.487   2.398
 5808TIP3   OH217368   4.627   0.704   5.870
 5808TIP3    H117369   4.593   0.644   5.804
 5808TIP3    H217370   4.583   0.788   5.852
 5809TIP3   OH217371   6.528   4.770   5.088
 5809TIP3    H117372   6.592   4.766   5.159
 5809TIP3    H217373   6.539   4.858   5.050
 5810TIP3   OH217374   0.567   6.631   4.257
 5810TIP3    H117375   0.535   6.559   4.311
 5810TIP3    H217376   0.590   6.700   4.320
 5811TIP3   OH217377   3.180   3.473   6.327
 5811TIP3    H117378   3.139   3.468   6.241
 5811TIP3    H217379   3.273   3.485   6.308
 5812TIP3   OH217380   7.631   1.904   4.406
 5812TIP3    H117381   7.653   1.986   4.449
 5812TIP3    H217382   7.535   1.902   4.406
 5813TIP3   OH217383   2.469   3.237   4.308
 5813TIP3    H117384   2.435   3.325   4.319
 5813TIP3    H217385   2.556   3.239   4.348
 5814TIP3   OH217386   3.848   7.668   0.832
 5814TIP3    H117387   3.933   7.681   0.874
 5814TIP3    H217388   3.865   7.682   0.739
 5815TIP3   OH217389   8.135   2.330   1.088
 5815TIP3    H117390   8.043   2.346   1.106
 5815TIP3    H217391   8.140   2.236   1.070
 5816TIP3   OH217392   0.668   6.191   6.163
 5816TIP3    H117393   0.628   6.236   6.088
 5816TIP3    H217394   0.595   6.176   6.223
 5817TIP3   OH217395   6.209   2.696   4.227
 5817TIP3    H117396   6.188   2.633   4.158
 5817TIP3    H217397   6.205   2.645   4.308
 5818TIP3   OH217398   5.438   0.815   2.357
 5818TIP3    H117399   5.349   0.779   2.352
 5818TIP3    H217400   5.491   0.753   2.307
 5819TIP3   OH217401   6.446   3.606   0.923
 5819TIP3    H117402   6.469   3.654   1.003
 5819TIP3    H217403   6.491   3.652   0.853
 5820TIP3   OH217404   1.001   7.563   5.244
 5820TIP3    H117405   1.078   7.515   5.273
 5820TIP3    H217406   0.931   7.533   5.302
 5821TIP3   OH217407   5.326   5.889   6.636
 5821TIP3    H117408   5.243   5.841   6.639
 5821TIP3    H217409   5.349   5.903   6.728
 5822TIP3   OH217410   6.365   4.519   6.328
 5822TIP3    H117411   6.357   4.450   6.395
 5822TIP3    H217412   6.336   4.476   6.247
 5823TIP3   OH217413   3.198   4.241   1.581
 5823TIP3    H117414   3.277   4.193   1.554
 5823TIP3    H217415   3.141   4.173   1.618
 5824TIP3   OH217416   1.138   0.211   6.169
 5824TIP3    H117417   1.198   0.138   6.158
 5824TIP3    H217418   1.080   0.206   6.092
 5825TIP3   OH217419   7.446   4.156   4.569
 5825TIP3    H117420   7.455   4.061   4.562
 5825TIP3    H217421   7.465   4.189   4.481
 5826TIP3   OH217422   4.372   4.560   5.674
 5826TIP3    H117423   4.291   4.550   5.625
 5826TIP3    H217424   4.345   4.579   5.764
 5827TIP3   OH217425   6.818   7.584   1.988
 5827TIP3    H117426   6.883   7.629   2.041
 5827TIP3    H217427   6.761   7.653   1.955
 5828TIP3   OH217428   5.396   2.219   2.116
 5828TIP3    H117429   5.403   2.314   2.106
 5828TIP3    H217430   5.402   2.185   2.026
 5829TIP3   OH217431   5.228   7.602   0.885
 5829TIP3    H117432   5.169   7.666   0.923
 5829TIP3    H217433   5.243   7.539   0.956
 5830TIP3   OH217434   1.590   1.641   1.786
 5830TIP3    H117435   1.559   1.730   1.766
 5830TIP3    H217436   1.685   1.649   1.789
 5831TIP3   OH217437   4.100   4.903   5.641
 5831TIP3    H117438   4.182   4.857   5.628
 5831TIP3    H217439   4.039   4.836   5.673
 5832TIP3   OH217440   7.285   7.293   0.472
 5832TIP3    H117441   7.365   7.241   0.462
 5832TIP3    H217442   7.257   7.276   0.562
 5833TIP3   OH217443   1.246   2.965   3.036
 5833TIP3    H117444   1.152   2.980   3.039
 5833TIP3    H217445   1.255   2.871   3.017
 5834TIP3   OH217446   1.910   3.102   1.808
 5834TIP3    H117447   1.949   3.109   1.895
 5834TIP3    H217448   1.982   3.080   1.750
 5835TIP3   OH217449   4.220   6.229   0.855
 5835TIP3    H117450   4.233   6.301   0.793
 5835TIP3    H217451   4.201   6.154   0.799
 5836TIP3   OH217452   4.844   6.480   5.130
 5836TIP3    H117453   4.855   6.501   5.223
 5836TIP3    H217454   4.855   6.563   5.084
 5837TIP3   OH217455   0.657   6.409   2.751
 5837TIP3    H117456   0.600   6.390   2.826
 5837TIP3    H217457   0.610   6.476   2.702
 5838TIP3   OH217458   8.010   6.714   6.043
 5838TIP3    H117459   8.022   6.807   6.062
 5838TIP3    H217460   7.967   6.713   5.957
 5839TIP3   OH217461   1.978   0.758   3.187
 5839TIP3    H117462   2.044   0.695   3.159
 5839TIP3    H217463   1.949   0.726   3.272
 5840TIP3   OH217464   6.874   4.372   4.051
 5840TIP3    H117465   6.921   4.397   4.130
 5840TIP3    H217466   6.825   4.451   4.027
 5841TIP3   OH217467   1.811   4.589   2.124
 5841TIP3    H117468   1.723   4.565   2.096
 5841TIP3    H217469   1.847   4.508   2.161
 5842TIP3   OH217470   2.307   0.415   3.238
 5842TIP3    H117471   2.269   0.328   3.230
 5842TIP3    H217472   2.236   0.475   3.216
 5843TIP3   OH217473   0.062   5.120   6.704
 5843TIP3    H117474   0.004   5.045   6.720
 5843TIP3    H217475   0.074   5.160   6.791
 5844TIP3   OH217476   6.162   2.334   5.805
 5844TIP3    H117477   6.080   2.329   5.855
 5844TIP3    H217478   6.140   2.297   5.719
 5845TIP3   OH217479   6.513   3.636   2.626
 5845TIP3    H117480   6.490   3.555   2.581
 5845TIP3    H217481   6.588   3.613   2.681
 5846TIP3   OH217482   4.078   3.765   2.955
 5846TIP3    H117483   4.104   3.845   3.000
 5846TIP3    H217484   4.140   3.756   2.883
 5847TIP3   OH217485   4.114   0.227   4.108
 5847TIP3    H117486   4.157   0.283   4.172
 5847TIP3    H217487   4.095   0.146   4.155
 5848TIP3   OH217488   5.888   6.293   6.177
 5848TIP3    H117489   5.917   6.297   6.268
 5848TIP3    H217490   5.881   6.199   6.158
 5849TIP3   OH217491   3.214   7.706   4.768
 5849TIP3    H117492   3.300   7.732   4.735
 5849TIP3    H217493   3.214   7.610   4.760
 5850TIP3   OH217494   1.459   5.238   4.026
 5850TIP3    H117495   1.503   5.227   4.110
 5850TIP3    H217496   1.400   5.311   4.040
 5851TIP3   OH217497   4.640   4.771   1.195
 5851TIP3    H117498   4.730   4.749   1.217
 5851TIP3    H217499   4.647   4.842   1.131
 5852TIP3   OH217500   0.405   5.554   4.338
 5852TIP3    H117501   0.328   5.600   4.304
 5852TIP3    H217502   0.384   5.461   4.328
 5853TIP3   OH217503   6.062   6.226   0.685
 5853TIP3    H117504   6.066   6.191   0.596
 5853TIP3    H217505   6.037   6.318   0.674
 5854TIP3   OH217506   4.837   7.336   5.370
 5854TIP3    H117507   4.897   7.373   5.306
 5854TIP3    H217508   4.753   7.332   5.325
 5855TIP3   OH217509   0.126   4.093   4.697
 5855TIP3    H117510   0.187   4.084   4.770
 5855TIP3    H217511   0.061   4.024   4.711
 5856TIP3   OH217512   1.768   5.715   4.950
 5856TIP3    H117513   1.750   5.728   5.044
 5856TIP3    H217514   1.860   5.738   4.940
 5857TIP3   OH217515   6.375   0.670   5.480
 5857TIP3    H117516   6.445   0.606   5.491
 5857TIP3    H217517   6.326   0.665   5.562
 5858TIP3   OH217518   4.560   4.583   1.965
 5858TIP3    H117519   4.523   4.599   1.878
 5858TIP3    H217520   4.620   4.656   1.979
 5859TIP3   OH217521   2.299   4.078   1.102
 5859TIP3    H117522   2.385   4.055   1.134
 5859TIP3    H217523   2.308   4.168   1.070
 5860TIP3   OH217524   0.121   4.487   3.660
 5860TIP3    H117525   0.078   4.512   3.579
 5860TIP3    H217526   0.214   4.483   3.638
 5861TIP3   OH217527   2.074   6.512   1.115
 5861TIP3    H117528   2.123   6.436   1.085
 5861TIP3    H217529   2.092   6.579   1.050
 5862TIP3   OH217530   7.081   7.694   3.625
 5862TIP3    H117531   7.174   7.674   3.636
 5862TIP3    H217532   7.067   7.772   3.680
 5863TIP3   OH217533   8.279   3.179   2.297
 5863TIP3    H117534   8.199   3.200   2.344
 5863TIP3    H217535   8.321   3.111   2.349
 5864TIP3   OH217536   3.887   6.239   6.018
 5864TIP3    H117537   3.954   6.273   5.959
 5864TIP3    H217538   3.853   6.316   6.064
 5865TIP3   OH217539   7.705   1.462   0.071
 5865TIP3    H117540   7.663   1.463   0.156
 5865TIP3    H217541   7.645   1.509   0.013
 5866TIP3   OH217542   2.477   0.069   0.806
 5866TIP3    H117543   2.422   0.111   0.740
 5866TIP3    H217544   2.422   0.065   0.884
 5867TIP3   OH217545   5.862   0.869   1.872
 5867TIP3    H117546   5.942   0.816   1.871
 5867TIP3    H217547   5.834   0.871   1.780
 5868TIP3   OH217548   7.630   2.284   3.914
 5868TIP3    H117549   7.711   2.246   3.947
 5868TIP3    H217550   7.565   2.215   3.925
 5869TIP3   OH217551   7.825   6.816   1.071
 5869TIP3    H117552   7.858   6.867   0.997
 5869TIP3    H217553   7.855   6.727   1.054
 5870TIP3   OH217554   7.058   2.128   4.355
 5870TIP3    H117555   7.016   2.199   4.403
 5870TIP3    H217556   6.992   2.100   4.291
 5871TIP3   OH217557   2.122   5.692   0.262
 5871TIP3    H117558   2.203   5.683   0.212
 5871TIP3    H217559   2.058   5.727   0.200
 5872TIP3   OH217560   3.268   7.044   1.082
 5872TIP3    H117561   3.203   6.985   1.043
 5872TIP3    H217562   3.311   7.085   1.007
 5873TIP3   OH217563   6.174   2.866   6.547
 5873TIP3    H117564   6.101   2.842   6.603
 5873TIP3    H217565   6.134   2.906   6.470
 5874TIP3   OH217566   7.041   1.362   0.469
 5874TIP3    H117567   7.116   1.379   0.526
 5874TIP3    H217568   7.021   1.446   0.430
 5875TIP3   OH217569   2.129   6.682   4.866
 5875TIP3    H117570   2.177   6.761   4.890
 5875TIP3    H217571   2.087   6.654   4.947
 5876TIP3   OH217572   3.828   4.790   3.358
 5876TIP3    H117573   3.754   4.739   3.324
 5876TIP3    H217574   3.868   4.828   3.281
 5877TIP3   OH217575   7.354   0.092   5.101
 5877TIP3    H117576   7.272   0.127   5.136
 5877TIP3    H217577   7.332   0.003   5.073
 5878TIP3   OH217578   2.019   6.008   0.290
 5878TIP3    H117579   2.091   5.955   0.325
 5878TIP3    H217580   1.954   6.009   0.360
 5879TIP3   OH217581   6.349   4.162   0.847
 5879TIP3    H117582   6.387   4.187   0.762
 5879TIP3    H217583   6.355   4.067   0.849
 5880TIP3   OH217584   3.627   5.762   0.426
 5880TIP3    H117585   3.545   5.786   0.467
 5880TIP3    H217586   3.604   5.694   0.363
 5881TIP3   OH217587   3.213   3.047   1.452
 5881TIP3    H117588   3.270   3.052   1.529
 5881TIP3    H217589   3.128   3.023   1.487
 5882TIP3   OH217590   7.833   3.149   0.277
 5882TIP3    H117591   7.879   3.068   0.258
 5882TIP3    H217592   7.863   3.210   0.211
 5883TIP3   OH217593   5.285   5.983   2.205
 5883TIP3    H117594   5.354   6.047   2.220
 5883TIP3    H217595   5.286   5.927   2.283
 5884TIP3   OH217596   7.566   4.163   3.961
 5884TIP3    H117597   7.559   4.205   3.876
 5884TIP3    H217598   7.659   4.140   3.969
 5885TIP3   OH217599   0.862   2.300   4.807
 5885TIP3    H117600   0.942   2.301   4.754
 5885TIP3    H217601   0.824   2.386   4.794
 5886TIP3   OH217602   8.115   7.331   0.485
 5886TIP3    H117603   8.163   7.397   0.434
 5886TIP3    H217604   8.153   7.335   0.572
 5887TIP3   OH217605   2.443   1.863   2.475
 5887TIP3    H117606   2.506   1.901   2.414
 5887TIP3    H217607   2.432   1.773   2.445
 5888TIP3   OH217608   1.560   3.293   1.251
 5888TIP3    H117609   1.597   3.210   1.280
 5888TIP3    H217610   1.489   3.311   1.312
 5889TIP3   OH217611   0.877   3.392   4.618
 5889TIP3    H117612   0.802   3.447   4.640
 5889TIP3    H217613   0.839   3.305   4.604
 5890TIP3   OH217614   7.957   4.484   0.928
 5890TIP3    H117615   7.980   4.510   0.839
 5890TIP3    H217616   8.036   4.501   0.979
 5891TIP3   OH217617   7.752   3.024   2.976
 5891TIP3    H117618   7.809   2.992   3.046
 5891TIP3    H217619   7.762   3.120   2.978
 5892TIP3   OH217620   3.096   2.132   0.988
 5892TIP3    H117621   3.026   2.195   1.005
 5892TIP3    H217622   3.136   2.116   1.073
 5893TIP3   OH217623   4.762   1.080   0.620
 5893TIP3    H117624   4.852   1.110   0.604
 5893TIP3    H217625   4.712   1.160   0.633
 5894TIP3   OH217626   5.232   5.342   1.239
 5894TIP3    H117627   5.157   5.359   1.183
 5894TIP3    H217628   5.308   5.372   1.188
 5895TIP3   OH217629   6.674   4.625   0.892
 5895TIP3    H117630   6.626   4.623   0.975
 5895TIP3    H217631   6.758   4.665   0.914
 5896TIP3   OH217632   4.583   6.093   5.369
 5896TIP3    H117633   4.595   5.998   5.370
 5896TIP3    H217634   4.665   6.128   5.403
 5897TIP3   OH217635   2.313   3.269   3.598
 5897TIP3    H117636   2.329   3.295   3.507
 5897TIP3    H217637   2.313   3.352   3.646
 5898TIP3   OH217638   6.638   1.117   1.931
 5898TIP3    H117639   6.729   1.139   1.909
 5898TIP3    H217640   6.624   1.157   2.016
 5899TIP3   OH217641   8.006   4.235   2.799
 5899TIP3    H117642   8.100   4.225   2.790
 5899TIP3    H217643   7.979   4.285   2.722
 5900TIP3   OH217644   6.004   6.851   4.250
 5900TIP3    H117645   5.919   6.877   4.214
 5900TIP3    H217646   6.028   6.922   4.308
 5901TIP3   OH217647   6.124   4.810   5.616
 5901TIP3    H117648   6.119   4.717   5.594
 5901TIP3    H217649   6.217   4.830   5.613
 5902TIP3   OH217650   0.810   0.616   2.963
 5902TIP3    H117651   0.900   0.584   2.965
 5902TIP3    H217652   0.775   0.594   3.049
 5903TIP3   OH217653   5.298   3.772   5.943
 5903TIP3    H117654   5.324   3.681   5.959
 5903TIP3    H217655   5.342   3.822   6.011
 5904TIP3   OH217656   3.975   0.518   3.133
 5904TIP3    H117657   3.978   0.479   3.046
 5904TIP3    H217658   4.058   0.565   3.141
 5905TIP3   OH217659   1.616   1.024   4.182
 5905TIP3    H117660   1.541   1.023   4.241
 5905TIP3    H217661   1.658   1.109   4.196
 5906TIP3   OH217662   5.946   1.835   1.510
 5906TIP3    H117663   5.865   1.814   1.556
 5906TIP3    H217664   6.005   1.761   1.530
 5907TIP3   OH217665   7.817   6.445   3.637
 5907TIP3    H117666   7.837   6.464   3.728
 5907TIP3    H217667   7.795   6.352   3.635
 5908TIP3   OH217668   3.476   0.530   4.021
 5908TIP3    H117669   3.474   0.525   4.116
 5908TIP3    H217670   3.402   0.587   3.998
 5909TIP3   OH217671   6.899   6.433   2.412
 5909TIP3    H117672   6.908   6.431   2.507
 5909TIP3    H217673   6.858   6.350   2.390
 5910TIP3   OH217674   4.275   4.868   4.074
 5910TIP3    H117675   4.350   4.818   4.106
 5910TIP3    H217676   4.257   4.831   3.988
 5911TIP3   OH217677   7.189   4.935   5.831
 5911TIP3    H117678   7.200   4.931   5.926
 5911TIP3    H217679   7.130   5.009   5.817
 5912TIP3   OH217680   6.933   0.560   0.214
 5912TIP3    H117681   6.920   0.489   0.276
 5912TIP3    H217682   6.846   0.600   0.204
 5913TIP3   OH217683   4.482   5.213   3.497
 5913TIP3    H117684   4.554   5.214   3.560
 5913TIP3    H217685   4.430   5.290   3.518
 5914TIP3   OH217686   5.167   2.231   1.609
 5914TIP3    H117687   5.186   2.252   1.700
 5914TIP3    H217688   5.104   2.160   1.613
 5915TIP3   OH217689   5.524   0.428   5.713
 5915TIP3    H117690   5.435   0.461   5.701
 5915TIP3    H217691   5.581   0.500   5.684
 5916TIP3   OH217692   1.707   6.319   0.176
 5916TIP3    H117693   1.625   6.367   0.187
 5916TIP3    H217694   1.690   6.233   0.213
 5917TIP3   OH217695   4.299   0.078   3.066
 5917TIP3    H117696   4.390   0.103   3.047
 5917TIP3    H217697   4.270   0.139   3.133
 5918TIP3   OH217698   2.535   0.726   6.591
 5918TIP3    H117699   2.472   0.718   6.519
 5918TIP3    H217700   2.562   0.818   6.588
 5919TIP3   OH217701   8.084   0.654   4.507
 5919TIP3    H117702   8.029   0.724   4.472
 5919TIP3    H217703   8.077   0.663   4.602
 5920TIP3   OH217704   0.748   2.082   1.155
 5920TIP3    H117705   0.803   2.051   1.082
 5920TIP3    H217706   0.810   2.121   1.217
 5921TIP3   OH217707   1.532   4.269   6.768
 5921TIP3    H117708   1.438   4.285   6.777
 5921TIP3    H217709   1.551   4.284   6.675
 5922TIP3   OH217710   8.064   6.626   6.673
 5922TIP3    H117711   8.152   6.623   6.710
 5922TIP3    H217712   8.015   6.560   6.723
 5923TIP3   OH217713   4.949   5.932   2.892
 5923TIP3    H117714   4.970   6.023   2.871
 5923TIP3    H217715   5.009   5.909   2.963
 5924TIP3   OH217716   6.610   2.481   2.028
 5924TIP3    H117717   6.664   2.415   2.071
 5924TIP3    H217718   6.599   2.449   1.938
 5925TIP3   OH217719   4.837   2.268   3.197
 5925TIP3    H117720   4.868   2.338   3.139
 5925TIP3    H217721   4.916   2.237   3.241
 5926TIP3   OH217722   3.413   4.272   0.441
 5926TIP3    H117723   3.350   4.241   0.506
 5926TIP3    H217724   3.430   4.196   0.385
 5927TIP3   OH217725   7.327   1.318   1.380
 5927TIP3    H117726   7.416   1.306   1.349
 5927TIP3    H217727   7.283   1.235   1.363
 5928TIP3   OH217728   1.145   6.150   2.574
 5928TIP3    H117729   1.162   6.245   2.577
 5928TIP3    H217730   1.063   6.139   2.622
 5929TIP3   OH217731   3.255   2.982   2.806
 5929TIP3    H117732   3.350   2.986   2.821
 5929TIP3    H217733   3.217   3.005   2.891
 5930TIP3   OH217734   3.201   7.431   3.400
 5930TIP3    H117735   3.231   7.503   3.345
 5930TIP3    H217736   3.154   7.373   3.341
 5931TIP3   OH217737   6.696   4.720   3.453
 5931TIP3    H117738   6.670   4.802   3.494
 5931TIP3    H217739   6.753   4.678   3.517
 5932TIP3   OH217740   4.117   3.394   2.028
 5932TIP3    H117741   4.185   3.440   1.979
 5932TIP3    H217742   4.077   3.461   2.083
 5933TIP3   OH217743   7.757   3.189   6.251
 5933TIP3    H117744   7.722   3.108   6.215
 5933TIP3    H217745   7.704   3.258   6.211
 5934TIP3   OH217746   3.181   6.293   4.724
 5934TIP3    H117747   3.226   6.356   4.668
 5934TIP3    H217748   3.106   6.341   4.760
 5935TIP3   OH217749   7.944   6.089   5.727
 5935TIP3    H117750   7.923   6.087   5.633
 5935TIP3    H217751   8.037   6.068   5.731
 5936TIP3   OH217752   1.717   7.155   2.425
 5936TIP3    H117753   1.807   7.123   2.433
 5936TIP3    H217754   1.721   7.247   2.451
 5937TIP3   OH217755   3.805   0.279   4.087
 5937TIP3    H117756   3.851   0.199   4.060
 5937TIP3    H217757   3.861   0.350   4.057
 5938TIP3   OH217758   8.187   5.608   1.601
 5938TIP3    H117759   8.267   5.613   1.548
 5938TIP3    H217760   8.155   5.519   1.588
 5939TIP3   OH217761   6.409   4.781   3.872
 5939TIP3    H117762   6.359   4.703   3.895
 5939TIP3    H217763   6.373   4.809   3.788
 5940TIP3   OH217764   3.235   3.618   5.032
 5940TIP3    H117765   3.220   3.546   4.971
 5940TIP3    H217766   3.283   3.683   4.981
 5941TIP3   OH217767   7.803   6.301   4.927
 5941TIP3    H117768   7.712   6.315   4.953
 5941TIP3    H217769   7.807   6.331   4.836
 5942TIP3   OH217770   0.533   0.083   3.505
 5942TIP3    H117771   0.514   0.110   3.594
 5942TIP3    H217772   0.607   0.024   3.513
 5943TIP3   OH217773   2.594   1.848   5.861
 5943TIP3    H117774   2.542   1.871   5.938
 5943TIP3    H217775   2.685   1.862   5.887
 5944TIP3   OH217776   5.878   6.185   5.006
 5944TIP3    H117777   5.866   6.255   5.070
 5944TIP3    H217778   5.803   6.193   4.948
 5945TIP3   OH217779   0.643   5.762   2.163
 5945TIP3    H117780   0.573   5.820   2.193
 5945TIP3    H217781   0.723   5.804   2.194
 5946TIP3   OH217782   4.509   7.405   0.737
 5946TIP3    H117783   4.422   7.403   0.698
 5946TIP3    H217784   4.535   7.313   0.742
 5947TIP3   OH217785   6.741   1.471   4.113
 5947TIP3    H117786   6.761   1.481   4.020
 5947TIP3    H217787   6.812   1.418   4.148
 5948TIP3   OH217788   7.114   1.248   1.131
 5948TIP3    H117789   7.176   1.210   1.068
 5948TIP3    H217790   7.072   1.172   1.171
 5949TIP3   OH217791   8.135   4.616   6.311
 5949TIP3    H117792   8.121   4.577   6.225
 5949TIP3    H217793   8.103   4.706   6.303
 5950TIP3   OH217794   5.969   1.916   0.839
 5950TIP3    H117795   6.009   1.849   0.895
 5950TIP3    H217796   5.894   1.948   0.890
 5951TIP3   OH217797   7.673   0.752   6.102
 5951TIP3    H117798   7.629   0.688   6.157
 5951TIP3    H217799   7.606   0.778   6.039
 5952TIP3   OH217800   3.738   6.396   4.036
 5952TIP3    H117801   3.679   6.402   4.112
 5952TIP3    H217802   3.819   6.437   4.066
 5953TIP3   OH217803   3.548   2.696   3.927
 5953TIP3    H117804   3.494   2.626   3.965
 5953TIP3    H217805   3.597   2.652   3.857
 5954TIP3   OH217806   4.501   4.088   2.510
 5954TIP3    H117807   4.549   4.111   2.431
 5954TIP3    H217808   4.462   4.003   2.491
 5955TIP3   OH217809   5.821   4.445   1.306
 5955TIP3    H117810   5.799   4.436   1.399
 5955TIP3    H217811   5.781   4.369   1.264
 5956TIP3   OH217812   3.344   0.391   5.898
 5956TIP3    H117813   3.427   0.421   5.936
 5956TIP3    H217814   3.277   0.434   5.950
 5957TIP3   OH217815   5.768   1.464   1.705
 5957TIP3    H117816   5.766   1.537   1.643
 5957TIP3    H217817   5.748   1.505   1.790
 5958TIP3   OH217818   6.916   4.962   3.407
 5958TIP3    H117819   6.830   4.957   3.450
 5958TIP3    H217820   6.977   4.925   3.471
 5959TIP3   OH217821   2.147   1.933   2.060
 5959TIP3    H117822   2.113   1.933   1.971
 5959TIP3    H217823   2.242   1.934   2.050
 5960TIP3   OH217824   3.746   3.394   3.479
 5960TIP3    H117825   3.761   3.460   3.546
 5960TIP3    H217826   3.717   3.444   3.402
 5961TIP3   OH217827   3.489   4.278   5.226
 5961TIP3    H117828   3.490   4.198   5.173
 5961TIP3    H217829   3.405   4.319   5.205
 5962TIP3   OH217830   6.721   3.992   6.282
 5962TIP3    H117831   6.647   4.022   6.228
 5962TIP3    H217832   6.689   3.999   6.372
 5963TIP3   OH217833   7.829   2.721   4.651
 5963TIP3    H117834   7.807   2.764   4.568
 5963TIP3    H217835   7.809   2.787   4.718
 5964TIP3   OH217836   1.201   3.468   5.600
 5964TIP3    H117837   1.149   3.516   5.665
 5964TIP3    H217838   1.291   3.498   5.614
 5965TIP3   OH217839   7.519   6.377   2.615
 5965TIP3    H117840   7.560   6.297   2.647
 5965TIP3    H217841   7.467   6.349   2.540
 5966TIP3   OH217842   7.890   2.023   5.909
 5966TIP3    H117843   7.849   1.969   5.977
 5966TIP3    H217844   7.859   1.985   5.827
 5967TIP3   OH217845   4.668   4.761   6.122
 5967TIP3    H117846   4.643   4.780   6.212
 5967TIP3    H217847   4.615   4.685   6.098
 5968TIP3   OH217848   2.895   3.457   1.822
 5968TIP3    H117849   2.810   3.413   1.823
 5968TIP3    H217850   2.944   3.414   1.753
 5969TIP3   OH217851   6.767   0.206   1.404
 5969TIP3    H117852   6.831   0.143   1.437
 5969TIP3    H217853   6.703   0.153   1.358
 5970TIP3   OH217854   7.484   0.452   2.550
 5970TIP3    H117855   7.508   0.496   2.632
 5970TIP3    H217856   7.390   0.465   2.542
 5971TIP3   OH217857   8.144   0.470   4.925
 5971TIP3    H117858   8.220   0.493   4.978
 5971TIP3    H217859   8.070   0.472   4.985
 5972TIP3   OH217860   5.228   2.462   0.719
 5972TIP3    H117861   5.249   2.539   0.666
 5972TIP3    H217862   5.165   2.493   0.784
 5973TIP3   OH217863   3.084   3.162   6.231
 5973TIP3    H117864   3.018   3.094   6.215
 5973TIP3    H217865   3.085   3.213   6.150
 5974TIP3   OH217866   1.131   3.040   2.763
 5974TIP3    H117867   1.210   3.008   2.721
 5974TIP3    H217868   1.072   2.965   2.764
 5975TIP3   OH217869   0.411   6.033   4.544
 5975TIP3    H117870   0.366   5.955   4.577
 5975TIP3    H217871   0.468   6.001   4.475
 5976TIP3   OH217872   6.156   4.794   6.449
 5976TIP3    H117873   6.078   4.849   6.452
 5976TIP3    H217874   6.203   4.824   6.371
 5977TIP3   OH217875   7.583   0.195   4.930
 5977TIP3    H117876   7.600   0.289   4.930
 5977TIP3    H217877   7.496   0.186   4.969
 5978TIP3   OH217878   0.118   1.126   2.955
 5978TIP3    H117879   0.129   1.039   2.993
 5978TIP3    H217880   0.080   1.178   3.025
 5979TIP3   OH217881   3.661   5.650   3.717
 5979TIP3    H117882   3.637   5.647   3.625
 5979TIP3    H217883   3.718   5.574   3.730
 5980TIP3   OH217884   4.907   6.186   1.487
 5980TIP3    H117885   4.909   6.161   1.580
 5980TIP3    H217886   4.929   6.105   1.440
 5981TIP3   OH217887   3.424   7.670   3.515
 5981TIP3    H117888   3.436   7.662   3.420
 5981TIP3    H217889   3.333   7.643   3.529
 5982TIP3   OH217890   5.604   4.713   4.654
 5982TIP3    H117891   5.666   4.779   4.626
 5982TIP3    H217892   5.528   4.762   4.685
 5983TIP3   OH217893   0.014   1.694   1.050
 5983TIP3    H117894  -0.028   1.632   1.110
 5983TIP3    H217895   0.060   1.755   1.108
 5984TIP3   OH217896   3.885   3.283   5.180
 5984TIP3    H117897   3.892   3.266   5.086
 5984TIP3    H217898   3.954   3.230   5.219
 5985TIP3   OH217899   0.085   2.800   3.857
 5985TIP3    H117900   0.097   2.794   3.952
 5985TIP3    H217901   0.097   2.710   3.826
 5986TIP3   OH217902   3.210   4.878   6.627
 5986TIP3    H117903   3.206   4.815   6.699
 5986TIP3    H217904   3.276   4.841   6.567
 5987TIP3   OH217905   5.009   6.883   2.655
 5987TIP3    H117906   4.965   6.955   2.610
 5987TIP3    H217907   5.023   6.817   2.588
 5988TIP3   OH217908   3.641   1.217   6.439
 5988TIP3    H117909   3.688   1.164   6.375
 5988TIP3    H217910   3.556   1.236   6.398
 5989TIP3   OH217911   4.523   1.948   6.062
 5989TIP3    H117912   4.583   1.899   6.006
 5989TIP3    H217913   4.436   1.913   6.041
 5990TIP3   OH217914   5.276   1.636   0.786
 5990TIP3    H117915   5.357   1.601   0.750
 5990TIP3    H217916   5.295   1.650   0.879
 5991TIP3   OH217917   4.776   6.976   3.145
 5991TIP3    H117918   4.814   6.952   3.060
 5991TIP3    H217919   4.834   7.045   3.178
 5992TIP3   OH217920   5.482   7.308   3.611
 5992TIP3    H117921   5.574   7.325   3.592
 5992TIP3    H217922   5.453   7.248   3.541
 5993TIP3   OH217923   1.795   5.407   2.275
 5993TIP3    H117924   1.789   5.336   2.338
 5993TIP3    H217925   1.826   5.365   2.194
 5994TIP3   OH217926   1.061   4.965   0.939
 5994TIP3    H117927   1.119   4.985   0.866
 5994TIP3    H217928   1.120   4.949   1.013
 5995TIP3   OH217929   4.131   0.176   2.566
 5995TIP3    H117930   4.221   0.173   2.599
 5995TIP3    H217931   4.139   0.212   2.478
 5996TIP3   OH217932   1.171   4.387   1.244
 5996TIP3    H117933   1.083   4.416   1.218
 5996TIP3    H217934   1.226   4.409   1.169
 5997TIP3   OH217935   3.195   5.519   4.387
 5997TIP3    H117936   3.181   5.612   4.405
 5997TIP3    H217937   3.244   5.487   4.464
 5998TIP3   OH217938   7.306   0.491   3.577
 5998TIP3    H117939   7.369   0.543   3.527
 5998TIP3    H217940   7.297   0.410   3.526
 5999TIP3   OH217941   4.315   0.668   4.941
 5999TIP3    H117942   4.249   0.657   5.011
 5999TIP3    H217943   4.291   0.751   4.899
 6000TIP3   OH217944   7.705   5.908   5.782
 6000TIP3    H117945   7.685   5.936   5.693
 6000TIP3    H217946   7.799   5.927   5.792
 6001TIP3   OH217947   4.479   4.442   3.992
 6001TIP3    H117948   4.562   4.400   4.013
 6001TIP3    H217949   4.485   4.529   4.031
 6002TIP3   OH217950   7.164   3.688   1.751
 6002TIP3    H117951   7.196   3.760   1.805
 6002TIP3    H217952   7.162   3.613   1.810
 6003TIP3   OH217953   3.952   6.363   1.414
 6003TIP3    H117954   4.030   6.410   1.386
 6003TIP3    H217955   3.922   6.316   1.336
 6004TIP3   OH217956   4.196   3.841   2.710
 6004TIP3    H117957   4.219   3.934   2.713
 6004TIP3    H217958   4.278   3.796   2.728
 6005TIP3   OH217959   7.793   2.921   0.735
 6005TIP3    H117960   7.807   3.002   0.685
 6005TIP3    H217961   7.729   2.946   0.801
 6006TIP3   OH217962   0.676   2.210   3.416
 6006TIP3    H117963   0.733   2.199   3.493
 6006TIP3    H217964   0.601   2.153   3.434
 6007TIP3   OH217965   6.608   7.315   2.068
 6007TIP3    H117966   6.613   7.295   2.161
 6007TIP3    H217967   6.699   7.320   2.039
 6008TIP3   OH217968   4.639   0.635   3.989
 6008TIP3    H117969   4.553   0.614   4.026
 6008TIP3    H217970   4.699   0.575   4.033
 6009TIP3   OH217971   1.418   5.557   4.752
 6009TIP3    H117972   1.376   5.506   4.683
 6009TIP3    H217973   1.350   5.568   4.819
 6010TIP3   OH217974   2.101   3.559   0.304
 6010TIP3    H117975   2.107   3.654   0.305
 6010TIP3    H217976   2.008   3.540   0.290
 6011TIP3   OH217977   5.955   5.426   5.904
 6011TIP3    H117978   6.034   5.416   5.850
 6011TIP3    H217979   5.946   5.520   5.915
 6012TIP3   OH217980   6.488   7.307   1.822
 6012TIP3    H117981   6.522   7.303   1.911
 6012TIP3    H217982   6.557   7.269   1.768
 6013TIP3   OH217983   6.210   5.034   1.795
 6013TIP3    H117984   6.165   5.089   1.859
 6013TIP3    H217985   6.270   4.981   1.847
 6014TIP3   OH217986   3.536   2.717   1.063
 6014TIP3    H117987   3.500   2.683   0.981
 6014TIP3    H217988   3.623   2.750   1.039
 6015TIP3   OH217989   2.120   2.318   0.124
 6015TIP3    H117990   2.129   2.408   0.092
 6015TIP3    H217991   2.061   2.276   0.062
 6016TIP3   OH217992   7.098   1.538   3.669
 6016TIP3    H117993   7.085   1.627   3.701
 6016TIP3    H217994   7.126   1.549   3.578
 6017TIP3   OH217995   3.464   0.481   3.335
 6017TIP3    H117996   3.477   0.574   3.317
 6017TIP3    H217997   3.446   0.478   3.429
 6018TIP3   OH217998   3.526   5.056   0.121
 6018TIP3    H117999   3.481   5.099   0.193
 6018TIP3    H218000   3.596   5.005   0.162
 6019TIP3   OH218001   0.051   6.403   1.661
 6019TIP3    H118002   0.027   6.339   1.728
 6019TIP3    H218003   0.023   6.364   1.578
 6020TIP3   OH218004   1.354   1.783   2.920
 6020TIP3    H118005   1.449   1.771   2.923
 6020TIP3    H218006   1.331   1.815   3.007
 6021TIP3   OH218007   7.480   1.686   3.546
 6021TIP3    H118008   7.570   1.655   3.540
 6021TIP3    H218009   7.443   1.639   3.621
 6022TIP3   OH218010   2.033   0.201   4.329
 6022TIP3    H118011   2.069   0.125   4.376
 6022TIP3    H218012   1.943   0.176   4.309
 6023TIP3   OH218013   6.260   6.591   1.644
 6023TIP3    H118014   6.216   6.506   1.653
 6023TIP3    H218015   6.311   6.583   1.564
 6024TIP3   OH218016   5.153   7.153   5.922
 6024TIP3    H118017   5.060   7.149   5.944
 6024TIP3    H218018   5.198   7.147   6.007
 6025TIP3   OH218019   2.418   1.332   5.211
 6025TIP3    H118020   2.354   1.381   5.262
 6025TIP3    H218021   2.382   1.244   5.204
 6026TIP3   OH218022   7.037   3.630   4.578
 6026TIP3    H118023   7.092   3.696   4.535
 6026TIP3    H218024   6.984   3.594   4.507
 6027TIP3   OH218025   8.149   1.901   3.308
 6027TIP3    H118026   8.104   1.884   3.391
 6027TIP3    H218027   8.241   1.880   3.325
 6028TIP3   OH218028   6.911   4.999   0.448
 6028TIP3    H118029   6.954   5.058   0.387
 6028TIP3    H218030   6.947   4.913   0.428
 6029TIP3   OH218031   0.293   3.570   2.120
 6029TIP3    H118032   0.291   3.589   2.026
 6029TIP3    H218033   0.278   3.476   2.126
 6030TIP3   OH218034   5.616   4.836   0.231
 6030TIP3    H118035   5.592   4.915   0.280
 6030TIP3    H218036   5.532   4.797   0.206
 6031TIP3   OH218037   6.448   2.411   5.854
 6031TIP3    H118038   6.370   2.413   5.909
 6031TIP3    H218039   6.516   2.451   5.908
 6032TIP3   OH218040   7.780   4.578   3.091
 6032TIP3    H118041   7.864   4.605   3.054
 6032TIP3    H218042   7.747   4.656   3.135
 6033TIP3   OH218043   5.786   5.422   2.752
 6033TIP3    H118044   5.798   5.328   2.754
 6033TIP3    H218045   5.874   5.458   2.753
 6034TIP3   OH218046   5.938   3.175   1.420
 6034TIP3    H118047   6.031   3.160   1.439
 6034TIP3    H218048   5.932   3.269   1.401
 6035TIP3   OH218049   5.612   1.994   6.209
 6035TIP3    H118050   5.517   1.981   6.205
 6035TIP3    H218051   5.645   1.918   6.257
 6036TIP3   OH218052   0.288   7.398   0.938
 6036TIP3    H118053   0.288   7.356   0.852
 6036TIP3    H218054   0.320   7.487   0.922
 6037TIP3   OH218055   6.504   0.224   4.266
 6037TIP3    H118056   6.510   0.162   4.338
 6037TIP3    H218057   6.562   0.296   4.291
 6038TIP3   OH218058   7.512   6.810   4.444
 6038TIP3    H118059   7.458   6.764   4.380
 6038TIP3    H218060   7.508   6.902   4.417
 6039TIP3   OH218061   6.968   3.693   5.665
 6039TIP3    H118062   6.956   3.774   5.615
 6039TIP3    H218063   7.010   3.633   5.603
 6040TIP3   OH218064   5.273   7.323   1.596
 6040TIP3    H118065   5.234   7.409   1.614
 6040TIP3    H218066   5.338   7.341   1.528
 6041TIP3   OH218067   4.443   4.553   2.463
 6041TIP3    H118068   4.506   4.618   2.494
 6041TIP3    H218069   4.477   4.525   2.378
 6042TIP3   OH218070   0.168   2.108   1.495
 6042TIP3    H118071   0.211   2.106   1.410
 6042TIP3    H218072   0.099   2.042   1.489
 6043TIP3   OH218073   5.360   4.506   3.389
 6043TIP3    H118074   5.266   4.513   3.372
 6043TIP3    H218075   5.390   4.597   3.396
 6044TIP3   OH218076   2.970   3.772   4.581
 6044TIP3    H118077   2.946   3.727   4.662
 6044TIP3    H218078   3.040   3.719   4.544
 6045TIP3   OH218079   3.032   4.653   4.232
 6045TIP3    H118080   3.016   4.639   4.139
 6045TIP3    H218081   3.080   4.736   4.236
 6046TIP3   OH218082   2.399   5.424   1.004
 6046TIP3    H118083   2.370   5.396   0.917
 6046TIP3    H218084   2.477   5.477   0.988
 6047TIP3   OH218085   5.992   2.486   2.413
 6047TIP3    H118086   6.043   2.567   2.401
 6047TIP3    H218087   5.992   2.445   2.326
 6048TIP3   OH218088   2.856   2.861   5.249
 6048TIP3    H118089   2.818   2.901   5.171
 6048TIP3    H218090   2.856   2.931   5.314
 6049TIP3   OH218091   3.007   0.395   6.744
 6049TIP3    H118092   3.102   0.394   6.736
 6049TIP3    H218093   2.985   0.484   6.771
 6050TIP3   OH218094   1.527   2.939   0.540
 6050TIP3    H118095   1.601   2.981   0.584
 6050TIP3    H218096   1.496   3.005   0.478
 6051TIP3   OH218097   7.272   2.816   2.171
 6051TIP3    H118098   7.240   2.823   2.081
 6051TIP3    H218099   7.243   2.897   2.213
 6052TIP3   OH218100   5.639   1.294   4.927
 6052TIP3    H118101   5.603   1.314   4.841
 6052TIP3    H218102   5.575   1.331   4.989
 6053TIP3   OH218103   8.256   3.139   3.836
 6053TIP3    H118104   8.295   3.131   3.923
 6053TIP3    H218105   8.202   3.060   3.827
 6054TIP3   OH218106   4.581   6.410   0.272
 6054TIP3    H118107   4.628   6.326   0.269
 6054TIP3    H218108   4.563   6.424   0.364
 6055TIP3   OH218109   3.959   1.702   0.751
 6055TIP3    H118110   4.005   1.761   0.810
 6055TIP3    H218111   3.897   1.655   0.806
 6056TIP3   OH218112   4.220   4.996   3.452
 6056TIP3    H118113   4.250   5.050   3.378
 6056TIP3    H218114   4.292   4.935   3.468
 6057TIP3   OH218115   1.818   2.908   2.049
 6057TIP3    H118116   1.781   2.955   2.124
 6057TIP3    H218117   1.894   2.960   2.023
 6058TIP3   OH218118   2.013   1.041   6.599
 6058TIP3    H118119   2.037   1.029   6.507
 6058TIP3    H218120   1.989   0.954   6.629
 6059TIP3   OH218121   6.337   5.387   1.692
 6059TIP3    H118122   6.329   5.468   1.641
 6059TIP3    H218123   6.307   5.410   1.779
 6060TIP3   OH218124   4.313   7.117   2.390
 6060TIP3    H118125   4.337   7.030   2.359
 6060TIP3    H218126   4.325   7.174   2.313
 6061TIP3   OH218127   3.145   3.414   2.048
 6061TIP3    H118128   3.114   3.497   2.012
 6061TIP3    H218129   3.237   3.410   2.023
 6062TIP3   OH218130   0.386   1.304   0.159
 6062TIP3    H118131   0.358   1.332   0.072
 6062TIP3    H218132   0.479   1.323   0.162
 6063TIP3   OH218133   7.699   7.654   5.240
 6063TIP3    H118134   7.712   7.588   5.171
 6063TIP3    H218135   7.772   7.715   5.228
 6064TIP3   OH218136   3.208   4.871   0.916
 6064TIP3    H118137   3.188   4.958   0.951
 6064TIP3    H218138   3.303   4.870   0.907
 6065TIP3   OH218139   4.109   7.036   5.783
 6065TIP3    H118140   4.067   7.021   5.698
 6065TIP3    H218141   4.041   7.077   5.836
 6066TIP3   OH218142   5.490   2.315   0.707
 6066TIP3    H118143   5.502   2.356   0.792
 6066TIP3    H218144   5.415   2.361   0.668
 6067TIP3   OH218145   6.843   3.863   5.030
 6067TIP3    H118146   6.889   3.782   5.011
 6067TIP3    H218147   6.804   3.889   4.947
 6068TIP3   OH218148   7.750   2.109   4.542
 6068TIP3    H118149   7.704   2.149   4.615
 6068TIP3    H218150   7.836   2.086   4.578
 6069TIP3   OH218151   7.380   1.007   6.587
 6069TIP3    H118152   7.330   0.932   6.554
 6069TIP3    H218153   7.350   1.081   6.533
 6070TIP3   OH218154   0.531   6.210   6.549
 6070TIP3    H118155   0.490   6.223   6.463
 6070TIP3    H218156   0.543   6.115   6.556
 6071TIP3   OH218157   4.054   6.347   5.119
 6071TIP3    H118158   4.056   6.260   5.079
 6071TIP3    H218159   4.120   6.343   5.188
 6072TIP3   OH218160   6.851   4.164   3.162
 6072TIP3    H118161   6.916   4.207   3.107
 6072TIP3    H218162   6.901   4.105   3.218
 6073TIP3   OH218163   2.978   7.431   0.167
 6073TIP3    H118164   2.939   7.517   0.151
 6073TIP3    H218165   2.931   7.397   0.244
 6074TIP3   OH218166   4.954   2.481   3.094
 6074TIP3    H118167   4.996   2.471   3.008
 6074TIP3    H218168   4.990   2.563   3.128
 6075TIP3   OH218169   5.686   2.523   0.544
 6075TIP3    H118170   5.740   2.563   0.477
 6075TIP3    H218171   5.711   2.430   0.544
 6076TIP3   OH218172   5.924   4.710   6.622
 6076TIP3    H118173   5.927   4.765   6.545
 6076TIP3    H218174   5.988   4.641   6.605
 6077TIP3   OH218175   7.815   5.727   3.673
 6077TIP3    H118176   7.837   5.705   3.582
 6077TIP3    H218177   7.808   5.823   3.673
 6078TIP3   OH218178   0.302   6.306   0.284
 6078TIP3    H118179   0.325   6.246   0.214
 6078TIP3    H218180   0.207   6.312   0.281
 6079TIP3   OH218181   2.169   5.265   5.010
 6079TIP3    H118182   2.106   5.221   4.952
 6079TIP3    H218183   2.221   5.319   4.951
 6080TIP3   OH218184   3.207   6.342   5.569
 6080TIP3    H118185   3.130   6.285   5.562
 6080TIP3    H218186   3.279   6.283   5.589
 6081TIP3   OH218187   2.012   6.987   0.130
 6081TIP3    H118188   1.925   6.947   0.124
 6081TIP3    H218189   2.022   7.005   0.224
 6082TIP3   OH218190   1.669   2.833   5.036
 6082TIP3    H118191   1.699   2.769   4.972
 6082TIP3    H218192   1.726   2.909   5.023
 6083TIP3   OH218193   3.029   0.694   3.477
 6083TIP3    H118194   3.026   0.767   3.414
 6083TIP3    H218195   2.943   0.653   3.470
 6084TIP3   OH218196   2.975   6.809   0.644
 6084TIP3    H118197   2.885   6.777   0.644
 6084TIP3    H218198   2.966   6.903   0.663
 6085TIP3   OH218199   8.034   4.806   3.235
 6085TIP3    H118200   8.129   4.814   3.224
 6085TIP3    H218201   8.021   4.717   3.266
 6086TIP3   OH218202   1.078   4.670   2.436
 6086TIP3    H118203   1.168   4.652   2.463
 6086TIP3    H218204   1.049   4.590   2.393
 6087TIP3   OH218205   1.754   4.923   0.628
 6087TIP3    H118206   1.693   4.886   0.692
 6087TIP3    H218207   1.828   4.863   0.628
 6088TIP3   OH218208   1.329   4.549   1.002
 6088TIP3    H118209   1.425   4.552   1.002
 6088TIP3    H218210   1.303   4.637   1.030
 6089TIP3   OH218211   1.171   5.854   5.608
 6089TIP3    H118212   1.241   5.826   5.668
 6089TIP3    H218213   1.091   5.844   5.660
 6090TIP3   OH218214   2.322   2.511   5.354
 6090TIP3    H118215   2.280   2.551   5.430
 6090TIP3    H218216   2.343   2.586   5.297
 6091TIP3   OH218217   4.813   2.029   5.169
 6091TIP3    H118218   4.861   2.104   5.203
 6091TIP3    H218219   4.728   2.065   5.142
 6092TIP3   OH218220   2.533   2.216   2.483
 6092TIP3    H118221   2.547   2.191   2.392
 6092TIP3    H218222   2.472   2.289   2.479
 6093TIP3   OH218223   1.842   4.729   1.550
 6093TIP3    H118224   1.762   4.780   1.545
 6093TIP3    H218225   1.875   4.744   1.639
 6094TIP3   OH218226   0.717   7.093   5.403
 6094TIP3    H118227   0.643   7.110   5.462
 6094TIP3    H218228   0.678   7.089   5.316
 6095TIP3   OH218229   6.768   1.800   6.346
 6095TIP3    H118230   6.771   1.720   6.294
 6095TIP3    H218231   6.858   1.810   6.378
 6096TIP3   OH218232   5.485   1.990   6.511
 6096TIP3    H118233   5.473   2.084   6.497
 6096TIP3    H218234   5.479   1.979   6.606
 6097TIP3   OH218235   5.948   0.885   0.616
 6097TIP3    H118236   5.925   0.885   0.523
 6097TIP3    H218237   5.876   0.932   0.658
 6098TIP3   OH218238   1.506   6.960   2.527
 6098TIP3    H118239   1.577   7.004   2.480
 6098TIP3    H218240   1.456   6.914   2.459
 6099TIP3   OH218241   6.308   1.260   4.527
 6099TIP3    H118242   6.222   1.300   4.516
 6099TIP3    H218243   6.291   1.166   4.525
 6100TIP3   OH218244   8.255   6.153   0.309
 6100TIP3    H118245   8.173   6.108   0.291
 6100TIP3    H218246   8.323   6.090   0.283
 6101TIP3   OH218247   0.308   7.330   3.934
 6101TIP3    H118248   0.375   7.280   3.981
 6101TIP3    H218249   0.332   7.321   3.842
 6102TIP3   OH218250   6.809   7.573   3.562
 6102TIP3    H118251   6.778   7.521   3.636
 6102TIP3    H218252   6.903   7.561   3.562
 6103TIP3   OH218253   2.064   4.919   0.129
 6103TIP3    H118254   2.101   4.893   0.213
 6103TIP3    H218255   2.065   4.839   0.076
 6104TIP3   OH218256   6.111   0.567   3.636
 6104TIP3    H118257   6.092   0.505   3.565
 6104TIP3    H218258   6.137   0.648   3.591
 6105TIP3   OH218259   7.601   5.955   1.391
 6105TIP3    H118260   7.588   6.022   1.323
 6105TIP3    H218261   7.591   6.003   1.473
 6106TIP3   OH218262   1.260   6.682   3.006
 6106TIP3    H118263   1.271   6.735   3.085
 6106TIP3    H218264   1.207   6.607   3.035
 6107TIP3   OH218265   5.327   7.796   3.137
 6107TIP3    H118266   5.250   7.829   3.182
 6107TIP3    H218267   5.301   7.709   3.105
 6108TIP3   OH218268   1.377   0.755   2.264
 6108TIP3    H118269   1.383   0.850   2.273
 6108TIP3    H218270   1.363   0.742   2.170
 6109TIP3   OH218271   4.323   1.462   6.062
 6109TIP3    H118272   4.313   1.461   5.967
 6109TIP3    H218273   4.415   1.485   6.076
 6110TIP3   OH218274   4.512   0.945   4.300
 6110TIP3    H118275   4.546   1.033   4.315
 6110TIP3    H218276   4.589   0.888   4.308
 6111TIP3   OH218277   0.787   4.139   1.495
 6111TIP3    H118278   0.880   4.130   1.474
 6111TIP3    H218279   0.749   4.179   1.416
 6112TIP3   OH218280   6.034   2.069   5.974
 6112TIP3    H118281   5.982   2.146   5.998
 6112TIP3    H218282   6.026   2.064   5.878
 6113TIP3   OH218283   7.932   5.880   6.776
 6113TIP3    H118284   7.949   5.965   6.737
 6113TIP3    H218285   7.920   5.821   6.702
 6114TIP3   OH218286   3.186   4.965   4.523
 6114TIP3    H118287   3.127   4.955   4.448
 6114TIP3    H218288   3.174   5.056   4.550
 6115TIP3   OH218289   7.495   2.202   5.250
 6115TIP3    H118290   7.516   2.123   5.299
 6115TIP3    H218291   7.532   2.273   5.302
 6116TIP3   OH218292   5.766   4.725   3.700
 6116TIP3    H118293   5.727   4.811   3.720
 6116TIP3    H218294   5.858   4.745   3.682
 6117TIP3   OH218295   7.794   1.789   6.020
 6117TIP3    H118296   7.737   1.781   5.943
 6117TIP3    H218297   7.848   1.710   6.017
 6118TIP3   OH218298   5.475   3.705   3.557
 6118TIP3    H118299   5.412   3.744   3.496
 6118TIP3    H218300   5.560   3.715   3.513
 6119TIP3   OH218301   3.696   2.405   0.580
 6119TIP3    H118302   3.767   2.392   0.643
 6119TIP3    H218303   3.711   2.493   0.545
 6120TIP3   OH218304   6.858   4.477   0.153
 6120TIP3    H118305   6.804   4.516   0.084
 6120TIP3    H218306   6.862   4.384   0.132
 6121TIP3   OH218307   0.989   0.990   5.522
 6121TIP3    H118308   0.925   0.918   5.518
 6121TIP3    H218309   0.969   1.045   5.447
 6122TIP3   OH218310   1.396   2.629   3.946
 6122TIP3    H118311   1.376   2.722   3.942
 6122TIP3    H218312   1.490   2.624   3.931
 6123TIP3   OH218313   7.982   2.569   3.386
 6123TIP3    H118314   7.933   2.650   3.404
 6123TIP3    H218315   7.946   2.538   3.303
 6124TIP3   OH218316   0.438   0.166   4.074
 6124TIP3    H118317   0.390   0.086   4.096
 6124TIP3    H218318   0.480   0.147   3.990
 6125TIP3   OH218319   3.993   5.986   4.542
 6125TIP3    H118320   3.958   6.071   4.516
 6125TIP3    H218321   3.967   5.977   4.634
 6126TIP3   OH218322   4.207   4.036   6.407
 6126TIP3    H118323   4.276   4.047   6.341
 6126TIP3    H218324   4.191   3.942   6.410
 6127TIP3   OH218325   2.618   5.137   2.988
 6127TIP3    H118326   2.703   5.154   2.946
 6127TIP3    H218327   2.640   5.124   3.080
 6128TIP3   OH218328   5.202   3.960   3.485
 6128TIP3    H118329   5.275   4.013   3.515
 6128TIP3    H218330   5.127   4.020   3.485
 6129TIP3   OH218331   7.959   4.990   1.300
 6129TIP3    H118332   7.918   4.971   1.215
 6129TIP3    H218333   8.033   4.930   1.305
 6130TIP3   OH218334   3.641   3.016   1.093
 6130TIP3    H118335   3.546   3.005   1.079
 6130TIP3    H218336   3.648   3.092   1.151
 6131TIP3   OH218337   1.181   0.651   3.124
 6131TIP3    H118338   1.131   0.576   3.094
 6131TIP3    H218339   1.234   0.678   3.049
 6132TIP3   OH218340   0.679   0.327   3.282
 6132TIP3    H118341   0.718   0.413   3.269
 6132TIP3    H218342   0.593   0.346   3.321
 6133TIP3   OH218343   0.187   4.289   0.083
 6133TIP3    H118344   0.196   4.258   0.172
 6133TIP3    H218345   0.106   4.248   0.051
 6134TIP3   OH218346   3.474   2.362   0.376
 6134TIP3    H118347   3.529   2.357   0.455
 6134TIP3    H218348   3.487   2.452   0.344
 6135TIP3   OH218349   0.114   5.629   4.518
 6135TIP3    H118350   0.141   5.543   4.549
 6135TIP3    H218351   0.161   5.691   4.573
 6136TIP3   OH218352   6.464   3.653   3.495
 6136TIP3    H118353   6.384   3.706   3.493
 6136TIP3    H218354   6.535   3.717   3.495
 6137TIP3   OH218355   5.115   2.568   0.066
 6137TIP3    H118356   5.173   2.501   0.102
 6137TIP3    H218357   5.043   2.572   0.128
 6138TIP3   OH218358   1.156   6.327   5.771
 6138TIP3    H118359   1.190   6.248   5.729
 6138TIP3    H218360   1.112   6.296   5.850
 6139TIP3   OH218361   5.666   2.299   6.645
 6139TIP3    H118362   5.664   2.254   6.561
 6139TIP3    H218363   5.577   2.294   6.678
 6140TIP3   OH218364   1.248   3.238   3.726
 6140TIP3    H118365   1.259   3.183   3.648
 6140TIP3    H218366   1.165   3.283   3.711
 6141TIP3   OH218367   4.057   4.432   2.397
 6141TIP3    H118368   4.096   4.513   2.365
 6141TIP3    H218369   4.015   4.457   2.480
 6142TIP3   OH218370   6.624   2.677   3.008
 6142TIP3    H118371   6.540   2.647   2.972
 6142TIP3    H218372   6.634   2.766   2.975
 6143TIP3   OH218373   4.228   4.919   0.071
 6143TIP3    H118374   4.161   4.986   0.060
 6143TIP3    H218375   4.258   4.929   0.161
 6144TIP3   OH218376   6.276   6.441   0.481
 6144TIP3    H118377   6.243   6.493   0.408
 6144TIP3    H218378   6.205   6.443   0.545
 6145TIP3   OH218379   4.549   0.080   1.820
 6145TIP3    H118380   4.545   0.151   1.756
 6145TIP3    H218381   4.465   0.034   1.810
 6146TIP3   OH218382   6.347   2.747   1.465
 6146TIP3    H118383   6.419   2.809   1.475
 6146TIP3    H218384   6.292   2.762   1.542
 6147TIP3   OH218385   2.732   2.937   6.004
 6147TIP3    H118386   2.794   2.892   5.945
 6147TIP3    H218387   2.772   3.022   6.020
 6148TIP3   OH218388   5.638   1.194   0.447
 6148TIP3    H118389   5.590   1.117   0.477
 6148TIP3    H218390   5.695   1.217   0.520
 6149TIP3   OH218391   4.554   3.244   1.225
 6149TIP3    H118392   4.564   3.304   1.152
 6149TIP3    H218393   4.521   3.299   1.297
 6150TIP3   OH218394   1.542   2.502   5.281
 6150TIP3    H118395   1.623   2.533   5.240
 6150TIP3    H218396   1.558   2.409   5.298
 6151TIP3   OH218397   6.738   7.116   0.705
 6151TIP3    H118398   6.692   7.200   0.705
 6151TIP3    H218399   6.692   7.063   0.770
 6152TIP3   OH218400   7.424   3.976   2.700
 6152TIP3    H118401   7.420   4.024   2.617
 6152TIP3    H218402   7.395   3.887   2.678
 6153TIP3   OH218403   4.769   5.496   3.259
 6153TIP3    H118404   4.686   5.521   3.299
 6153TIP3    H218405   4.772   5.546   3.178
 6154TIP3   OH218406   7.029   7.465   5.983
 6154TIP3    H118407   6.936   7.475   5.964
 6154TIP3    H218408   7.063   7.416   5.909
 6155TIP3   OH218409   0.920   5.169   4.039
 6155TIP3    H118410   0.852   5.236   4.036
 6155TIP3    H218411   0.940   5.152   3.947
 6156TIP3   OH218412   7.153   5.631   3.979
 6156TIP3    H118413   7.117   5.595   4.060
 6156TIP3    H218414   7.242   5.656   4.000
 6157TIP3   OH218415   7.522   6.352   0.505
 6157TIP3    H118416   7.515   6.343   0.600
 6157TIP3    H218417   7.616   6.346   0.488
 6158TIP3   OH218418   1.338   5.826   2.308
 6158TIP3    H118419   1.355   5.839   2.214
 6158TIP3    H218420   1.247   5.851   2.319
 6159TIP3   OH218421   1.031   7.561   3.462
 6159TIP3    H118422   1.116   7.602   3.479
 6159TIP3    H218423   0.972   7.635   3.446
 6160TIP3   OH218424   4.840   6.441   1.178
 6160TIP3    H118425   4.870   6.496   1.251
 6160TIP3    H218426   4.830   6.501   1.105
 6161TIP3   OH218427   1.139   3.178   4.073
 6161TIP3    H118428   1.122   3.271   4.092
 6161TIP3    H218429   1.222   3.178   4.027
 6162TIP3   OH218430   4.879   7.680   4.413
 6162TIP3    H118431   4.883   7.594   4.372
 6162TIP3    H218432   4.802   7.676   4.470
 6163TIP3   OH218433   3.138   1.183   1.664
 6163TIP3    H118434   3.131   1.201   1.571
 6163TIP3    H218435   3.232   1.177   1.681
 6164TIP3   OH218436   6.528   6.795   1.352
 6164TIP3    H118437   6.564   6.724   1.405
 6164TIP3    H218438   6.446   6.818   1.396
 6165TIP3   OH218439   5.188   2.907   1.234
 6165TIP3    H118440   5.146   2.828   1.268
 6165TIP3    H218441   5.121   2.947   1.177
 6166TIP3   OH218442   1.006   2.923   6.110
 6166TIP3    H118443   1.011   2.961   6.197
 6166TIP3    H218444   0.964   2.990   6.056
 6167TIP3   OH218445   7.694   2.561   6.699
 6167TIP3    H118446   7.624   2.497   6.712
 6167TIP3    H218447   7.748   2.554   6.777
 6168TIP3   OH218448   1.139   1.266   5.574
 6168TIP3    H118449   1.194   1.275   5.652
 6168TIP3    H218450   1.116   1.173   5.571
 6169TIP3   OH218451   4.947   0.543   1.302
 6169TIP3    H118452   4.997   0.483   1.358
 6169TIP3    H218453   4.869   0.564   1.353
 6170TIP3   OH218454   0.671   2.403   6.139
 6170TIP3    H118455   0.594   2.438   6.094
 6170TIP3    H218456   0.742   2.412   6.076
 6171TIP3   OH218457   0.281   6.315   1.308
 6171TIP3    H118458   0.195   6.357   1.316
 6171TIP3    H218459   0.336   6.360   1.372
 6172TIP3   OH218460   3.297   4.160   3.903
 6172TIP3    H118461   3.278   4.067   3.912
 6172TIP3    H218462   3.350   4.181   3.980
 6173TIP3   OH218463   6.161   7.283   3.268
 6173TIP3    H118464   6.096   7.276   3.199
 6173TIP3    H218465   6.201   7.369   3.254
 6174TIP3   OH218466   3.441   6.609   1.818
 6174TIP3    H118467   3.392   6.528   1.814
 6174TIP3    H218468   3.375   6.677   1.831
 6175TIP3   OH218469   7.025   4.004   3.306
 6175TIP3    H118470   7.092   3.993   3.239
 6175TIP3    H218471   7.068   3.982   3.388
 6176TIP3   OH218472   2.909   1.526   1.518
 6176TIP3    H118473   2.938   1.569   1.437
 6176TIP3    H218474   2.991   1.506   1.564
 6177TIP3   OH218475   3.378   1.268   1.806
 6177TIP3    H118476   3.468   1.271   1.838
 6177TIP3    H218477   3.326   1.306   1.877
 6178TIP3   OH218478   0.115   7.350   1.616
 6178TIP3    H118479   0.077   7.262   1.611
 6178TIP3    H218480   0.074   7.389   1.693
 6179TIP3   OH218481   1.498   1.169   5.517
 6179TIP3    H118482   1.488   1.129   5.430
 6179TIP3    H218483   1.470   1.101   5.578
 6180TIP3   OH218484   2.805   0.849   2.611
 6180TIP3    H118485   2.772   0.767   2.648
 6180TIP3    H218486   2.841   0.896   2.686
 6181TIP3   OH218487   6.213   5.484   1.909
 6181TIP3    H118488   6.122   5.461   1.890
 6181TIP3    H218489   6.217   5.579   1.896
 6182TIP3   OH218490   2.302   5.075   6.316
 6182TIP3    H118491   2.348   5.019   6.254
 6182TIP3    H218492   2.210   5.050   6.307
 6183TIP3   OH218493   6.189   1.118   3.472
 6183TIP3    H118494   6.176   1.171   3.551
 6183TIP3    H218495   6.283   1.119   3.458
 6184TIP3   OH218496   5.899   5.652   2.230
 6184TIP3    H118497   5.829   5.701   2.273
 6184TIP3    H218498   5.857   5.614   2.152
 6185TIP3   OH218499   0.676   1.351   0.098
 6185TIP3    H118500   0.725   1.397   0.030
 6185TIP3    H218501   0.713   1.263   0.100
 6186TIP3   OH218502   1.461   3.919   6.410
 6186TIP3    H118503   1.437   3.991   6.468
 6186TIP3    H218504   1.461   3.957   6.322
 6187TIP3   OH218505   5.882   3.465   1.442
 6187TIP3    H118506   5.870   3.474   1.347
 6187TIP3    H218507   5.800   3.496   1.479
 6188TIP3   OH218508   3.798   5.905   3.683
 6188TIP3    H118509   3.720   5.863   3.718
 6188TIP3    H218510   3.811   5.981   3.739
 6189TIP3   OH218511   2.204   3.832   1.025
 6189TIP3    H118512   2.257   3.910   1.039
 6189TIP3    H218513   2.217   3.779   1.104
 6190TIP3   OH218514   0.453   7.518   1.563
 6190TIP3    H118515   0.528   7.467   1.593
 6190TIP3    H218516   0.385   7.452   1.545
 6191TIP3   OH218517   0.747   0.428   3.587
 6191TIP3    H118518   0.780   0.466   3.506
 6191TIP3    H218519   0.653   0.444   3.584
 6192TIP3   OH218520   1.777   7.223   5.646
 6192TIP3    H118521   1.693   7.219   5.691
 6192TIP3    H218522   1.812   7.310   5.666
 6193TIP3   OH218523   4.902   1.300   5.191
 6193TIP3    H118524   4.840   1.280   5.120
 6193TIP3    H218525   4.965   1.360   5.151
 6194TIP3   OH218526   5.969   6.787   1.386
 6194TIP3    H118527   6.035   6.723   1.413
 6194TIP3    H218528   5.914   6.800   1.463
 6195TIP3   OH218529   6.933   7.539   0.060
 6195TIP3    H118530   6.904   7.485  -0.013
 6195TIP3    H218531   7.012   7.495   0.092
 6196TIP3   OH218532   2.380   3.870   4.216
 6196TIP3    H118533   2.347   3.902   4.132
 6196TIP3    H218534   2.446   3.805   4.191
 6197TIP3   OH218535   3.536   0.030   2.131
 6197TIP3    H118536   3.562   0.014   2.221
 6197TIP3    H218537   3.611   0.077   2.093
 6198TIP3   OH218538   5.523   5.733   3.145
 6198TIP3    H118539   5.557   5.746   3.233
 6198TIP3    H218540   5.584   5.672   3.104
 6199TIP3   OH218541   8.084   0.558   6.508
 6199TIP3    H118542   8.173   0.593   6.517
 6199TIP3    H218543   8.050   0.555   6.597
 6200TIP3   OH218544   7.026   4.605   3.830
 6200TIP3    H118545   7.061   4.516   3.830
 6200TIP3    H218546   7.103   4.661   3.826
 6201TIP3   OH218547   1.471   2.857   6.365
 6201TIP3    H118548   1.513   2.898   6.441
 6201TIP3    H218549   1.384   2.832   6.397
 6202TIP3   OH218550   5.297   4.071   2.813
 6202TIP3    H118551   5.300   4.022   2.895
 6202TIP3    H218552   5.204   4.073   2.790
 6203TIP3   OH218553   2.637   3.275   3.534
 6203TIP3    H118554   2.713   3.241   3.487
 6203TIP3    H218555   2.564   3.222   3.504
 6204TIP3   OH218556   6.800   2.453   1.192
 6204TIP3    H118557   6.833   2.499   1.115
 6204TIP3    H218558   6.823   2.361   1.177
 6205TIP3   OH218559   0.244   6.562   4.279
 6205TIP3    H118560   0.155   6.537   4.306
 6205TIP3    H218561   0.290   6.479   4.272
 6206TIP3   OH218562   3.036   7.204   4.706
 6206TIP3    H118563   2.996   7.290   4.694
 6206TIP3    H218564   2.979   7.158   4.767
 6207TIP3   OH218565   7.217   4.114   4.276
 6207TIP3    H118566   7.155   4.136   4.207
 6207TIP3    H218567   7.291   4.074   4.231
 6208TIP3   OH218568   5.032   0.247   1.182
 6208TIP3    H118569   5.085   0.186   1.131
 6208TIP3    H218570   4.992   0.194   1.251
 6209TIP3   OH218571   4.229   2.855   6.204
 6209TIP3    H118572   4.321   2.879   6.218
 6209TIP3    H218573   4.227   2.760   6.218
 6210TIP3   OH218574   0.090   7.604   4.193
 6210TIP3    H118575   0.135   7.629   4.112
 6210TIP3    H218576   0.101   7.509   4.197
 6211TIP3   OH218577   6.286   6.929   2.309
 6211TIP3    H118578   6.363   6.908   2.255
 6211TIP3    H218579   6.318   6.927   2.399
 6212TIP3   OH218580   2.350   0.793   4.648
 6212TIP3    H118581   2.307   0.877   4.630
 6212TIP3    H218582   2.394   0.805   4.731
 6213TIP3   OH218583   3.084   1.199   2.723
 6213TIP3    H118584   3.159   1.146   2.697
 6213TIP3    H218585   3.120   1.264   2.783
 6214TIP3   OH218586   1.027   0.785   2.737
 6214TIP3    H118587   0.985   0.781   2.651
 6214TIP3    H218588   1.042   0.693   2.761
 6215TIP3   OH218589   0.641   5.103   3.326
 6215TIP3    H118590   0.605   5.015   3.320
 6215TIP3    H218591   0.654   5.130   3.235
 6216TIP3   OH218592   2.245   2.443   5.823
 6216TIP3    H118593   2.167   2.481   5.783
 6216TIP3    H218594   2.305   2.428   5.750
 6217TIP3   OH218595   3.995   0.911   1.736
 6217TIP3    H118596   4.007   0.956   1.819
 6217TIP3    H218597   3.929   0.963   1.690
 6218TIP3   OH218598   5.962   7.343   0.650
 6218TIP3    H118599   6.033   7.327   0.589
 6218TIP3    H218600   5.962   7.266   0.708
 6219TIP3   OH218601   5.805   1.389   6.330
 6219TIP3    H118602   5.738   1.430   6.385
 6219TIP3    H218603   5.868   1.352   6.392
 6220TIP3   OH218604   0.868   0.786   3.970
 6220TIP3    H118605   0.940   0.808   3.910
 6220TIP3    H218606   0.912   0.753   4.048
 6221TIP3   OH218607   1.822   2.425   4.661
 6221TIP3    H118608   1.777   2.488   4.717
 6221TIP3    H218609   1.835   2.348   4.715
 6222TIP3   OH218610   5.241   3.819   4.154
 6222TIP3    H118611   5.168   3.881   4.145
 6222TIP3    H218612   5.276   3.810   4.065
 6223TIP3   OH218613   6.790   4.560   3.701
 6223TIP3    H118614   6.748   4.539   3.785
 6223TIP3    H218615   6.883   4.568   3.722
 6224TIP3   OH218616   7.299   3.457   1.904
 6224TIP3    H118617   7.323   3.519   1.972
 6224TIP3    H218618   7.246   3.391   1.948
 6225TIP3   OH218619   7.636   7.258   1.083
 6225TIP3    H118620   7.547   7.284   1.062
 6225TIP3    H218621   7.643   7.267   1.178
 6226TIP3   OH218622   0.511   1.785   2.451
 6226TIP3    H118623   0.558   1.720   2.399
 6226TIP3    H218624   0.494   1.857   2.390
 6227TIP3   OH218625   7.724   3.738   3.316
 6227TIP3    H118626   7.632   3.729   3.342
 6227TIP3    H218627   7.723   3.807   3.250
 6228TIP3   OH218628   0.160   4.322   0.886
 6228TIP3    H118629   0.213   4.381   0.831
 6228TIP3    H218630   0.164   4.361   0.974
 6229TIP3   OH218631   0.912   6.899   3.974
 6229TIP3    H118632   0.948   6.890   3.886
 6229TIP3    H218633   0.985   6.934   4.026
 6230TIP3   OH218634   8.146   1.156   2.778
 6230TIP3    H118635   8.200   1.145   2.856
 6230TIP3    H218636   8.205   1.134   2.705
 6231TIP3   OH218637   3.830   6.530   0.546
 6231TIP3    H118638   3.782   6.601   0.589
 6231TIP3    H218639   3.764   6.463   0.528
 6232TIP3   OH218640   7.342   2.118   2.122
 6232TIP3    H118641   7.423   2.082   2.085
 6232TIP3    H218642   7.353   2.213   2.115
 6233TIP3   OH218643   4.977   7.345   0.470
 6233TIP3    H118644   4.983   7.373   0.561
 6233TIP3    H218645   4.935   7.418   0.425
 6234TIP3   OH218646   2.206   4.732   1.960
 6234TIP3    H118647   2.231   4.668   1.893
 6234TIP3    H218648   2.120   4.763   1.931
 6235TIP3   OH218649   4.458   4.534   1.206
 6235TIP3    H118650   4.524   4.601   1.191
 6235TIP3    H218651   4.456   4.521   1.300
 6236TIP3   OH218652   6.219   2.165   2.950
 6236TIP3    H118653   6.172   2.083   2.936
 6236TIP3    H218654   6.196   2.218   2.873
 6237TIP3   OH218655   3.676   2.114   2.414
 6237TIP3    H118656   3.655   2.129   2.507
 6237TIP3    H218657   3.659   2.021   2.401
 6238TIP3   OH218658   3.128   3.802   3.323
 6238TIP3    H118659   3.115   3.804   3.418
 6238TIP3    H218660   3.059   3.859   3.288
 6239TIP3   OH218661   3.434   4.888   2.425
 6239TIP3    H118662   3.426   4.977   2.459
 6239TIP3    H218663   3.492   4.896   2.350
 6240TIP3   OH218664   5.588   2.777   5.733
 6240TIP3    H118665   5.633   2.752   5.814
 6240TIP3    H218666   5.516   2.715   5.725
 6241TIP3   OH218667   6.635   2.745   2.072
 6241TIP3    H118668   6.622   2.655   2.043
 6241TIP3    H218669   6.715   2.743   2.125
 6242TIP3   OH218670   6.452   2.213   4.362
 6242TIP3    H118671   6.409   2.131   4.340
 6242TIP3    H218672   6.511   2.191   4.435
 6243TIP3   OH218673   4.555   2.296   4.236
 6243TIP3    H118674   4.605   2.326   4.160
 6243TIP3    H218675   4.588   2.208   4.253
 6244TIP3   OH218676   0.237   3.411   2.495
 6244TIP3    H118677   0.268   3.348   2.560
 6244TIP3    H218678   0.302   3.482   2.498
 6245TIP3   OH218679   7.801   3.172   0.880
 6245TIP3    H118680   7.887   3.206   0.855
 6245TIP3    H218681   7.779   3.221   0.960
 6246TIP3   OH218682   0.330   0.440   1.047
 6246TIP3    H118683   0.403   0.412   0.992
 6246TIP3    H218684   0.323   0.372   1.114
 6247TIP3   OH218685   4.219   2.303   0.233
 6247TIP3    H118686   4.223   2.398   0.237
 6247TIP3    H218687   4.168   2.278   0.311
 6248TIP3   OH218688   2.775   3.117   0.793
 6248TIP3    H118689   2.775   3.198   0.845
 6248TIP3    H218690   2.862   3.116   0.752
 6249TIP3   OH218691   5.898   2.461   3.994
 6249TIP3    H118692   5.920   2.549   3.962
 6249TIP3    H218693   5.960   2.403   3.949
 6250TIP3   OH218694   5.309   0.165   0.552
 6250TIP3    H118695   5.317   0.069   0.555
 6250TIP3    H218696   5.259   0.188   0.630
 6251TIP3   OH218697   3.155   2.831   0.511
 6251TIP3    H118698   3.190   2.775   0.441
 6251TIP3    H218699   3.206   2.911   0.505
 6252TIP3   OH218700   3.928   1.459   2.677
 6252TIP3    H118701   4.019   1.487   2.680
 6252TIP3    H218702   3.879   1.530   2.718
 6253TIP3   OH218703   0.798   3.667   4.430
 6253TIP3    H118704   0.737   3.741   4.430
 6253TIP3    H218705   0.756   3.601   4.376
 6254TIP3   OH218706   0.160   6.716   2.133
 6254TIP3    H118707   0.222   6.770   2.183
 6254TIP3    H218708   0.127   6.775   2.065
 6255TIP3   OH218709   3.249   4.855   0.589
 6255TIP3    H118710   3.181   4.864   0.656
 6255TIP3    H218711   3.331   4.858   0.637
 6256TIP3   OH218712   6.182   2.572   2.655
 6256TIP3    H118713   6.117   2.620   2.705
 6256TIP3    H218714   6.159   2.589   2.563
 6257TIP3   OH218715   1.128   0.554   5.596
 6257TIP3    H118716   1.090   0.564   5.508
 6257TIP3    H218717   1.064   0.596   5.654
 6258TIP3   OH218718   5.555   1.521   4.462
 6258TIP3    H118719   5.575   1.604   4.505
 6258TIP3    H218720   5.526   1.546   4.374
 6259TIP3   OH218721   5.203   2.361   1.883
 6259TIP3    H118722   5.192   2.408   1.966
 6259TIP3    H218723   5.241   2.277   1.907
 6260TIP3   OH218724   7.423   3.954   3.685
 6260TIP3    H118725   7.354   3.952   3.751
 6260TIP3    H218726   7.501   3.924   3.731
 6261TIP3   OH218727   4.988   2.962   4.054
 6261TIP3    H118728   4.971   3.054   4.036
 6261TIP3    H218729   4.927   2.939   4.124
 6262TIP3   OH218730   0.995   2.628   1.112
 6262TIP3    H118731   0.919   2.574   1.134
 6262TIP3    H218732   0.966   2.683   1.040
 6263TIP3   OH218733   0.275   6.712   3.679
 6263TIP3    H118734   0.198   6.703   3.623
 6263TIP3    H218735   0.249   6.673   3.762
 6264TIP3   OH218736   1.286   4.381   0.793
 6264TIP3    H118737   1.369   4.339   0.814
 6264TIP3    H218738   1.269   4.439   0.867
 6265TIP3   OH218739   1.289   3.053   4.988
 6265TIP3    H118740   1.265   3.091   4.903
 6265TIP3    H218741   1.207   3.048   5.037
 6266TIP3   OH218742   4.767   4.947   3.422
 6266TIP3    H118743   4.793   5.034   3.452
 6266TIP3    H218744   4.701   4.964   3.354
 6267TIP3   OH218745   3.315   3.037   0.468
 6267TIP3    H118746   3.397   3.006   0.429
 6267TIP3    H218747   3.313   3.131   0.446
 6268TIP3   OH218748   3.417   3.123   3.168
 6268TIP3    H118749   3.471   3.109   3.090
 6268TIP3    H218750   3.445   3.056   3.230
 6269TIP3   OH218751   8.097   7.596   4.270
 6269TIP3    H118752   8.187   7.611   4.243
 6269TIP3    H218753   8.061   7.539   4.202
 6270TIP3   OH218754   4.804   0.325   3.812
 6270TIP3    H118755   4.872   0.366   3.865
 6270TIP3    H218756   4.727   0.323   3.870
 6271TIP3   OH218757   7.645   3.852   3.805
 6271TIP3    H118758   7.684   3.782   3.857
 6271TIP3    H218759   7.687   3.933   3.837
 6272TIP3   OH218760   5.212   0.831   1.422
 6272TIP3    H118761   5.226   0.922   1.450
 6272TIP3    H218762   5.118   0.818   1.429
 6273TIP3   OH218763   2.410   5.732   0.699
 6273TIP3    H118764   2.325   5.708   0.663
 6273TIP3    H218765   2.391   5.800   0.763
 6274TIP3   OH218766   2.367   5.314   2.657
 6274TIP3    H118767   2.356   5.405   2.683
 6274TIP3    H218768   2.281   5.289   2.622
 6275TIP3   OH218769   0.277   1.787   0.372
 6275TIP3    H118770   0.314   1.699   0.375
 6275TIP3    H218771   0.349   1.844   0.346
 6276TIP3   OH218772   2.706   7.442   3.139
 6276TIP3    H118773   2.650   7.368   3.163
 6276TIP3    H218774   2.745   7.471   3.222
 6277TIP3   OH218775   0.481   2.754   2.535
 6277TIP3    H118776   0.433   2.827   2.575
 6277TIP3    H218777   0.573   2.781   2.540
 6278TIP3   OH218778   4.799   2.834   3.924
 6278TIP3    H118779   4.873   2.884   3.958
 6278TIP3    H218780   4.723   2.864   3.974
 6279TIP3   OH218781   6.530   6.672   4.733
 6279TIP3    H118782   6.558   6.759   4.762
 6279TIP3    H218783   6.565   6.665   4.644
 6280TIP3   OH218784   3.075   1.570   6.146
 6280TIP3    H118785   3.005   1.634   6.158
 6280TIP3    H218786   3.034   1.486   6.163
 6281TIP3   OH218787   2.265   3.168   6.376
 6281TIP3    H118788   2.241   3.106   6.307
 6281TIP3    H218789   2.189   3.225   6.385
 6282TIP3   OH218790   7.421   5.119   0.411
 6282TIP3    H118791   7.451   5.182   0.346
 6282TIP3    H218792   7.496   5.061   0.425
 6283TIP3   OH218793   0.308   1.393   3.451
 6283TIP3    H118794   0.389   1.344   3.468
 6283TIP3    H218795   0.294   1.443   3.531
 6284TIP3   OH218796   5.571   1.382   2.530
 6284TIP3    H118797   5.538   1.430   2.454
 6284TIP3    H218798   5.659   1.353   2.505
 6285TIP3   OH218799   7.592   6.198   3.016
 6285TIP3    H118800   7.622   6.203   3.107
 6285TIP3    H218801   7.670   6.215   2.964
 6286TIP3   OH218802   0.404   2.602   0.656
 6286TIP3    H118803   0.445   2.683   0.686
 6286TIP3    H218804   0.478   2.547   0.629
 6287TIP3   OH218805   6.495   6.158   4.480
 6287TIP3    H118806   6.420   6.198   4.525
 6287TIP3    H218807   6.536   6.103   4.547
 6288TIP3   OH218808   1.046   1.034   2.541
 6288TIP3    H118809   1.010   1.029   2.630
 6288TIP3    H218810   0.970   1.040   2.484
 6289TIP3   OH218811   4.353   1.385   4.369
 6289TIP3    H118812   4.319   1.296   4.368
 6289TIP3    H218813   4.280   1.438   4.334
 6290TIP3   OH218814   3.188   6.118   2.707
 6290TIP3    H118815   3.247   6.056   2.751
 6290TIP3    H218816   3.196   6.199   2.758
 6291TIP3   OH218817   4.866   4.898   1.486
 6291TIP3    H118818   4.883   4.950   1.408
 6291TIP3    H218819   4.787   4.936   1.524
 6292TIP3   OH218820   7.838   2.700   1.597
 6292TIP3    H118821   7.925   2.694   1.559
 6292TIP3    H218822   7.833   2.625   1.657
 6293TIP3   OH218823   4.106   2.471   1.793
 6293TIP3    H118824   4.142   2.552   1.828
 6293TIP3    H218825   4.055   2.434   1.866
 6294TIP3   OH218826   1.861   6.933   5.348
 6294TIP3    H118827   1.902   7.004   5.397
 6294TIP3    H218828   1.767   6.945   5.363
 6295TIP3   OH218829   5.571   1.229   5.487
 6295TIP3    H118830   5.524   1.299   5.533
 6295TIP3    H218831   5.516   1.151   5.499
 6296TIP3   OH218832   5.793   3.477   0.749
 6296TIP3    H118833   5.844   3.416   0.695
 6296TIP3    H218834   5.721   3.505   0.693
 6297TIP3   OH218835   3.930   6.750   5.522
 6297TIP3    H118836   3.884   6.728   5.602
 6297TIP3    H218837   4.021   6.724   5.538
 6298TIP3   OH218838   5.075   7.384   1.266
 6298TIP3    H118839   4.994   7.431   1.287
 6298TIP3    H218840   5.140   7.453   1.251
 6299TIP3   OH218841   0.663   4.744   5.844
 6299TIP3    H118842   0.735   4.699   5.889
 6299TIP3    H218843   0.585   4.696   5.873
 6300TIP3   OH218844   2.635   4.725   1.925
 6300TIP3    H118845   2.713   4.736   1.979
 6300TIP3    H218846   2.628   4.630   1.912
 6301TIP3   OH218847   1.200   4.161   1.895
 6301TIP3    H118848   1.159   4.225   1.836
 6301TIP3    H218849   1.289   4.196   1.908
 6302TIP3   OH218850   5.690   3.480   4.145
 6302TIP3    H118851   5.705   3.428   4.066
 6302TIP3    H218852   5.620   3.541   4.120
 6303TIP3   OH218853   5.186   2.218   2.548
 6303TIP3    H118854   5.110   2.168   2.520
 6303TIP3    H218855   5.218   2.260   2.468
 6304TIP3   OH218856   6.469   0.235   5.791
 6304TIP3    H118857   6.551   0.204   5.753
 6304TIP3    H218858   6.410   0.244   5.716
 6305TIP3   OH218859   4.805   1.057   3.175
 6305TIP3    H118860   4.819   1.104   3.257
 6305TIP3    H218861   4.743   0.987   3.198
 6306TIP3   OH218862   0.288   0.211   1.733
 6306TIP3    H118863   0.373   0.179   1.763
 6306TIP3    H218864   0.288   0.304   1.755
 6307TIP3   OH218865   5.042   5.047   5.909
 6307TIP3    H118866   5.089   5.115   5.860
 6307TIP3    H218867   5.095   4.968   5.896
 6308TIP3   OH218868   0.869   5.973   2.374
 6308TIP3    H118869   0.823   6.045   2.331
 6308TIP3    H218870   0.890   6.007   2.462
 6309TIP3   OH218871   6.269   4.256   2.608
 6309TIP3    H118872   6.224   4.176   2.633
 6309TIP3    H218873   6.248   4.268   2.516
 6310TIP3   OH218874   1.917   2.023   3.621
 6310TIP3    H118875   1.937   2.021   3.715
 6310TIP3    H218876   1.975   2.090   3.585
 6311TIP3   OH218877   6.317   6.725   1.870
 6311TIP3    H118878   6.293   6.674   1.793
 6311TIP3    H218879   6.254   6.698   1.937
 6312TIP3   OH218880   5.685   3.734   4.806
 6312TIP3    H118881   5.693   3.829   4.802
 6312TIP3    H218882   5.773   3.702   4.787
 6313TIP3   OH218883   1.501   3.554   5.049
 6313TIP3    H118884   1.583   3.521   5.086
 6313TIP3    H218885   1.466   3.479   5.000
 6314TIP3   OH218886   0.143   5.167   0.980
 6314TIP3    H118887   0.063   5.117   0.959
 6314TIP3    H218888   0.189   5.173   0.896
 6315TIP3   OH218889   6.902   5.345   2.925
 6315TIP3    H118890   6.911   5.250   2.932
 6315TIP3    H218891   6.974   5.373   2.869
 6316TIP3   OH218892   0.848   6.010   4.825
 6316TIP3    H118893   0.891   5.954   4.761
 6316TIP3    H218894   0.920   6.054   4.870
 6317TIP3   OH218895   2.068   0.306   6.558
 6317TIP3    H118896   2.027   0.353   6.485
 6317TIP3    H218897   2.110   0.230   6.518
 6318TIP3   OH218898   5.748   7.015   6.628
 6318TIP3    H118899   5.666   7.053   6.658
 6318TIP3    H218900   5.803   7.012   6.706
 6319TIP3   OH218901   5.893   2.782   4.512
 6319TIP3    H118902   5.982   2.809   4.534
 6319TIP3    H218903   5.900   2.744   4.424
 6320TIP3   OH218904   5.433   5.298   5.040
 6320TIP3    H118905   5.395   5.351   5.111
 6320TIP3    H218906   5.401   5.210   5.056
 6321TIP3   OH218907   1.051   4.595   0.588
 6321TIP3    H118908   0.997   4.671   0.570
 6321TIP3    H218909   1.141   4.627   0.583
 6322TIP3   OH218910   4.925   1.795   0.522
 6322TIP3    H118911   5.019   1.776   0.521
 6322TIP3    H218912   4.915   1.871   0.463
 6323TIP3   OH218913   1.248   0.096   2.631
 6323TIP3    H118914   1.300   0.110   2.710
 6323TIP3    H218915   1.274   0.167   2.573
 6324TIP3   OH218916   2.249   0.034   3.778
 6324TIP3    H118917   2.265   0.112   3.726
 6324TIP3    H218918   2.170   0.054   3.829
 6325TIP3   OH218919   1.371   5.026   2.360
 6325TIP3    H118920   1.348   4.960   2.295
 6325TIP3    H218921   1.317   5.102   2.336
 6326TIP3   OH218922   1.198   7.755   1.331
 6326TIP3    H118923   1.144   7.811   1.387
 6326TIP3    H218924   1.275   7.807   1.312
 6327TIP3   OH218925   1.898   0.850   2.944
 6327TIP3    H118926   1.936   0.824   3.028
 6327TIP3    H218927   1.974   0.873   2.889
 6328TIP3   OH218928   4.300   5.279   2.501
 6328TIP3    H118929   4.396   5.275   2.495
 6328TIP3    H218930   4.269   5.233   2.423
 6329TIP3   OH218931   0.125   0.680   1.788
 6329TIP3    H118932   0.075   0.641   1.716
 6329TIP3    H218933   0.060   0.731   1.837
 6330TIP3   OH218934   0.257   1.779   4.766
 6330TIP3    H118935   0.204   1.770   4.687
 6330TIP3    H218936   0.326   1.841   4.742
 6331TIP3   OH218937   0.203   7.006   2.800
 6331TIP3    H118938   0.209   7.101   2.798
 6331TIP3    H218939   0.246   6.977   2.719
 6332TIP3   OH218940   0.927   5.490   6.620
 6332TIP3    H118941   0.958   5.446   6.541
 6332TIP3    H218942   0.974   5.448   6.692
 6333TIP3   OH218943   0.816   5.167   1.928
 6333TIP3    H118944   0.791   5.105   1.996
 6333TIP3    H218945   0.911   5.177   1.938
 6334TIP3   OH218946   1.848   3.493   0.224
 6334TIP3    H118947   1.815   3.530   0.142
 6334TIP3    H218948   1.821   3.401   0.222
 6335TIP3   OH218949   4.655   6.519   6.049
 6335TIP3    H118950   4.616   6.565   5.974
 6335TIP3    H218951   4.690   6.438   6.012
 6336TIP3   OH218952   7.294   7.268   4.597
 6336TIP3    H118953   7.227   7.301   4.536
 6336TIP3    H218954   7.347   7.345   4.619
 6337TIP3   OH218955   2.106   1.642   2.733
 6337TIP3    H118956   2.133   1.683   2.816
 6337TIP3    H218957   2.010   1.650   2.733
 6338TIP3   OH218958   5.520   0.047   5.628
 6338TIP3    H118959   5.596   0.035   5.685
 6338TIP3    H218960   5.480  -0.039   5.621
 6339TIP3   OH218961   2.485   4.238   0.310
 6339TIP3    H118962   2.569   4.202   0.339
 6339TIP3    H218963   2.481   4.215   0.217
 6340TIP3   OH218964   3.363   3.014   0.021
 6340TIP3    H118965   3.307   3.088   0.045
 6340TIP3    H218966   3.418   3.048  -0.050
 6341TIP3   OH218967   6.220   5.505   5.374
 6341TIP3    H118968   6.218   5.571   5.304
 6341TIP3    H218969   6.309   5.470   5.370
 6342TIP3   OH218970   7.510   7.243   1.765
 6342TIP3    H118971   7.459   7.174   1.808
 6342TIP3    H218972   7.458   7.269   1.689
 6343TIP3   OH218973   3.684   4.493   5.690
 6343TIP3    H118974   3.602   4.505   5.738
 6343TIP3    H218975   3.728   4.421   5.736
 6344TIP3   OH218976   0.413   1.280   4.772
 6344TIP3    H118977   0.481   1.262   4.707
 6344TIP3    H218978   0.409   1.201   4.825
 6345TIP3   OH218979   4.725   3.123   3.772
 6345TIP3    H118980   4.660   3.166   3.827
 6345TIP3    H218981   4.804   3.119   3.826
 6346TIP3   OH218982   0.695   1.267   5.930
 6346TIP3    H118983   0.602   1.286   5.939
 6346TIP3    H218984   0.699   1.171   5.920
 6347TIP3   OH218985   1.963   4.500   1.880
 6347TIP3    H118986   1.929   4.583   1.847
 6347TIP3    H218987   1.887   4.442   1.881
 6348TIP3   OH218988   1.904   0.745   1.283
 6348TIP3    H118989   1.813   0.725   1.264
 6348TIP3    H218990   1.929   0.809   1.216
 6349TIP3   OH218991   7.080   1.725   2.686
 6349TIP3    H118992   7.027   1.665   2.738
 6349TIP3    H218993   7.101   1.797   2.746
 6350TIP3   OH218994   3.496   6.792   2.128
 6350TIP3    H118995   3.447   6.720   2.168
 6350TIP3    H218996   3.568   6.749   2.083
 6351TIP3   OH218997   5.811   4.732   1.331
 6351TIP3    H118998   5.808   4.643   1.294
 6351TIP3    H218999   5.809   4.789   1.254
 6352TIP3   OH219000   3.368   2.351   6.000
 6352TIP3    H119001   3.436   2.324   6.061
 6352TIP3    H219002   3.413   2.363   5.916
 6353TIP3   OH219003   6.613   2.551   4.516
 6353TIP3    H119004   6.697   2.594   4.530
 6353TIP3    H219005   6.578   2.537   4.604
 6354TIP3   OH219006   4.523   5.528   0.042
 6354TIP3    H119007   4.524   5.444  -0.004
 6354TIP3    H219008   4.577   5.512   0.120
 6355TIP3   OH219009   1.959   7.600   1.789
 6355TIP3    H119010   1.953   7.627   1.880
 6355TIP3    H219011   2.006   7.671   1.745
 6356TIP3   OH219012   6.955   6.135   4.057
 6356TIP3    H119013   7.002   6.148   4.140
 6356TIP3    H219014   6.941   6.040   4.053
 6357TIP3   OH219015   1.861   1.684   4.406
 6357TIP3    H119016   1.912   1.623   4.458
 6357TIP3    H219017   1.920   1.709   4.334
 6358TIP3   OH219018   1.305   6.093   5.422
 6358TIP3    H119019   1.262   6.010   5.402
 6358TIP3    H219020   1.299   6.143   5.340
 6359TIP3   OH219021   3.802   6.956   3.627
 6359TIP3    H119022   3.813   6.928   3.718
 6359TIP3    H219023   3.891   6.962   3.592
 6360TIP3   OH219024   0.946   3.929   4.605
 6360TIP3    H119025   1.041   3.940   4.595
 6360TIP3    H219026   0.937   3.864   4.674
 6361TIP3   OH219027   6.160   0.940   4.743
 6361TIP3    H119028   6.148   0.907   4.654
 6361TIP3    H219029   6.124   0.871   4.799
 6362TIP3   OH219030   0.500   6.841   5.613
 6362TIP3    H119031   0.444   6.862   5.688
 6362TIP3    H219032   0.506   6.924   5.565
 6363TIP3   OH219033   0.218   0.050   4.795
 6363TIP3    H119034   0.185   0.004   4.872
 6363TIP3    H219035   0.210  -0.015   4.724
 6364TIP3   OH219036   6.106   5.790   2.399
 6364TIP3    H119037   6.052   5.752   2.329
 6364TIP3    H219038   6.043   5.824   2.463
 6365TIP3   OH219039   1.209   3.225   1.458
 6365TIP3    H119040   1.190   3.266   1.374
 6365TIP3    H219041   1.127   3.231   1.507
 6366TIP3   OH219042   6.868   3.684   1.915
 6366TIP3    H119043   6.812   3.755   1.948
 6366TIP3    H219044   6.919   3.725   1.845
 6367TIP3   OH219045   1.271   0.978   4.818
 6367TIP3    H119046   1.272   0.995   4.724
 6367TIP3    H219047   1.301   1.060   4.858
 6368TIP3   OH219048   0.467   1.632   6.039
 6368TIP3    H119049   0.395   1.678   5.995
 6368TIP3    H219050   0.462   1.661   6.130
 6369TIP3   OH219051   4.354   6.061   4.947
 6369TIP3    H119052   4.439   6.080   4.986
 6369TIP3    H219053   4.361   6.091   4.856
 6370TIP3   OH219054   2.374   6.698   4.468
 6370TIP3    H119055   2.311   6.626   4.464
 6370TIP3    H219056   2.443   6.672   4.407
 6371TIP3   OH219057   1.753   3.805   5.747
 6371TIP3    H119058   1.836   3.851   5.752
 6371TIP3    H219059   1.766   3.726   5.800
 6372TIP3   OH219060   4.570   2.976   3.959
 6372TIP3    H119061   4.476   2.967   3.945
 6372TIP3    H219062   4.584   3.070   3.964
 6373TIP3   OH219063   7.906   2.719   1.158
 6373TIP3    H119064   7.855   2.797   1.134
 6373TIP3    H219065   7.952   2.743   1.238
 6374TIP3   OH219066   3.660   2.275   3.513
 6374TIP3    H119067   3.587   2.293   3.572
 6374TIP3    H219068   3.738   2.286   3.568
 6375TIP3   OH219069   7.558   2.242   2.639
 6375TIP3    H119070   7.552   2.163   2.585
 6375TIP3    H219071   7.625   2.295   2.596
 6376TIP3   OH219072   5.328   2.179   4.991
 6376TIP3    H119073   5.335   2.241   5.064
 6376TIP3    H219074   5.283   2.228   4.923
 6377TIP3   OH219075   7.620   0.897   6.427
 6377TIP3    H119076   7.696   0.853   6.389
 6377TIP3    H219077   7.593   0.960   6.361
 6378TIP3   OH219078   1.743   1.865   6.189
 6378TIP3    H119079   1.749   1.790   6.247
 6378TIP3    H219080   1.718   1.938   6.246
 6379TIP3   OH219081   3.865   4.933   1.170
 6379TIP3    H119082   3.839   4.854   1.122
 6379TIP3    H219083   3.845   4.912   1.261
 6380TIP3   OH219084   7.970   6.696   2.109
 6380TIP3    H119085   7.981   6.650   2.026
 6380TIP3    H219086   7.877   6.684   2.130
 6381TIP3   OH219087   3.148   5.447   4.860
 6381TIP3    H119088   3.230   5.422   4.817
 6381TIP3    H219089   3.109   5.511   4.801
 6382TIP3   OH219090   3.846   1.489   5.314
 6382TIP3    H119091   3.926   1.449   5.280
 6382TIP3    H219092   3.841   1.460   5.405
 6383TIP3   OH219093   1.450   4.263   1.920
 6383TIP3    H119094   1.464   4.345   1.872
 6383TIP3    H219095   1.538   4.230   1.937
 6384TIP3   OH219096   2.662   5.331   1.417
 6384TIP3    H119097   2.617   5.247   1.416
 6384TIP3    H219098   2.690   5.342   1.508
 6385TIP3   OH219099   8.015   3.932   2.029
 6385TIP3    H119100   8.062   4.014   2.041
 6385TIP3    H219101   7.999   3.927   1.934
 6386TIP3   OH219102   7.370   4.172   2.096
 6386TIP3    H119103   7.317   4.247   2.125
 6386TIP3    H219104   7.452   4.180   2.144
 6387TIP3   OH219105   0.799   7.384   3.524
 6387TIP3    H119106   0.739   7.438   3.473
 6387TIP3    H219107   0.886   7.407   3.490
 6388TIP3   OH219108   2.633   7.285   4.356
 6388TIP3    H119109   2.621   7.200   4.399
 6388TIP3    H219110   2.584   7.346   4.410
 6389TIP3   OH219111   6.166   1.535   6.338
 6389TIP3    H119112   6.108   1.598   6.382
 6389TIP3    H219113   6.242   1.528   6.395
 6390TIP3   OH219114   2.929   6.498   3.894
 6390TIP3    H119115   2.934   6.406   3.921
 6390TIP3    H219116   2.972   6.546   3.965
 6391TIP3   OH219117   0.677   7.561   2.345
 6391TIP3    H119118   0.668   7.619   2.270
 6391TIP3    H219119   0.616   7.489   2.328
 6392TIP3   OH219120   5.350   4.712   0.180
 6392TIP3    H119121   5.289   4.734   0.109
 6392TIP3    H219122   5.322   4.625   0.208
 6393TIP3   OH219123   1.109   2.600   0.028
 6393TIP3    H119124   1.196   2.623  -0.005
 6393TIP3    H219125   1.086   2.672   0.087
 6394TIP3   OH219126   2.018   7.297   0.201
 6394TIP3    H119127   1.924   7.312   0.212
 6394TIP3    H219128   2.028   7.271   0.110
 6395TIP3   OH219129   4.320   4.139   0.800
 6395TIP3    H119130   4.380   4.068   0.822
 6395TIP3    H219131   4.339   4.159   0.708
 6396TIP3   OH219132   2.429   4.720   2.183
 6396TIP3    H119133   2.512   4.766   2.181
 6396TIP3    H219134   2.388   4.738   2.098
 6397TIP3   OH219135   4.659   5.558   0.280
 6397TIP3    H119136   4.720   5.500   0.327
 6397TIP3    H219137   4.707   5.640   0.270
 6398TIP3   OH219138   1.779   4.846   4.963
 6398TIP3    H119139   1.790   4.909   4.892
 6398TIP3    H219140   1.684   4.836   4.972
 6399TIP3   OH219141   2.449   5.060   2.308
 6399TIP3    H119142   2.421   5.150   2.324
 6399TIP3    H219143   2.406   5.036   2.226
 6400TIP3   OH219144   2.327   3.946   3.929
 6400TIP3    H119145   2.422   3.947   3.915
 6400TIP3    H219146   2.298   4.034   3.906
 6401TIP3   OH219147   7.284   6.269   3.448
 6401TIP3    H119148   7.319   6.191   3.405
 6401TIP3    H219149   7.355   6.299   3.504
 6402TIP3   OH219150   2.697   1.452   3.525
 6402TIP3    H119151   2.647   1.522   3.483
 6402TIP3    H219152   2.767   1.497   3.572
 6403TIP3   OH219153   2.458   4.857   3.288
 6403TIP3    H119154   2.482   4.950   3.289
 6403TIP3    H219155   2.509   4.820   3.216
 6404TIP3   OH219156   7.026   7.451   1.537
 6404TIP3    H119157   6.995   7.443   1.627
 6404TIP3    H219158   6.961   7.506   1.494
 6405TIP3   OH219159   3.212   5.893   0.761
 6405TIP3    H119160   3.141   5.921   0.819
 6405TIP3    H219161   3.171   5.827   0.704
 6406TIP3   OH219162   7.202   5.262   4.263
 6406TIP3    H119163   7.283   5.279   4.312
 6406TIP3    H219164   7.162   5.188   4.308
 6407TIP3   OH219165   5.832   5.153   2.727
 6407TIP3    H119166   5.915   5.106   2.735
 6407TIP3    H219167   5.765   5.085   2.737
 6408TIP3   OH219168   4.478   1.076   4.815
 6408TIP3    H119169   4.400   1.029   4.843
 6408TIP3    H219170   4.544   1.008   4.802
 6409TIP3   OH219171   8.015   0.068   5.552
 6409TIP3    H119172   8.002   0.091   5.460
 6409TIP3    H219173   7.942   0.009   5.572
 6410TIP3   OH219174   4.313   5.354   2.805
 6410TIP3    H119175   4.370   5.431   2.802
 6410TIP3    H219176   4.355   5.291   2.747
 6411TIP3   OH219177   1.347   1.231   3.811
 6411TIP3    H119178   1.258   1.250   3.841
 6411TIP3    H219179   1.403   1.288   3.864
 6412TIP3   OH219180   0.301   4.042   3.011
 6412TIP3    H119181   0.351   3.966   2.980
 6412TIP3    H219182   0.308   4.038   3.106
 6413TIP3   OH219183   4.489   7.785   0.785
 6413TIP3    H119184   4.495   7.730   0.707
 6413TIP3    H219185   4.528   7.733   0.855
 6414TIP3   OH219186   5.755   4.894   6.160
 6414TIP3    H119187   5.727   4.862   6.074
 6414TIP3    H219188   5.691   4.858   6.221
 6415TIP3   OH219189   8.247   5.768   1.822
 6415TIP3    H119190   8.235   5.719   1.740
 6415TIP3    H219191   8.231   5.859   1.798
 6416TIP3   OH219192   0.666   6.081   1.107
 6416TIP3    H119193   0.731   6.012   1.095
 6416TIP3    H219194   0.718   6.157   1.134
 6417TIP3   OH219195   7.117   2.678   4.828
 6417TIP3    H119196   7.124   2.721   4.742
 6417TIP3    H219197   7.155   2.591   4.814
 6418TIP3   OH219198   3.321   4.699   2.850
 6418TIP3    H119199   3.413   4.696   2.825
 6418TIP3    H219200   3.288   4.779   2.808
 6419TIP3   OH219201   3.950   0.372   6.572
 6419TIP3    H119202   3.887   0.360   6.644
 6419TIP3    H219203   3.945   0.465   6.551
 6420TIP3   OH219204   2.835   1.958   1.938
 6420TIP3    H119205   2.785   1.877   1.942
 6420TIP3    H219206   2.824   1.988   1.848
 6421TIP3   OH219207   4.880   2.109   2.833
 6421TIP3    H119208   4.937   2.177   2.869
 6421TIP3    H219209   4.877   2.128   2.739
 6422TIP3   OH219210   3.969   0.305   4.863
 6422TIP3    H119211   3.890   0.281   4.910
 6422TIP3    H219212   4.033   0.238   4.886
 6423TIP3   OH219213   4.919   3.051   5.300
 6423TIP3    H119214   4.898   3.133   5.256
 6423TIP3    H219215   4.936   3.076   5.391
 6424TIP3   OH219216   2.150   5.382   5.909
 6424TIP3    H119217   2.163   5.356   6.001
 6424TIP3    H219218   2.111   5.305   5.868
 6425TIP3   OH219219   3.617   7.161   1.586
 6425TIP3    H119220   3.634   7.142   1.678
 6425TIP3    H219221   3.522   7.176   1.582
 6426TIP3   OH219222   0.002   3.560   1.809
 6426TIP3    H119223   0.060   3.517   1.871
 6426TIP3    H219224  -0.012   3.495   1.740
 6427TIP3   OH219225   7.358   6.878   4.824
 6427TIP3    H119226   7.439   6.905   4.868
 6427TIP3    H219227   7.377   6.889   4.731
 6428TIP3   OH219228   3.559   6.269   1.686
 6428TIP3    H119229   3.486   6.298   1.741
 6428TIP3    H219230   3.604   6.349   1.661
 6429TIP3   OH219231   4.555   1.254   5.419
 6429TIP3    H119232   4.527   1.265   5.510
 6429TIP3    H219233   4.647   1.281   5.419
 6430TIP3   OH219234   7.489   2.141   0.225
 6430TIP3    H119235   7.541   2.120   0.303
 6430TIP3    H219236   7.553   2.144   0.154
 6431TIP3   OH219237   1.453   6.239   3.385
 6431TIP3    H119238   1.418   6.188   3.458
 6431TIP3    H219239   1.541   6.265   3.414
 6432TIP3   OH219240   0.228   4.736   2.817
 6432TIP3    H119241   0.321   4.727   2.838
 6432TIP3    H219242   0.209   4.661   2.760
 6433TIP3   OH219243   1.375   7.541   0.002
 6433TIP3    H119244   1.311   7.612   0.008
 6433TIP3    H219245   1.401   7.525   0.093
 6434TIP3   OH219246   2.500   0.510   0.756
 6434TIP3    H119247   2.591   0.480   0.749
 6434TIP3    H219248   2.501   0.572   0.828
 6435TIP3   OH219249   1.133   2.190   5.440
 6435TIP3    H119250   1.072   2.219   5.508
 6435TIP3    H219251   1.195   2.262   5.431
 6436TIP3   OH219252   5.801   1.047   3.649
 6436TIP3    H119253   5.835   1.063   3.561
 6436TIP3    H219254   5.866   1.086   3.707
 6437TIP3   OH219255   0.994   3.056   5.588
 6437TIP3    H119256   1.043   3.058   5.670
 6437TIP3    H219257   0.902   3.054   5.615
 6438TIP3   OH219258   5.951   2.341   5.994
 6438TIP3    H119259   5.963   2.412   6.056
 6438TIP3    H219260   5.877   2.291   6.028
 6439TIP3   OH219261   1.289   0.381   0.056
 6439TIP3    H119262   1.253   0.467   0.034
 6439TIP3    H219263   1.219   0.338   0.106
 6440TIP3   OH219264   5.907   2.276   6.468
 6440TIP3    H119265   5.874   2.347   6.523
 6440TIP3    H219266   5.828   2.228   6.442
 6441TIP3   OH219267   7.454   7.303   1.332
 6441TIP3    H119268   7.360   7.316   1.346
 6441TIP3    H219269   7.490   7.391   1.322
 6442TIP3   OH219270   6.373   3.008   3.731
 6442TIP3    H119271   6.451   2.953   3.727
 6442TIP3    H219272   6.341   3.010   3.641
 6443TIP3   OH219273   5.307   4.201   5.385
 6443TIP3    H119274   5.216   4.198   5.414
 6443TIP3    H219275   5.306   4.261   5.310
 6444TIP3   OH219276   7.889   6.079   0.749
 6444TIP3    H119277   7.970   6.078   0.697
 6444TIP3    H219278   7.828   6.025   0.699
 6445TIP3   OH219279   1.181   1.833   1.712
 6445TIP3    H119280   1.142   1.747   1.697
 6445TIP3    H219281   1.200   1.866   1.624
 6446TIP3   OH219282   6.322   7.720   2.209
 6446TIP3    H119283   6.233   7.708   2.176
 6446TIP3    H219284   6.375   7.658   2.159
 6447TIP3   OH219285   8.005   6.907   5.384
 6447TIP3    H119286   7.999   6.845   5.457
 6447TIP3    H219287   8.075   6.967   5.409
 6448TIP3   OH219288   8.129   4.788   3.814
 6448TIP3    H119289   8.190   4.730   3.860
 6448TIP3    H219290   8.065   4.728   3.775
 6449TIP3   OH219291   7.232   7.317   2.312
 6449TIP3    H119292   7.319   7.348   2.337
 6449TIP3    H219293   7.199   7.383   2.251
 6450TIP3   OH219294   2.646   0.083   4.531
 6450TIP3    H119295   2.688   0.112   4.450
 6450TIP3    H219296   2.570   0.140   4.541
 6451TIP3   OH219297   6.116   2.053   2.345
 6451TIP3    H119298   6.138   2.103   2.424
 6451TIP3    H219299   6.060   2.113   2.294
 6452TIP3   OH219300   6.037   0.117   1.740
 6452TIP3    H119301   6.069   0.207   1.740
 6452TIP3    H219302   6.022   0.097   1.833
 6453TIP3   OH219303   2.038   1.322   0.833
 6453TIP3    H119304   1.994   1.275   0.904
 6453TIP3    H219305   2.024   1.415   0.852
 6454TIP3   OH219306   0.125   6.910   1.888
 6454TIP3    H119307   0.087   6.987   1.846
 6454TIP3    H219308   0.058   6.879   1.948
 6455TIP3   OH219309   2.666   5.651   5.961
 6455TIP3    H119310   2.577   5.665   5.993
 6455TIP3    H219311   2.662   5.569   5.913
 6456TIP3   OH219312   4.952   0.982   6.718
 6456TIP3    H119313   5.035   0.961   6.761
 6456TIP3    H219314   4.918   1.057   6.767
 6457TIP3   OH219315   7.084   5.288   5.961
 6457TIP3    H119316   7.133   5.345   5.902
 6457TIP3    H219317   7.061   5.212   5.908
 6458TIP3   OH219318   4.489   1.773   3.881
 6458TIP3    H119319   4.533   1.795   3.800
 6458TIP3    H219320   4.489   1.854   3.932
 6459TIP3   OH219321   2.581   3.090   1.398
 6459TIP3    H119322   2.646   3.074   1.466
 6459TIP3    H219323   2.632   3.109   1.319
 6460TIP3   OH219324   0.297   3.834   4.084
 6460TIP3    H119325   0.374   3.890   4.083
 6460TIP3    H219326   0.224   3.893   4.065
 6461TIP3   OH219327   7.804   5.124   0.736
 6461TIP3    H119328   7.871   5.163   0.680
 6461TIP3    H219329   7.774   5.196   0.791
 6462TIP3   OH219330   2.776   0.887   1.207
 6462TIP3    H119331   2.740   0.844   1.285
 6462TIP3    H219332   2.743   0.836   1.133
 6463TIP3   OH219333   3.768   5.980   5.621
 6463TIP3    H119334   3.760   5.921   5.547
 6463TIP3    H219335   3.834   6.044   5.593
 6464TIP3   OH219336   6.326   6.575   1.167
 6464TIP3    H119337   6.236   6.579   1.135
 6464TIP3    H219338   6.376   6.535   1.096
 6465TIP3   OH219339   0.825   6.318   3.095
 6465TIP3    H119340   0.855   6.319   3.004
 6465TIP3    H219341   0.751   6.257   3.096
 6466TIP3   OH219342   5.546   6.262   0.317
 6466TIP3    H119343   5.473   6.234   0.371
 6466TIP3    H219344   5.514   6.342   0.274
 6467TIP3   OH219345   6.252   2.507   1.061
 6467TIP3    H119346   6.224   2.513   1.152
 6467TIP3    H219347   6.348   2.505   1.065
 6468TIP3   OH219348   6.198   5.706   2.661
 6468TIP3    H119349   6.212   5.735   2.571
 6468TIP3    H219350   6.211   5.784   2.715
 6469TIP3   OH219351   0.059   7.012   0.889
 6469TIP3    H119352   0.051   6.937   0.947
 6469TIP3    H219353   0.055   6.974   0.801
 6470TIP3   OH219354   2.751   2.045   4.541
 6470TIP3    H119355   2.673   2.085   4.580
 6470TIP3    H219356   2.723   2.019   4.453
 6471TIP3   OH219357   1.978   2.066   4.653
 6471TIP3    H119358   1.982   2.156   4.620
 6471TIP3    H219359   2.070   2.044   4.671
 6472TIP3   OH219360   1.931   0.449   5.370
 6472TIP3    H119361   2.020   0.467   5.400
 6472TIP3    H219362   1.933   0.468   5.276
 6473TIP3   OH219363   7.584   4.838   1.172
 6473TIP3    H119364   7.566   4.753   1.210
 6473TIP3    H219365   7.547   4.901   1.233
 6474TIP3   OH219366   4.246   5.348   6.049
 6474TIP3    H119367   4.203   5.276   6.095
 6474TIP3    H219368   4.240   5.423   6.109
 6475TIP3   OH219369   6.401   5.150   0.813
 6475TIP3    H119370   6.347   5.072   0.828
 6475TIP3    H219371   6.340   5.223   0.824
 6476TIP3   OH219372   1.978   0.324   5.977
 6476TIP3    H119373   2.069   0.348   5.991
 6476TIP3    H219374   1.973   0.232   6.003
 6477TIP3   OH219375   0.044   6.682   3.521
 6477TIP3    H119376  -0.004   6.764   3.527
 6477TIP3    H219377   0.001   6.635   3.449
 6478TIP3   OH219378   6.872   5.881   4.077
 6478TIP3    H119379   6.937   5.838   4.133
 6478TIP3    H219380   6.789   5.869   4.122
 6479TIP3   OH219381   4.309   6.724   6.467
 6479TIP3    H119382   4.340   6.654   6.525
 6479TIP3    H219383   4.364   6.716   6.389
 6480TIP3   OH219384   3.406   1.043   0.357
 6480TIP3    H119385   3.487   1.038   0.408
 6480TIP3    H219386   3.432   1.025   0.267
 6481TIP3   OH219387   3.761   2.462   1.456
 6481TIP3    H119388   3.718   2.395   1.402
 6481TIP3    H219389   3.744   2.544   1.410
 6482TIP3   OH219390   2.061   6.563   2.043
 6482TIP3    H119391   2.143   6.566   2.092
 6482TIP3    H219392   2.088   6.574   1.952
 6483TIP3   OH219393   0.645   4.256   1.306
 6483TIP3    H119394   0.560   4.284   1.339
 6483TIP3    H219395   0.633   4.254   1.210
 6484TIP3   OH219396   1.204   4.759   3.142
 6484TIP3    H119397   1.290   4.732   3.111
 6484TIP3    H219398   1.208   4.855   3.145
 6485TIP3   OH219399   5.936   5.284   3.522
 6485TIP3    H119400   5.914   5.345   3.452
 6485TIP3    H219401   5.992   5.218   3.480
 6486TIP3   OH219402   3.628   4.395   0.535
 6486TIP3    H119403   3.633   4.344   0.616
 6486TIP3    H219404   3.543   4.371   0.497
 6487TIP3   OH219405   7.659   6.719   6.750
 6487TIP3    H119406   7.688   6.628   6.753
 6487TIP3    H219407   7.573   6.716   6.707
 6488TIP3   OH219408   3.529   3.243   6.360
 6488TIP3    H119409   3.537   3.252   6.265
 6488TIP3    H219410   3.443   3.204   6.374
 6489TIP3   OH219411   7.895   5.178   2.100
 6489TIP3    H119412   7.835   5.220   2.163
 6489TIP3    H219413   7.861   5.204   2.014
 6490TIP3   OH219414   4.506   2.871   5.165
 6490TIP3    H119415   4.504   2.966   5.177
 6490TIP3    H219416   4.596   2.846   5.188
 6491TIP3   OH219417   3.012   3.085   5.495
 6491TIP3    H119418   2.928   3.113   5.457
 6491TIP3    H219419   3.078   3.116   5.433
 6492TIP3   OH219420   4.699   5.235   1.063
 6492TIP3    H119421   4.701   5.248   1.158
 6492TIP3    H219422   4.617   5.276   1.035
 6493TIP3   OH219423   1.428   3.381   0.932
 6493TIP3    H119424   1.457   3.290   0.929
 6493TIP3    H219425   1.479   3.420   1.004
 6494TIP3   OH219426   4.317   2.935   3.870
 6494TIP3    H119427   4.284   2.845   3.874
 6494TIP3    H219428   4.270   2.974   3.795
 6495TIP3   OH219429   1.062   2.829   3.773
 6495TIP3    H119430   1.060   2.747   3.821
 6495TIP3    H219431   0.994   2.820   3.706
 6496TIP3   OH219432   5.106   6.936   1.760
 6496TIP3    H119433   5.036   6.999   1.774
 6496TIP3    H219434   5.154   6.969   1.684
 6497TIP3   OH219435   3.333   4.408   1.786
 6497TIP3    H119436   3.290   4.355   1.719
 6497TIP3    H219437   3.299   4.373   1.869
 6498TIP3   OH219438   4.039   2.540   5.019
 6498TIP3    H119439   3.965   2.502   4.972
 6498TIP3    H219440   4.034   2.503   5.107
 6499TIP3   OH219441   0.566   2.742   4.673
 6499TIP3    H119442   0.637   2.786   4.719
 6499TIP3    H219443   0.604   2.658   4.646
 6500TIP3   OH219444   6.288   5.611   2.184
 6500TIP3    H119445   6.225   5.680   2.162
 6500TIP3    H219446   6.287   5.553   2.108
 6501TIP3   OH219447   3.648   6.702   3.818
 6501TIP3    H119448   3.611   6.686   3.904
 6501TIP3    H219449   3.741   6.720   3.834
 6502TIP3   OH219450   6.467   7.742   5.921
 6502TIP3    H119451   6.373   7.727   5.909
 6502TIP3    H219452   6.488   7.698   6.003
 6503TIP3   OH219453   7.771   7.324   6.231
 6503TIP3    H119454   7.847   7.338   6.174
 6503TIP3    H219455   7.796   7.252   6.288
 6504TIP3   OH219456   4.981   4.630   4.801
 6504TIP3    H119457   4.941   4.543   4.793
 6504TIP3    H219458   5.075   4.614   4.793
 6505TIP3   OH219459   4.908   5.065   1.266
 6505TIP3    H119460   4.972   5.021   1.209
 6505TIP3    H219461   4.877   5.139   1.214
 6506TIP3   OH219462   6.952   7.608   4.431
 6506TIP3    H119463   6.889   7.665   4.387
 6506TIP3    H219464   7.008   7.667   4.481
 6507TIP3   OH219465   1.225   5.732   6.452
 6507TIP3    H119466   1.156   5.704   6.392
 6507TIP3    H219467   1.297   5.670   6.435
 6508TIP3   OH219468   2.014   5.011   4.227
 6508TIP3    H119469   1.951   4.973   4.289
 6508TIP3    H219470   2.089   5.036   4.282
 6509TIP3   OH219471   4.836   1.240   6.389
 6509TIP3    H119472   4.795   1.178   6.449
 6509TIP3    H219473   4.915   1.195   6.358
 6510TIP3   OH219474   5.090   1.598   5.329
 6510TIP3    H119475   5.172   1.631   5.293
 6510TIP3    H219476   5.022   1.644   5.281
 6511TIP3   OH219477   4.411   1.266   2.708
 6511TIP3    H119478   4.374   1.354   2.712
 6511TIP3    H219479   4.388   1.226   2.791
 6512TIP3   OH219480   5.872   3.440   3.581
 6512TIP3    H119481   5.953   3.398   3.612
 6512TIP3    H219482   5.864   3.518   3.635
 6513TIP3   OH219483   5.391   4.423   1.354
 6513TIP3    H119484   5.405   4.456   1.265
 6513TIP3    H219485   5.431   4.490   1.410
 6514TIP3   OH219486   2.248   3.207   1.938
 6514TIP3    H119487   2.318   3.193   1.875
 6514TIP3    H219488   2.256   3.299   1.963
 6515TIP3   OH219489   7.295   1.516   0.599
 6515TIP3    H119490   7.323   1.571   0.526
 6515TIP3    H219491   7.230   1.568   0.645
 6516TIP3   OH219492   4.225   1.159   2.392
 6516TIP3    H119493   4.178   1.177   2.474
 6516TIP3    H219494   4.243   1.065   2.395
 6517TIP3   OH219495   0.660   0.384   3.972
 6517TIP3    H119496   0.604   0.462   3.971
 6517TIP3    H219497   0.707   0.389   4.056
 6518TIP3   OH219498   2.666   1.469   1.003
 6518TIP3    H119499   2.595   1.482   1.066
 6518TIP3    H219500   2.692   1.378   1.015
 6519TIP3   OH219501   6.579   7.081   4.538
 6519TIP3    H119502   6.545   6.997   4.569
 6519TIP3    H219503   6.603   7.128   4.618
 6520TIP3   OH219504   0.533   1.515   4.809
 6520TIP3    H119505   0.529   1.534   4.715
 6520TIP3    H219506   0.471   1.444   4.822
 6521TIP3   OH219507   7.515   1.987   1.815
 6521TIP3    H119508   7.522   2.050   1.886
 6521TIP3    H219509   7.422   1.985   1.794
 6522TIP3   OH219510   4.621   7.035   1.379
 6522TIP3    H119511   4.629   6.951   1.333
 6522TIP3    H219512   4.639   7.014   1.470
 6523TIP3   OH219513   4.840   3.735   2.027
 6523TIP3    H119514   4.854   3.644   1.999
 6523TIP3    H219515   4.745   3.748   2.019
 6524TIP3   OH219516   7.815   1.953   2.624
 6524TIP3    H119517   7.765   1.894   2.679
 6524TIP3    H219518   7.833   2.029   2.679
 6525TIP3   OH219519   6.081   4.060   4.137
 6525TIP3    H119520   6.061   4.064   4.043
 6525TIP3    H219521   6.154   3.998   4.142
 6526TIP3   OH219522   2.846   3.699   1.222
 6526TIP3    H119523   2.753   3.723   1.217
 6526TIP3    H219524   2.893   3.782   1.217
 6527TIP3   OH219525   7.944   2.083   3.748
 6527TIP3    H119526   7.854   2.072   3.717
 6527TIP3    H219527   7.937   2.140   3.824
 6528TIP3   OH219528   5.197   7.214   6.209
 6528TIP3    H119529   5.168   7.282   6.271
 6528TIP3    H219530   5.155   7.134   6.239
 6529TIP3   OH219531   3.981   1.340   1.499
 6529TIP3    H119532   3.921   1.274   1.462
 6529TIP3    H219533   4.006   1.393   1.424
 6530TIP3   OH219534   7.743   4.291   5.336
 6530TIP3    H119535   7.723   4.368   5.283
 6530TIP3    H219536   7.702   4.309   5.420
 6531TIP3   OH219537   0.492   5.949   6.594
 6531TIP3    H119538   0.514   5.874   6.539
 6531TIP3    H219539   0.399   5.937   6.615
 6532TIP3   OH219540   1.608   1.290   2.750
 6532TIP3    H119541   1.672   1.243   2.697
 6532TIP3    H219542   1.542   1.224   2.773
 6533TIP3   OH219543   6.383   5.374   4.729
 6533TIP3    H119544   6.443   5.448   4.738
 6533TIP3    H219545   6.416   5.325   4.653
 6534TIP3   OH219546   5.054   2.002   1.353
 6534TIP3    H119547   5.082   2.076   1.300
 6534TIP3    H219548   5.070   2.029   1.444
 6535TIP3   OH219549   8.055   3.118   2.413
 6535TIP3    H119550   8.002   3.051   2.370
 6535TIP3    H219551   8.090   3.075   2.491
 6536TIP3   OH219552   0.122   5.918   0.222
 6536TIP3    H119553   0.205   5.875   0.246
 6536TIP3    H219554   0.058   5.847   0.222
 6537TIP3   OH219555   4.000   1.378   0.877
 6537TIP3    H119556   3.918   1.425   0.893
 6537TIP3    H219557   3.973   1.288   0.858
 6538TIP3   OH219558   0.313   0.958   6.177
 6538TIP3    H119559   0.371   0.883   6.190
 6538TIP3    H219560   0.372   1.032   6.165
 6539TIP3   OH219561   2.388   3.545   3.636
 6539TIP3    H119562   2.382   3.560   3.542
 6539TIP3    H219563   2.315   3.596   3.673
 6540TIP3   OH219564   0.472   6.444   5.655
 6540TIP3    H119565   0.438   6.358   5.629
 6540TIP3    H219566   0.397   6.487   5.698
 6541TIP3   OH219567   6.434   5.030   0.021
 6541TIP3    H119568   6.348   5.034   0.062
 6541TIP3    H219569   6.456   5.121   0.000
 6542TIP3   OH219570   7.062   6.242   3.823
 6542TIP3    H119571   7.137   6.186   3.802
 6542TIP3    H219572   7.042   6.221   3.914
 6543TIP3   OH219573   0.908   4.171   0.209
 6543TIP3    H119574   0.908   4.079   0.233
 6543TIP3    H219575   0.914   4.218   0.292
 6544TIP3   OH219576   6.025   5.546   2.783
 6544TIP3    H119577   6.075   5.597   2.719
 6544TIP3    H219578   6.060   5.573   2.867
 6545TIP3   OH219579   0.508   0.228   0.570
 6545TIP3    H119580   0.477   0.229   0.480
 6545TIP3    H219581   0.430   0.247   0.622
 6546TIP3   OH219582   8.175   2.168   3.673
 6546TIP3    H119583   8.092   2.145   3.715
 6546TIP3    H219584   8.203   2.248   3.718
 6547TIP3   OH219585   2.722   1.892   4.791
 6547TIP3    H119586   2.654   1.826   4.781
 6547TIP3    H219587   2.726   1.936   4.706
 6548TIP3   OH219588   1.403   6.230   6.397
 6548TIP3    H119589   1.402   6.325   6.390
 6548TIP3    H219590   1.315   6.203   6.371
 6549TIP3   OH219591   4.675   6.091   6.717
 6549TIP3    H119592   4.718   6.008   6.699
 6549TIP3    H219593   4.609   6.101   6.649
 6550TIP3   OH219594   1.867   5.736   0.107
 6550TIP3    H119595   1.803   5.741   0.036
 6550TIP3    H219596   1.814   5.719   0.185
 6551TIP3   OH219597   3.046   7.354   4.960
 6551TIP3    H119598   2.988   7.279   4.946
 6551TIP3    H219599   3.131   7.325   4.927
 6552TIP3   OH219600   5.136   2.563   2.078
 6552TIP3    H119601   5.213   2.596   2.125
 6552TIP3    H219602   5.070   2.632   2.088
 6553TIP3   OH219603   2.764   2.395   0.158
 6553TIP3    H119604   2.744   2.488   0.148
 6553TIP3    H219605   2.825   2.376   0.087
 6554TIP3   OH219606   4.916   1.160   3.415
 6554TIP3    H119607   4.925   1.072   3.449
 6554TIP3    H219608   4.880   1.211   3.488
 6555TIP3   OH219609   2.941   0.122   4.863
 6555TIP3    H119610   2.962   0.074   4.782
 6555TIP3    H219611   2.856   0.162   4.846
 6556TIP3   OH219612   1.027   1.683   6.436
 6556TIP3    H119613   0.951   1.634   6.406
 6556TIP3    H219614   1.069   1.625   6.500
 6557TIP3   OH219615   8.010   0.094   1.236
 6557TIP3    H119616   7.920   0.102   1.268
 6557TIP3    H219617   8.055   0.043   1.303
 6558TIP3   OH219618   7.851   2.792   3.719
 6558TIP3    H119619   7.822   2.792   3.628
 6558TIP3    H219620   7.817   2.710   3.755
 6559TIP3   OH219621   5.691   5.812   5.327
 6559TIP3    H119622   5.666   5.756   5.401
 6559TIP3    H219623   5.784   5.795   5.315
 6560TIP3   OH219624   1.427   6.597   1.222
 6560TIP3    H119625   1.365   6.666   1.198
 6560TIP3    H219626   1.438   6.607   1.317
 6561TIP3   OH219627   5.289   2.065   3.965
 6561TIP3    H119628   5.325   1.978   3.946
 6561TIP3    H219629   5.235   2.086   3.888
 6562TIP3   OH219630   5.289   6.708   2.848
 6562TIP3    H119631   5.211   6.653   2.849
 6562TIP3    H219632   5.362   6.647   2.850
 6563TIP3   OH219633   7.916   1.362   4.553
 6563TIP3    H119634   8.005   1.370   4.588
 6563TIP3    H219635   7.869   1.309   4.618
 6564TIP3   OH219636   4.472   7.681   3.603
 6564TIP3    H119637   4.454   7.647   3.690
 6564TIP3    H219638   4.422   7.763   3.598
 6565TIP3   OH219639   1.672   2.702   4.061
 6565TIP3    H119640   1.626   2.786   4.054
 6565TIP3    H219641   1.764   2.725   4.073
 6566TIP3   OH219642   5.936   1.951   0.275
 6566TIP3    H119643   5.882   1.886   0.319
 6566TIP3    H219644   5.981   1.996   0.347
 6567TIP3   OH219645   0.982   3.065   3.858
 6567TIP3    H119646   1.027   3.002   3.802
 6567TIP3    H219647   1.051   3.099   3.916
 6568TIP3   OH219648   6.067   0.684   1.813
 6568TIP3    H119649   6.061   0.588   1.807
 6568TIP3    H219650   6.161   0.702   1.811
 6569TIP3   OH219651   2.298   6.745   3.219
 6569TIP3    H119652   2.364   6.800   3.261
 6569TIP3    H219653   2.217   6.765   3.266
 6570TIP3   OH219654   5.560   0.820   1.513
 6570TIP3    H119655   5.655   0.828   1.503
 6570TIP3    H219656   5.545   0.726   1.519
 6571TIP3   OH219657   2.473   7.147   0.588
 6571TIP3    H119658   2.477   7.210   0.660
 6571TIP3    H219659   2.444   7.198   0.513
 6572TIP3   OH219660   4.302   2.949   0.459
 6572TIP3    H119661   4.251   2.971   0.381
 6572TIP3    H219662   4.298   3.027   0.513
 6573TIP3   OH219663   7.872   7.503   2.761
 6573TIP3    H119664   7.860   7.590   2.800
 6573TIP3    H219665   7.964   7.500   2.735
 6574TIP3   OH219666   3.062   6.855   1.538
 6574TIP3    H119667   3.154   6.877   1.527
 6574TIP3    H219668   3.047   6.861   1.632
 6575TIP3   OH219669   0.996   5.545   5.927
 6575TIP3    H119670   1.062   5.607   5.957
 6575TIP3    H219671   1.005   5.545   5.832
 6576TIP3   OH219672   1.926   4.244   4.667
 6576TIP3    H119673   1.908   4.338   4.660
 6576TIP3    H219674   1.845   4.206   4.702
 6577TIP3   OH219675   3.054   0.855   5.911
 6577TIP3    H119676   2.981   0.804   5.875
 6577TIP3    H219677   3.032   0.946   5.892
 6578TIP3   OH219678   4.244   3.850   2.052
 6578TIP3    H119679   4.325   3.901   2.047
 6578TIP3    H219680   4.175   3.915   2.043
 6579TIP3   OH219681   6.753   0.869   6.410
 6579TIP3    H119682   6.692   0.870   6.336
 6579TIP3    H219683   6.737   0.786   6.454
 6580TIP3   OH219684   5.738   1.283   0.172
 6580TIP3    H119685   5.738   1.264   0.266
 6580TIP3    H219686   5.812   1.233   0.137
 6581TIP3   OH219687   7.610   5.831   0.902
 6581TIP3    H119688   7.612   5.858   0.810
 6581TIP3    H219689   7.578   5.907   0.949
 6582TIP3   OH219690   3.815   2.321   6.137
 6582TIP3    H119691   3.724   2.300   6.161
 6582TIP3    H219692   3.814   2.326   6.042
 6583TIP3   OH219693   8.061   6.199   1.068
 6583TIP3    H119694   8.046   6.292   1.081
 6583TIP3    H219695   8.116   6.194   0.989
 6584TIP3   OH219696   2.288   0.531   4.977
 6584TIP3    H119697   2.281   0.437   4.959
 6584TIP3    H219698   2.216   0.570   4.927
 6585TIP3   OH219699   1.806   0.738   2.291
 6585TIP3    H119700   1.810   0.643   2.300
 6585TIP3    H219701   1.895   0.767   2.312
 6586TIP3   OH219702   7.330   3.809   2.972
 6586TIP3    H119703   7.289   3.725   2.996
 6586TIP3    H219704   7.420   3.786   2.949
 6587TIP3   OH219705   6.305   3.430   0.749
 6587TIP3    H119706   6.362   3.382   0.689
 6587TIP3    H219707   6.364   3.481   0.804
 6588TIP3   OH219708   1.664   4.509   1.537
 6588TIP3    H119709   1.724   4.583   1.548
 6588TIP3    H219710   1.719   4.436   1.510
 6589TIP3   OH219711   1.417   3.415   4.783
 6589TIP3    H119712   1.379   3.466   4.711
 6589TIP3    H219713   1.510   3.409   4.762
 6590TIP3   OH219714   2.004   4.848   5.924
 6590TIP3    H119715   1.938   4.915   5.942
 6590TIP3    H219716   1.954   4.768   5.912
 6591TIP3   OH219717   2.000   6.649   5.619
 6591TIP3    H119718   1.912   6.687   5.615
 6591TIP3    H219719   2.027   6.665   5.710
 6592TIP3   OH219720   2.393   7.049   2.083
 6592TIP3    H119721   2.390   7.106   2.007
 6592TIP3    H219722   2.484   7.021   2.089
 6593TIP3   OH219723   3.386   3.672   6.527
 6593TIP3    H119724   3.342   3.693   6.444
 6593TIP3    H219725   3.352   3.736   6.589
 6594TIP3   OH219726   6.421   6.263   2.846
 6594TIP3    H119727   6.486   6.272   2.776
 6594TIP3    H219728   6.470   6.224   2.919
 6595TIP3   OH219729   4.546   0.320   3.405
 6595TIP3    H119730   4.514   0.294   3.491
 6595TIP3    H219731   4.572   0.411   3.416
 6596TIP3   OH219732   4.514   1.824   1.089
 6596TIP3    H119733   4.515   1.834   1.184
 6596TIP3    H219734   4.451   1.754   1.073
 6597TIP3   OH219735   4.912   2.236   6.598
 6597TIP3    H119736   4.900   2.172   6.669
 6597TIP3    H219737   4.825   2.273   6.585
 6598TIP3   OH219738   7.556   0.537   2.010
 6598TIP3    H119739   7.605   0.460   1.984
 6598TIP3    H219740   7.601   0.569   2.089
 6599TIP3   OH219741   1.017   4.965   5.934
 6599TIP3    H119742   1.059   4.879   5.932
 6599TIP3    H219743   0.960   4.963   6.012
 6600TIP3   OH219744   1.888   1.432   0.049
 6600TIP3    H119745   1.893   1.460   0.140
 6600TIP3    H219746   1.794   1.434   0.029
 6601TIP3   OH219747   5.405   4.886   3.172
 6601TIP3    H119748   5.366   4.968   3.203
 6601TIP3    H219749   5.359   4.867   3.091
 6602TIP3   OH219750   1.306   5.114   4.961
 6602TIP3    H119751   1.279   5.054   5.030
 6602TIP3    H219752   1.281   5.070   4.880
 6603TIP3   OH219753   4.855   3.348   6.580
 6603TIP3    H119754   4.848   3.278   6.645
 6603TIP3    H219755   4.783   3.332   6.519
 6604TIP3   OH219756   7.730   2.127   5.457
 6604TIP3    H119757   7.711   2.220   5.458
 6604TIP3    H219758   7.667   2.089   5.519
 6605TIP3   OH219759   6.533   2.035   0.681
 6605TIP3    H119760   6.561   2.006   0.594
 6605TIP3    H219761   6.448   2.075   0.666
 6606TIP3   OH219762   7.059   6.329   4.891
 6606TIP3    H119763   6.981   6.356   4.938
 6606TIP3    H219764   7.113   6.408   4.886
 6607TIP3   OH219765   1.933   2.637   3.371
 6607TIP3    H119766   1.916   2.714   3.425
 6607TIP3    H219767   1.995   2.667   3.305
 6608TIP3   OH219768   4.659   0.190   2.032
 6608TIP3    H119769   4.620   0.139   1.960
 6608TIP3    H219770   4.590   0.252   2.057
 6609TIP3   OH219771   7.843   3.604   5.215
 6609TIP3    H119772   7.875   3.630   5.301
 6609TIP3    H219773   7.759   3.650   5.206
 6610TIP3   OH219774   1.694   4.242   2.827
 6610TIP3    H119775   1.650   4.298   2.763
 6610TIP3    H219776   1.640   4.250   2.906
 6611TIP3   OH219777   1.983   7.304   6.488
 6611TIP3    H119778   1.980   7.283   6.582
 6611TIP3    H219779   1.926   7.238   6.448
 6612TIP3   OH219780   7.283   3.611   3.299
 6612TIP3    H119781   7.271   3.570   3.213
 6612TIP3    H219782   7.352   3.560   3.341
 6613TIP3   OH219783   5.686   3.419   0.122
 6613TIP3    H119784   5.773   3.405   0.086
 6613TIP3    H219785   5.670   3.343   0.177
 6614TIP3   OH219786   2.605   6.800   2.757
 6614TIP3    H119787   2.694   6.793   2.791
 6614TIP3    H219788   2.550   6.764   2.827
 6615TIP3   OH219789   0.132   7.175   6.099
 6615TIP3    H119790   0.214   7.130   6.119
 6615TIP3    H219791   0.115   7.155   6.007
 6616TIP3   OH219792   0.039   1.575   3.483
 6616TIP3    H119793  -0.050   1.583   3.516
 6616TIP3    H219794   0.095   1.595   3.559
 6617TIP3   OH219795   3.976   3.569   1.650
 6617TIP3    H119796   3.921   3.509   1.699
 6617TIP3    H219797   4.023   3.620   1.716
 6618TIP3   OH219798   5.224   4.608   4.653
 6618TIP3    H119799   5.294   4.570   4.599
 6618TIP3    H219800   5.257   4.693   4.679
 6619TIP3   OH219801   1.431   4.989   3.893
 6619TIP3    H119802   1.369   4.989   3.820
 6619TIP3    H219803   1.427   5.077   3.929
 6620TIP3   OH219804   4.892   4.823   2.432
 6620TIP3    H119805   4.912   4.868   2.514
 6620TIP3    H219806   4.797   4.816   2.431
 6621TIP3   OH219807   4.725   7.580   0.788
 6621TIP3    H119808   4.721   7.602   0.881
 6621TIP3    H219809   4.661   7.511   0.776
 6622TIP3   OH219810   7.001   5.109   5.748
 6622TIP3    H119811   6.911   5.083   5.768
 6622TIP3    H219812   6.999   5.130   5.655
 6623TIP3   OH219813   6.837   6.315   4.635
 6623TIP3    H119814   6.751   6.332   4.674
 6623TIP3    H219815   6.871   6.402   4.614
 6624TIP3   OH219816   6.838   1.500   2.030
 6624TIP3    H119817   6.831   1.594   2.047
 6624TIP3    H219818   6.749   1.474   2.007
 6625TIP3   OH219819   6.363   4.416   1.493
 6625TIP3    H119820   6.367   4.446   1.403
 6625TIP3    H219821   6.283   4.455   1.528
 6626TIP3   OH219822   4.392   1.931   3.073
 6626TIP3    H119823   4.322   1.989   3.104
 6626TIP3    H219824   4.404   1.955   2.981
 6627TIP3   OH219825   4.773   4.907   0.983
 6627TIP3    H119826   4.729   4.904   0.898
 6627TIP3    H219827   4.799   4.998   0.994
 6628TIP3   OH219828   3.248   6.812   5.305
 6628TIP3    H119829   3.169   6.758   5.300
 6628TIP3    H219830   3.321   6.750   5.298
 6629TIP3   OH219831   5.257   4.920   5.597
 6629TIP3    H119832   5.249   4.876   5.682
 6629TIP3    H219833   5.260   5.013   5.618
 6630TIP3   OH219834   3.781   7.152   1.085
 6630TIP3    H119835   3.767   7.128   1.177
 6630TIP3    H219836   3.777   7.248   1.085
 6631TIP3   OH219837   7.824   5.160   2.707
 6631TIP3    H119838   7.882   5.158   2.631
 6631TIP3    H219839   7.855   5.233   2.760
 6632TIP3   OH219840   2.012   3.536   2.541
 6632TIP3    H119841   2.031   3.610   2.599
 6632TIP3    H219842   1.991   3.464   2.601
 6633TIP3   OH219843   5.443   4.452   6.201
 6633TIP3    H119844   5.523   4.472   6.248
 6633TIP3    H219845   5.460   4.480   6.111
 6634TIP3   OH219846   5.656   7.727   3.478
 6634TIP3    H119847   5.636   7.718   3.385
 6634TIP3    H219848   5.644   7.820   3.496
 6635TIP3   OH219849   8.128   0.411   2.593
 6635TIP3    H119850   8.171   0.449   2.516
 6635TIP3    H219851   8.188   0.429   2.665
 6636TIP3   OH219852   2.101   7.563   6.146
 6636TIP3    H119853   2.150   7.613   6.080
 6636TIP3    H219854   2.060   7.630   6.200
 6637TIP3   OH219855   0.909   5.761   2.037
 6637TIP3    H119856   0.845   5.699   2.004
 6637TIP3    H219857   0.994   5.722   2.015
 6638TIP3   OH219858   2.478   4.470   5.307
 6638TIP3    H119859   2.415   4.531   5.269
 6638TIP3    H219860   2.480   4.493   5.400
 6639TIP3   OH219861   3.458   3.016   0.699
 6639TIP3    H119862   3.406   3.053   0.628
 6639TIP3    H219863   3.548   3.017   0.665
 6640TIP3   OH219864   7.248   3.310   5.838
 6640TIP3    H119865   7.228   3.262   5.757
 6640TIP3    H219866   7.164   3.317   5.883
 6641TIP3   OH219867   2.655   6.565   0.416
 6641TIP3    H119868   2.579   6.508   0.425
 6641TIP3    H219869   2.697   6.536   0.335
 6642TIP3   OH219870   6.088   1.742   1.251
 6642TIP3    H119871   6.058   1.777   1.335
 6642TIP3    H219872   6.105   1.819   1.197
 6643TIP3   OH219873   3.277   1.063   1.232
 6643TIP3    H119874   3.259   1.033   1.143
 6643TIP3    H219875   3.283   0.983   1.283
 6644TIP3   OH219876   4.157   1.006   5.810
 6644TIP3    H119877   4.233   0.948   5.825
 6644TIP3    H219878   4.140   0.998   5.716
 6645TIP3   OH219879   1.949   4.374   2.640
 6645TIP3    H119880   1.874   4.373   2.580
 6645TIP3    H219881   1.946   4.462   2.679
 6646TIP3   OH219882   0.990   0.816   0.758
 6646TIP3    H119883   1.028   0.853   0.679
 6646TIP3    H219884   1.065   0.784   0.808
 6647TIP3   OH219885   4.963   3.200   3.943
 6647TIP3    H119886   4.926   3.269   3.998
 6647TIP3    H219887   5.027   3.245   3.888
 6648TIP3   OH219888   2.122   0.899   2.783
 6648TIP3    H119889   2.186   0.968   2.799
 6648TIP3    H219890   2.171   0.818   2.792
 6649TIP3   OH219891   2.012   1.971   6.671
 6649TIP3    H119892   1.927   1.971   6.715
 6649TIP3    H219893   1.991   1.987   6.579
 6650TIP3   OH219894   1.704   6.356   6.348
 6650TIP3    H119895   1.670   6.436   6.389
 6650TIP3    H219896   1.684   6.366   6.255
 6651TIP3   OH219897   2.732   6.657   1.683
 6651TIP3    H119898   2.799   6.600   1.720
 6651TIP3    H219899   2.727   6.631   1.591
 6652TIP3   OH219900   0.130   4.267   6.283
 6652TIP3    H119901   0.078   4.289   6.361
 6652TIP3    H219902   0.178   4.347   6.262
 6653TIP3   OH219903   7.562   2.896   3.294
 6653TIP3    H119904   7.566   2.915   3.388
 6653TIP3    H219905   7.538   2.980   3.253
 6654TIP3   OH219906   6.660   5.208   4.117
 6654TIP3    H119907   6.680   5.187   4.209
 6654TIP3    H219908   6.566   5.225   4.117
 6655TIP3   OH219909   2.499   3.549   1.821
 6655TIP3    H119910   2.527   3.623   1.875
 6655TIP3    H219911   2.404   3.560   1.814
 6656TIP3   OH219912   2.478   5.916   3.439
 6656TIP3    H119913   2.505   5.844   3.496
 6656TIP3    H219914   2.458   5.875   3.356
 6657TIP3   OH219915   2.572   3.052   2.975
 6657TIP3    H119916   2.575   3.123   2.911
 6657TIP3    H219917   2.597   3.094   3.058
 6658TIP3   OH219918   6.717   4.113   1.794
 6658TIP3    H119919   6.650   4.067   1.743
 6658TIP3    H219920   6.781   4.141   1.730
 6659TIP3   OH219921   1.288   0.080   4.998
 6659TIP3    H119922   1.282   0.038   4.912
 6659TIP3    H219923   1.197   0.090   5.026
 6660TIP3   OH219924   3.092   6.173   0.841
 6660TIP3    H119925   3.044   6.248   0.807
 6660TIP3    H219926   3.085   6.181   0.936
 6661TIP3   OH219927   4.807   3.284   2.769
 6661TIP3    H119928   4.792   3.193   2.795
 6661TIP3    H219929   4.739   3.301   2.703
 6662TIP3   OH219930   4.481   4.689   4.109
 6662TIP3    H119931   4.503   4.639   4.187
 6662TIP3    H219932   4.565   4.716   4.072
 6663TIP3   OH219933   3.732   3.057   1.971
 6663TIP3    H119934   3.653   3.004   1.962
 6663TIP3    H219935   3.779   3.019   2.045
 6664TIP3   OH219936   6.331   2.764   0.622
 6664TIP3    H119937   6.278   2.842   0.607
 6664TIP3    H219938   6.277   2.709   0.679
 6665TIP3   OH219939   2.764   0.511   2.802
 6665TIP3    H119940   2.684   0.524   2.751
 6665TIP3    H219941   2.820   0.457   2.747
 6666TIP3   OH219942   2.054   3.985   5.385
 6666TIP3    H119943   2.117   4.057   5.389
 6666TIP3    H219944   2.098   3.913   5.430
 6667TIP3   OH219945   3.346   1.111   2.990
 6667TIP3    H119946   3.420   1.117   2.928
 6667TIP3    H219947   3.306   1.027   2.971
 6668TIP3   OH219948   3.600   5.845   5.124
 6668TIP3    H119949   3.631   5.820   5.036
 6668TIP3    H219950   3.576   5.762   5.165
 6669TIP3   OH219951   3.416   6.062   0.761
 6669TIP3    H119952   3.349   5.995   0.773
 6669TIP3    H219953   3.428   6.099   0.849
 6670TIP3   OH219954   1.891   5.628   3.764
 6670TIP3    H119955   1.893   5.707   3.819
 6670TIP3    H219956   1.923   5.657   3.679
 6671TIP3   OH219957   5.416   3.585   2.388
 6671TIP3    H119958   5.473   3.647   2.432
 6671TIP3    H219959   5.347   3.567   2.452
 6672TIP3   OH219960   7.420   3.565   4.597
 6672TIP3    H119961   7.326   3.566   4.612
 6672TIP3    H219962   7.458   3.586   4.682
 6673TIP3   OH219963   4.648   0.128   0.160
 6673TIP3    H119964   4.708   0.107   0.232
 6673TIP3    H219965   4.665   0.061   0.095
 6674TIP3   OH219966   0.451   7.413   2.308
 6674TIP3    H119967   0.433   7.431   2.401
 6674TIP3    H219968   0.379   7.455   2.262
 6675TIP3   OH219969   5.080   0.484   5.370
 6675TIP3    H119970   5.081   0.392   5.398
 6675TIP3    H219971   5.158   0.492   5.315
 6676TIP3   OH219972   7.955   6.937   1.925
 6676TIP3    H119973   7.884   6.873   1.923
 6676TIP3    H219974   7.960   6.970   1.836
 6677TIP3   OH219975   4.787   6.176   6.145
 6677TIP3    H119976   4.796   6.233   6.068
 6677TIP3    H219977   4.853   6.208   6.206
 6678TIP3   OH219978   7.112   2.361   4.197
 6678TIP3    H119979   7.018   2.378   4.190
 6678TIP3    H219980   7.119   2.268   4.218
 6679TIP3   OH219981   7.992   3.891   4.028
 6679TIP3    H119982   8.042   3.872   3.948
 6679TIP3    H219983   8.059   3.914   4.093
 6680TIP3   OH219984   4.662   4.060   4.775
 6680TIP3    H119985   4.728   4.007   4.819
 6680TIP3    H219986   4.583   4.047   4.827
 6681TIP3   OH219987   4.749   4.163   3.882
 6681TIP3    H119988   4.715   4.137   3.967
 6681TIP3    H219989   4.762   4.258   3.889
 6682TIP3   OH219990   4.794   3.185   3.063
 6682TIP3    H119991   4.712   3.224   3.032
 6682TIP3    H219992   4.807   3.109   3.007
 6683TIP3   OH219993   7.622   7.662   4.088
 6683TIP3    H119994   7.703   7.702   4.118
 6683TIP3    H219995   7.648   7.605   4.016
 6684TIP3   OH219996   4.107   5.282   4.224
 6684TIP3    H119997   4.128   5.224   4.151
 6684TIP3    H219998   4.112   5.226   4.302
 6685TIP3   OH219999   1.879   0.915   1.590
 6685TIP3    H120000   1.823   0.958   1.525
 6685TIP3    H220001   1.963   0.959   1.582
 6686TIP3   OH220002   1.946   7.546   4.212
 6686TIP3    H120003   1.908   7.491   4.143
 6686TIP3    H220004   2.018   7.592   4.168
 6687TIP3   OH220005   4.352   6.442   0.737
 6687TIP3    H120006   4.392   6.478   0.816
 6687TIP3    H220007   4.293   6.510   0.705
 6688TIP3   OH220008   8.188   4.575   6.684
 6688TIP3    H120009   8.168   4.664   6.655
 6688TIP3    H220010   8.266   4.585   6.738
 6689TIP3   OH220011   6.450   2.749   6.221
 6689TIP3    H120012   6.410   2.793   6.146
 6689TIP3    H220013   6.378   2.700   6.261
 6690TIP3   OH220014   2.239   7.542   2.524
 6690TIP3    H120015   2.181   7.467   2.540
 6690TIP3    H220016   2.206   7.609   2.583
 6691TIP3   OH220017   6.002   1.150   3.808
 6691TIP3    H120018   6.065   1.090   3.849
 6691TIP3    H220019   6.056   1.211   3.758
 6692TIP3   OH220020   4.110   0.356   2.357
 6692TIP3    H120021   4.081   0.400   2.437
 6692TIP3    H220022   4.108   0.424   2.290
 6693TIP3   OH220023   7.932   0.256   4.869
 6693TIP3    H120024   7.988   0.303   4.931
 6693TIP3    H220025   7.954   0.164   4.882
 6694TIP3   OH220026   2.221   4.196   0.436
 6694TIP3    H120027   2.175   4.254   0.374
 6694TIP3    H220028   2.287   4.152   0.383
 6695TIP3   OH220029   6.279   7.520   4.261
 6695TIP3    H120030   6.321   7.603   4.283
 6695TIP3    H220031   6.336   7.453   4.299
 6696TIP3   OH220032   6.806   0.340   6.593
 6696TIP3    H120033   6.811   0.248   6.569
 6696TIP3    H220034   6.726   0.348   6.644
 6697TIP3   OH220035   1.898   1.098   2.230
 6697TIP3    H120036   1.920   1.010   2.258
 6697TIP3    H220037   1.929   1.155   2.300
 6698TIP3   OH220038   0.199   1.386   0.843
 6698TIP3    H120039   0.174   1.297   0.819
 6698TIP3    H220040   0.160   1.441   0.776
 6699TIP3   OH220041   2.328   3.958   5.004
 6699TIP3    H120042   2.363   4.047   4.994
 6699TIP3    H220043   2.296   3.955   5.094
 6700TIP3   OH220044   3.518   1.599   6.540
 6700TIP3    H120045   3.581   1.585   6.469
 6700TIP3    H220046   3.473   1.680   6.516
 6701TIP3   OH220047   3.084   0.063   5.624
 6701TIP3    H120048   3.042   0.096   5.703
 6701TIP3    H220049   3.164   0.115   5.615
 6702TIP3   OH220050   2.010   0.130   0.323
 6702TIP3    H120051   1.934   0.080   0.355
 6702TIP3    H220052   2.022   0.199   0.388
 6703TIP3   OH220053   5.016   7.168   1.428
 6703TIP3    H120054   5.025   7.259   1.402
 6703TIP3    H220055   4.928   7.162   1.465
 6704TIP3   OH220056   2.145   3.376   3.032
 6704TIP3    H120057   2.060   3.410   3.003
 6704TIP3    H220058   2.189   3.348   2.951
 6705TIP3   OH220059  -0.033   7.056   6.285
 6705TIP3    H120060   0.017   7.117   6.231
 6705TIP3    H220061   0.031   6.993   6.318
 6706TIP3   OH220062   6.532   4.361   2.243
 6706TIP3    H120063   6.505   4.287   2.296
 6706TIP3    H220064   6.619   4.384   2.276
 6707TIP3   OH220065   3.750   2.662   3.009
 6707TIP3    H120066   3.662   2.647   2.975
 6707TIP3    H220067   3.738   2.673   3.103
 6708TIP3   OH220068   4.150   3.429   0.153
 6708TIP3    H120069   4.237   3.428   0.193
 6708TIP3    H220070   4.105   3.501   0.197
 6709TIP3   OH220071   4.782   2.129   5.718
 6709TIP3    H120072   4.863   2.144   5.767
 6709TIP3    H220073   4.716   2.181   5.764
 6710TIP3   OH220074   4.831   0.178   6.771
 6710TIP3    H120075   4.901   0.157   6.709
 6710TIP3    H220076   4.852   0.266   6.802
 6711TIP3   OH220077   5.932   0.133   4.076
 6711TIP3    H120078   5.996   0.176   4.132
 6711TIP3    H220079   5.968   0.143   3.988
 6712TIP3   OH220080   0.351   6.200   5.628
 6712TIP3    H120081   0.415   6.134   5.656
 6712TIP3    H220082   0.291   6.207   5.703
 6713TIP3   OH220083   0.703   6.862   0.093
 6713TIP3    H120084   0.784   6.844   0.140
 6713TIP3    H220085   0.717   6.825   0.006
 6714TIP3   OH220086   0.799   2.799   4.800
 6714TIP3    H120087   0.800   2.801   4.896
 6714TIP3    H220088   0.862   2.731   4.777
 6715TIP3   OH220089   3.505   3.064   5.326
 6715TIP3    H120090   3.498   3.054   5.231
 6715TIP3    H220091   3.548   3.149   5.337
 6716TIP3   OH220092   4.471   0.421   2.092
 6716TIP3    H120093   4.412   0.395   2.162
 6716TIP3    H220094   4.442   0.510   2.068
 6717TIP3   OH220095   6.694   0.948   4.866
 6717TIP3    H120096   6.766   1.011   4.868
 6717TIP3    H220097   6.669   0.943   4.774
 6718TIP3   OH220098   6.317   0.902   3.901
 6718TIP3    H120099   6.228   0.918   3.932
 6718TIP3    H220100   6.347   0.828   3.954
 6719TIP3   OH220101   5.782   4.317   0.639
 6719TIP3    H120102   5.796   4.343   0.548
 6719TIP3    H220103   5.869   4.320   0.678
 6720TIP3   OH220104   1.934   3.009   6.042
 6720TIP3    H120105   2.021   3.035   6.072
 6720TIP3    H220106   1.890   3.092   6.021
 6721TIP3   OH220107   7.748   7.422   3.512
 6721TIP3    H120108   7.705   7.507   3.516
 6721TIP3    H220109   7.789   7.420   3.425
 6722TIP3   OH220110   3.804   4.068   5.571
 6722TIP3    H120111   3.855   4.053   5.651
 6722TIP3    H220112   3.783   3.980   5.539
 6723TIP3   OH220113   3.138   6.664   2.903
 6723TIP3    H120114   3.093   6.579   2.902
 6723TIP3    H220115   3.157   6.682   2.811
 6724TIP3   OH220116   5.717   7.319   6.337
 6724TIP3    H120117   5.788   7.259   6.361
 6724TIP3    H220118   5.749   7.406   6.361
 6725TIP3   OH220119   2.696   3.663   2.642
 6725TIP3    H120120   2.673   3.754   2.661
 6725TIP3    H220121   2.786   3.668   2.608
 6726TIP3   OH220122   6.041   4.291   0.760
 6726TIP3    H120123   6.060   4.354   0.829
 6726TIP3    H220124   6.097   4.317   0.687
 6727TIP3   OH220125   5.516   2.422   4.798
 6727TIP3    H120126   5.552   2.382   4.877
 6727TIP3    H220127   5.491   2.510   4.825
 6728TIP3   OH220128   2.464   3.953   0.392
 6728TIP3    H120129   2.444   3.933   0.484
 6728TIP3    H220130   2.557   3.977   0.393
 6729TIP3   OH220131   2.296   0.289   3.661
 6729TIP3    H120132   2.348   0.314   3.584
 6729TIP3    H220133   2.209   0.324   3.644
 6730TIP3   OH220134   4.283   3.881   1.517
 6730TIP3    H120135   4.329   3.946   1.572
 6730TIP3    H220136   4.265   3.928   1.436
 6731TIP3   OH220137   8.125   0.045   1.554
 6731TIP3    H120138   8.050   0.064   1.611
 6731TIP3    H220139   8.201   0.047   1.613
 6732TIP3   OH220140   6.117   3.473   4.550
 6732TIP3    H120141   6.125   3.391   4.599
 6732TIP3    H220142   6.053   3.453   4.481
 6733TIP3   OH220143   2.495   3.891   0.669
 6733TIP3    H120144   2.494   3.830   0.742
 6733TIP3    H220145   2.403   3.917   0.659
 6734TIP3   OH220146   4.742  -0.001   6.250
 6734TIP3    H120147   4.653   0.034   6.244
 6734TIP3    H220148   4.798   0.070   6.217
 6735TIP3   OH220149   0.905   2.368   4.502
 6735TIP3    H120150   0.917   2.313   4.424
 6735TIP3    H220151   0.988   2.361   4.549
 6736TIP3   OH220152   7.573   7.489   6.255
 6736TIP3    H120153   7.641   7.428   6.227
 6736TIP3    H220154   7.538   7.451   6.336
 6737TIP3   OH220155   2.849   4.962   2.680
 6737TIP3    H120156   2.832   5.040   2.733
 6737TIP3    H220157   2.815   4.890   2.733
 6738TIP3   OH220158   4.531   7.430   5.498
 6738TIP3    H120159   4.558   7.521   5.488
 6738TIP3    H220160   4.471   7.430   5.572
 6739TIP3   OH220161   6.888   0.405   3.034
 6739TIP3    H120162   6.801   0.433   3.005
 6739TIP3    H220163   6.878   0.393   3.129
 6740TIP3   OH220164   2.932   1.703   4.868
 6740TIP3    H120165   2.862   1.761   4.838
 6740TIP3    H220166   2.956   1.652   4.790
 6741TIP3   OH220167   0.641   3.382   4.372
 6741TIP3    H120168   0.616   3.291   4.357
 6741TIP3    H220169   0.565   3.433   4.345
 6742TIP3   OH220170   4.847   2.083   2.563
 6742TIP3    H120171   4.859   2.174   2.538
 6742TIP3    H220172   4.901   2.034   2.501
 6743TIP3   OH220173   5.019   7.810   6.011
 6743TIP3    H120174   5.017   7.742   5.944
 6743TIP3    H220175   5.106   7.849   6.003
 6744TIP3   OH220176   2.463   1.332   6.460
 6744TIP3    H120177   2.422   1.246   6.453
 6744TIP3    H220178   2.452   1.371   6.374
 6745TIP3   OH220179   1.506   3.769   4.507
 6745TIP3    H120180   1.482   3.844   4.453
 6745TIP3    H220181   1.590   3.740   4.472
 6746TIP3   OH220182   4.872   4.060   2.496
 6746TIP3    H120183   4.866   3.990   2.430
 6746TIP3    H220184   4.790   4.052   2.546
 6747TIP3   OH220185   4.014   3.066   1.342
 6747TIP3    H120186   4.103   3.030   1.336
 6747TIP3    H220187   3.959   2.991   1.364
 6748TIP3   OH220188   6.835   3.884   6.063
 6748TIP3    H120189   6.794   3.914   6.144
 6748TIP3    H220190   6.866   3.964   6.021
 6749TIP3   OH220191   3.797   2.190   3.856
 6749TIP3    H120192   3.826   2.228   3.773
 6749TIP3    H220193   3.860   2.223   3.920
 6750TIP3   OH220194   5.200   2.270   4.750
 6750TIP3    H120195   5.232   2.332   4.684
 6750TIP3    H220196   5.193   2.187   4.703
 6751TIP3   OH220197   2.093   5.461   1.054
 6751TIP3    H120198   2.076   5.419   0.969
 6751TIP3    H220199   2.007   5.466   1.095
 6752TIP3   OH220200   2.739   0.478   1.251
 6752TIP3    H120201   2.659   0.429   1.273
 6752TIP3    H220202   2.710   0.541   1.184
 6753TIP3   OH220203   5.560   4.615   5.670
 6753TIP3    H120204   5.565   4.705   5.638
 6753TIP3    H220205   5.496   4.573   5.612
 6754TIP3   OH220206   6.262   5.384   6.480
 6754TIP3    H120207   6.213   5.465   6.470
 6754TIP3    H220208   6.266   5.370   6.575
 6755TIP3   OH220209   5.461   3.176   1.005
 6755TIP3    H120210   5.487   3.088   0.977
 6755TIP3    H220211   5.375   3.189   0.965
 6756TIP3   OH220212   6.000   2.359   2.147
 6756TIP3    H120213   6.027   2.270   2.128
 6756TIP3    H220214   5.904   2.357   2.141
 6757TIP3   OH220215   4.683   3.612   4.325
 6757TIP3    H120216   4.763   3.567   4.349
 6757TIP3    H220217   4.710   3.702   4.308
 6758TIP3   OH220218   0.765   7.670   4.963
 6758TIP3    H120219   0.767   7.721   5.044
 6758TIP3    H220220   0.857   7.666   4.936
 6759TIP3   OH220221   5.427   6.833   1.395
 6759TIP3    H120222   5.352   6.874   1.438
 6759TIP3    H220223   5.419   6.860   1.303
 6760TIP3   OH220224   7.956   4.093   3.483
 6760TIP3    H120225   7.978   4.010   3.439
 6760TIP3    H220226   7.867   4.080   3.515
 6761TIP3   OH220227   1.404   4.251   4.290
 6761TIP3    H120228   1.339   4.254   4.220
 6761TIP3    H220229   1.360   4.290   4.366
 6762TIP3   OH220230   3.661   3.600   6.352
 6762TIP3    H120231   3.569   3.605   6.326
 6762TIP3    H220232   3.690   3.691   6.355
 6763TIP3   OH220233   7.691   6.418   2.321
 6763TIP3    H120234   7.729   6.341   2.363
 6763TIP3    H220235   7.599   6.393   2.305
 6764TIP3   OH220236   8.157   4.623   5.439
 6764TIP3    H120237   8.190   4.555   5.498
 6764TIP3    H220238   8.090   4.669   5.491
 6765TIP3   OH220239   8.143   7.249   6.428
 6765TIP3    H120240   8.169   7.179   6.368
 6765TIP3    H220241   8.217   7.310   6.425
 6766TIP3   OH220242   7.853   5.202   3.064
 6766TIP3    H120243   7.850   5.124   3.009
 6766TIP3    H220244   7.931   5.191   3.118
 6767TIP3   OH220245   7.837   5.400   2.846
 6767TIP3    H120246   7.860   5.492   2.859
 6767TIP3    H220247   7.850   5.359   2.932
 6768TIP3   OH220248   3.957   3.179   2.725
 6768TIP3    H120249   3.865   3.205   2.725
 6768TIP3    H220250   3.977   3.161   2.817
 6769TIP3   OH220251   4.282   2.953   5.343
 6769TIP3    H120252   4.306   2.879   5.287
 6769TIP3    H220253   4.288   2.919   5.432
 6770TIP3   OH220254   3.418   2.351   0.975
 6770TIP3    H120255   3.441   2.426   0.920
 6770TIP3    H220256   3.410   2.387   1.063
 6771TIP3   OH220257   2.985   4.384   1.496
 6771TIP3    H120258   2.973   4.342   1.411
 6771TIP3    H220259   3.074   4.362   1.522
 6772TIP3   OH220260   4.979   1.946   0.192
 6772TIP3    H120261   5.050   1.950   0.128
 6772TIP3    H220262   5.007   2.003   0.263
 6773TIP3   OH220263   6.665   1.985   0.910
 6773TIP3    H120264   6.613   1.944   0.979
 6773TIP3    H220265   6.601   2.010   0.843
 6774TIP3   OH220266   2.902   4.045   2.254
 6774TIP3    H120267   2.952   3.986   2.310
 6774TIP3    H220268   2.902   4.004   2.168
 6775TIP3   OH220269   6.066   5.672   3.649
 6775TIP3    H120270   5.984   5.652   3.693
 6775TIP3    H220271   6.053   5.758   3.611
 6776TIP3   OH220272   8.237   4.215   6.018
 6776TIP3    H120273   8.159   4.188   6.067
 6776TIP3    H220274   8.310   4.197   6.078
 6777TIP3   OH220275   0.746   7.496   3.804
 6777TIP3    H120276   0.659   7.504   3.764
 6777TIP3    H220277   0.794   7.573   3.773
 6778TIP3   OH220278   6.580   6.637   1.567
 6778TIP3    H120279   6.590   6.627   1.662
 6778TIP3    H220280   6.512   6.575   1.543
 6779TIP3   OH220281   2.597   6.985   5.031
 6779TIP3    H120282   2.564   6.971   5.120
 6779TIP3    H220283   2.683   6.942   5.030
 6780TIP3   OH220284   0.216   1.564   3.691
 6780TIP3    H120285   0.231   1.654   3.719
 6780TIP3    H220286   0.211   1.513   3.772
 6781TIP3   OH220287   7.764   0.184   2.981
 6781TIP3    H120288   7.671   0.166   2.968
 6781TIP3    H220289   7.771   0.212   3.072
 6782TIP3   OH220290   2.636   2.986   6.505
 6782TIP3    H120291   2.628   3.073   6.542
 6782TIP3    H220292   2.573   2.933   6.554
 6783TIP3   OH220293   4.111   3.451   6.645
 6783TIP3    H120294   4.059   3.396   6.704
 6783TIP3    H220295   4.084   3.424   6.557
 6784TIP3   OH220296   4.045   6.072   3.435
 6784TIP3    H120297   3.966   6.105   3.393
 6784TIP3    H220298   4.105   6.054   3.363
 6785TIP3   OH220299   6.953   3.316   5.900
 6785TIP3    H120300   6.858   3.319   5.897
 6785TIP3    H220301   6.980   3.408   5.909
 6786TIP3   OH220302   0.477   1.449   5.320
 6786TIP3    H120303   0.476   1.541   5.344
 6786TIP3    H220304   0.442   1.403   5.397
 6787TIP3   OH220305   7.795   2.267   5.739
 6787TIP3    H120306   7.703   2.251   5.758
 6787TIP3    H220307   7.842   2.233   5.815
 6788TIP3   OH220308   5.086   0.145   6.646
 6788TIP3    H120309   5.122   0.131   6.559
 6788TIP3    H220310   5.129   0.226   6.677
 6789TIP3   OH220311   4.365   0.678   2.120
 6789TIP3    H120312   4.324   0.708   2.039
 6789TIP3    H220313   4.428   0.747   2.143
 6790TIP3   OH220314   5.982   4.105   1.577
 6790TIP3    H120315   5.986   4.010   1.585
 6790TIP3    H220316   6.020   4.124   1.492
 6791TIP3   OH220317   5.196   7.421   5.468
 6791TIP3    H120318   5.261   7.392   5.531
 6791TIP3    H220319   5.130   7.351   5.468
 6792TIP3   OH220320   1.201   5.237   2.538
 6792TIP3    H120321   1.210   5.246   2.443
 6792TIP3    H220322   1.109   5.214   2.551
 6793TIP3   OH220323   3.254   3.026   3.614
 6793TIP3    H120324   3.200   3.051   3.689
 6793TIP3    H220325   3.328   2.979   3.652
 6794TIP3   OH220326   5.817   1.117   4.287
 6794TIP3    H120327   5.886   1.178   4.263
 6794TIP3    H220328   5.777   1.154   4.365
 6795TIP3   OH220329   1.814   0.484   6.622
 6795TIP3    H120330   1.886   0.486   6.685
 6795TIP3    H220331   1.737   0.463   6.674
 6796TIP3   OH220332   8.054   3.420   0.540
 6796TIP3    H120333   7.969   3.440   0.501
 6796TIP3    H220334   8.082   3.339   0.498
 6797TIP3   OH220335   1.290   2.884   5.985
 6797TIP3    H120336   1.277   2.806   6.038
 6797TIP3    H220337   1.351   2.938   6.036
 6798TIP3   OH220338   8.197   7.780   4.786
 6798TIP3    H120339   8.220   7.815   4.700
 6798TIP3    H220340   8.172   7.689   4.768
 6799TIP3   OH220341   5.431   1.404   5.049
 6799TIP3    H120342   5.393   1.468   5.109
 6799TIP3    H220343   5.358   1.349   5.022
 6800TIP3   OH220344   7.640   5.223   4.112
 6800TIP3    H120345   7.557   5.254   4.075
 6800TIP3    H220346   7.614   5.176   4.191
 6801TIP3   OH220347   4.018   6.669   3.552
 6801TIP3    H120348   4.077   6.698   3.622
 6801TIP3    H220349   3.942   6.634   3.598
 6802TIP3   OH220350   7.386   1.006   0.388
 6802TIP3    H120351   7.329   1.080   0.370
 6802TIP3    H220352   7.382   0.995   0.483
 6803TIP3   OH220353   1.174   7.276   0.296
 6803TIP3    H120354   1.251   7.326   0.324
 6803TIP3    H220355   1.209   7.197   0.254
 6804TIP3   OH220356   4.741   4.753   5.387
 6804TIP3    H120357   4.835   4.771   5.393
 6804TIP3    H220358   4.736   4.662   5.357
 6805TIP3   OH220359   4.321   0.916   3.496
 6805TIP3    H120360   4.258   0.928   3.567
 6805TIP3    H220361   4.293   0.835   3.452
 6806TIP3   OH220362   3.006   0.714   4.766
 6806TIP3    H120363   2.933   0.734   4.706
 6806TIP3    H220364   3.051   0.798   4.777
 6807TIP3   OH220365   2.024   0.948   2.455
 6807TIP3    H120366   2.114   0.918   2.467
 6807TIP3    H220367   2.027   1.041   2.478
 6808TIP3   OH220368   7.028   1.789   5.556
 6808TIP3    H120369   6.960   1.755   5.498
 6808TIP3    H220370   6.981   1.814   5.635
 6809TIP3   OH220371   2.492   6.919   1.423
 6809TIP3    H120372   2.575   6.895   1.464
 6809TIP3    H220373   2.425   6.887   1.484
 6810TIP3   OH220374   4.478   3.393   6.713
 6810TIP3    H120375   4.565   3.361   6.738
 6810TIP3    H220376   4.417   3.344   6.769
 6811TIP3   OH220377   1.208   5.316   0.993
 6811TIP3    H120378   1.121   5.347   1.016
 6811TIP3    H220379   1.217   5.339   0.900
 6812TIP3   OH220380   6.940   0.220   4.113
 6812TIP3    H120381   6.874   0.224   4.043
 6812TIP3    H220382   6.955   0.312   4.137
 6813TIP3   OH220383   1.741   0.707   0.033
 6813TIP3    H120384   1.723   0.695  -0.060
 6813TIP3    H220385   1.698   0.790   0.055
 6814TIP3   OH220386   0.474   5.773   3.423
 6814TIP3    H120387   0.460   5.691   3.374
 6814TIP3    H220388   0.448   5.842   3.362
 6815TIP3   OH220389   8.209   2.370   3.400
 6815TIP3    H120390   8.196   2.343   3.491
 6815TIP3    H220391   8.134   2.427   3.381
 6816TIP3   OH220392   3.990   6.976   0.748
 6816TIP3    H120393   3.971   6.927   0.668
 6816TIP3    H220394   4.069   7.025   0.727
 6817TIP3   OH220395   3.358   6.471   4.625
 6817TIP3    H120396   3.426   6.422   4.579
 6817TIP3    H220397   3.338   6.545   4.567
 6818TIP3   OH220398   6.123   2.882   4.480
 6818TIP3    H120399   6.098   2.901   4.389
 6818TIP3    H220400   6.218   2.875   4.477
 6819TIP3   OH220401   6.130   2.249   0.693
 6819TIP3    H120402   6.072   2.278   0.763
 6819TIP3    H220403   6.172   2.170   0.728
 6820TIP3   OH220404   7.710   5.526   3.891
 6820TIP3    H120405   7.773   5.554   3.825
 6820TIP3    H220406   7.763   5.487   3.960
 6821TIP3   OH220407   7.530   4.457   5.845
 6821TIP3    H120408   7.568   4.523   5.788
 6821TIP3    H220409   7.605   4.405   5.875
 6822TIP3   OH220410   5.465   3.295   2.824
 6822TIP3    H120411   5.501   3.305   2.913
 6822TIP3    H220412   5.394   3.232   2.834
 6823TIP3   OH220413   3.182   5.376   0.798
 6823TIP3    H120414   3.190   5.381   0.702
 6823TIP3    H220415   3.125   5.301   0.813
 6824TIP3   OH220416   0.262   6.115   1.733
 6824TIP3    H120417   0.257   6.150   1.822
 6824TIP3    H220418   0.282   6.191   1.678
 6825TIP3   OH220419   1.695   4.214   1.646
 6825TIP3    H120420   1.767   4.245   1.590
 6825TIP3    H220421   1.650   4.148   1.593
 6826TIP3   OH220422   7.849   0.872   2.763
 6826TIP3    H120423   7.796   0.936   2.811
 6826TIP3    H220424   7.873   0.917   2.682
 6827TIP3   OH220425   5.086   4.600   2.834
 6827TIP3    H120426   5.182   4.593   2.832
 6827TIP3    H220427   5.056   4.509   2.842
 6828TIP3   OH220428   4.474   2.892   6.373
 6828TIP3    H120429   4.460   2.879   6.467
 6828TIP3    H220430   4.556   2.847   6.353
 6829TIP3   OH220431   2.960   6.517   5.745
 6829TIP3    H120432   2.877   6.471   5.757
 6829TIP3    H220433   3.024   6.464   5.794
 6830TIP3   OH220434   1.908   1.424   2.101
 6830TIP3    H120435   1.951   1.395   2.021
 6830TIP3    H220436   1.899   1.519   2.090
 6831TIP3   OH220437   2.912   5.648   1.713
 6831TIP3    H120438   2.930   5.565   1.757
 6831TIP3    H220439   2.947   5.715   1.771
 6832TIP3   OH220440   7.434   7.493   4.593
 6832TIP3    H120441   7.469   7.474   4.680
 6832TIP3    H220442   7.509   7.484   4.534
 6833TIP3   OH220443   2.775   3.442   1.262
 6833TIP3    H120444   2.822   3.397   1.332
 6833TIP3    H220445   2.816   3.529   1.258
 6834TIP3   OH220446   4.033   1.332   5.225
 6834TIP3    H120447   4.113   1.303   5.268
 6834TIP3    H220448   4.034   1.289   5.140
 6835TIP3   OH220449   6.096   0.440   2.228
 6835TIP3    H120450   6.167   0.418   2.289
 6835TIP3    H220451   6.140   0.456   2.145
 6836TIP3   OH220452   4.587   0.002   2.211
 6836TIP3    H120453   4.621   0.051   2.286
 6836TIP3    H220454   4.606   0.058   2.135
 6837TIP3   OH220455   5.646   6.000   0.257
 6837TIP3    H120456   5.626   6.092   0.274
 6837TIP3    H220457   5.577   5.971   0.198
 6838TIP3   OH220458   6.338   5.678   3.705
 6838TIP3    H120459   6.345   5.718   3.791
 6838TIP3    H220460   6.245   5.658   3.695
 6839TIP3   OH220461   1.458   2.089   3.065
 6839TIP3    H120462   1.513   2.056   2.994
 6839TIP3    H220463   1.456   2.184   3.050
 6840TIP3   OH220464   1.526   7.365   1.936
 6840TIP3    H120465   1.577   7.287   1.958
 6840TIP3    H220466   1.553   7.431   1.999
 6841TIP3   OH220467   0.712   3.617   6.605
 6841TIP3    H120468   0.674   3.657   6.527
 6841TIP3    H220469   0.652   3.546   6.627
 6842TIP3   OH220470   2.179   1.344   3.340
 6842TIP3    H120471   2.124   1.268   3.359
 6842TIP3    H220472   2.155   1.370   3.251
 6843TIP3   OH220473   3.504   3.841   3.812
 6843TIP3    H120474   3.434   3.850   3.877
 6843TIP3    H220475   3.526   3.748   3.813
 6844TIP3   OH220476   6.418   2.226   1.191
 6844TIP3    H120477   6.483   2.157   1.207
 6844TIP3    H220478   6.470   2.301   1.162
 6845TIP3   OH220479   6.277   1.011   0.377
 6845TIP3    H120480   6.199   1.013   0.321
 6845TIP3    H220481   6.285   1.100   0.409
 6846TIP3   OH220482   7.925   0.763   6.383
 6846TIP3    H120483   7.968   0.823   6.444
 6846TIP3    H220484   7.960   0.677   6.405
 6847TIP3   OH220485   1.303   7.590   4.653
 6847TIP3    H120486   1.294   7.683   4.670
 6847TIP3    H220487   1.234   7.571   4.589
 6848TIP3   OH220488   3.039   0.707   0.979
 6848TIP3    H120489   3.025   0.772   1.048
 6848TIP3    H220490   3.083   0.634   1.024
 6849TIP3   OH220491   8.303   7.378   0.688
 6849TIP3    H120492   8.294   7.329   0.770
 6849TIP3    H220493   8.249   7.456   0.700
 6850TIP3   OH220494   1.501   0.367   5.718
 6850TIP3    H120495   1.486   0.306   5.790
 6850TIP3    H220496   1.516   0.311   5.641
 6851TIP3   OH220497   5.944   5.484   1.908
 6851TIP3    H120498   5.948   5.557   1.845
 6851TIP3    H220499   5.873   5.509   1.968
 6852TIP3   OH220500   6.920   2.966   5.716
 6852TIP3    H120501   6.996   2.939   5.665
 6852TIP3    H220502   6.888   3.045   5.673
 6853TIP3   OH220503   1.588   6.443   2.670
 6853TIP3    H120504   1.517   6.448   2.606
 6853TIP3    H220505   1.605   6.534   2.694
 6854TIP3   OH220506   7.974   6.443   5.643
 6854TIP3    H120507   7.933   6.430   5.558
 6854TIP3    H220508   7.900   6.450   5.704
 6855TIP3   OH220509   3.046   2.132   0.172
 6855TIP3    H120510   3.065   2.043   0.141
 6855TIP3    H220511   3.121   2.154   0.227
 6856TIP3   OH220512   1.976   6.021   5.895
 6856TIP3    H120513   2.025   6.096   5.929
 6856TIP3    H220514   1.890   6.056   5.873
 6857TIP3   OH220515   7.733   0.268   3.261
 6857TIP3    H120516   7.739   0.172   3.266
 6857TIP3    H220517   7.645   0.288   3.293
 6858TIP3   OH220518   6.948   1.187   5.064
 6858TIP3    H120519   6.889   1.240   5.117
 6858TIP3    H220520   6.999   1.251   5.014
 6859TIP3   OH220521   2.974   2.689   1.621
 6859TIP3    H120522   2.880   2.694   1.602
 6859TIP3    H220523   2.992   2.595   1.628
 6860TIP3   OH220524   7.800   0.769   5.351
 6860TIP3    H120525   7.836   0.735   5.432
 6860TIP3    H220526   7.718   0.811   5.377
 6861TIP3   OH220527   5.833   6.592   6.578
 6861TIP3    H120528   5.834   6.602   6.674
 6861TIP3    H220529   5.794   6.674   6.546
 6862TIP3   OH220530   2.754   3.837   4.379
 6862TIP3    H120531   2.823   3.806   4.438
 6862TIP3    H220532   2.713   3.909   4.426
 6863TIP3   OH220533   6.488   2.569   4.756
 6863TIP3    H120534   6.412   2.628   4.751
 6863TIP3    H220535   6.483   2.531   4.844
 6864TIP3   OH220536   0.316   1.106   3.591
 6864TIP3    H120537   0.357   1.045   3.530
 6864TIP3    H220538   0.389   1.153   3.631
 6865TIP3   OH220539   6.392   3.055   4.898
 6865TIP3    H120540   6.321   2.995   4.923
 6865TIP3    H220541   6.355   3.142   4.914
 6866TIP3   OH220542   5.628   6.330   6.073
 6866TIP3    H120543   5.632   6.347   5.979
 6866TIP3    H220544   5.716   6.350   6.105
 6867TIP3   OH220545   4.077   4.070   3.959
 6867TIP3    H120546   4.104   4.040   4.045
 6867TIP3    H220547   4.071   3.990   3.906
 6868TIP3   OH220548   1.085   1.989   4.935
 6868TIP3    H120549   1.051   2.042   5.008
 6868TIP3    H220550   1.009   1.942   4.901
 6869TIP3   OH220551   5.133   3.345   2.082
 6869TIP3    H120552   5.062   3.291   2.047
 6869TIP3    H220553   5.126   3.336   2.177
 6870TIP3   OH220554   1.901   2.329   2.707
 6870TIP3    H120555   1.868   2.385   2.637
 6870TIP3    H220556   1.882   2.377   2.787
 6871TIP3   OH220557   3.862   0.907   1.450
 6871TIP3    H120558   3.838   0.994   1.418
 6871TIP3    H220559   3.950   0.892   1.415
 6872TIP3   OH220560   5.573   3.959   4.552
 6872TIP3    H120561   5.523   3.972   4.633
 6872TIP3    H220562   5.511   3.919   4.491
 6873TIP3   OH220563   1.956   7.516   2.986
 6873TIP3    H120564   2.031   7.483   2.937
 6873TIP3    H220565   1.978   7.607   3.006
 6874TIP3   OH220566   0.177   7.017   3.848
 6874TIP3    H120567   0.190   6.924   3.864
 6874TIP3    H220568   0.250   7.042   3.790
 6875TIP3   OH220569   8.109   0.583   4.106
 6875TIP3    H120570   8.064   0.501   4.121
 6875TIP3    H220571   8.039   0.648   4.099
 6876TIP3   OH220572   1.499   3.226   5.080
 6876TIP3    H120573   1.444   3.160   5.037
 6876TIP3    H220574   1.455   3.243   5.162
 6877TIP3   OH220575   5.520   2.803   1.593
 6877TIP3    H120576   5.499   2.883   1.544
 6877TIP3    H220577   5.515   2.829   1.685
 6878TIP3   OH220578   6.733   0.465   4.555
 6878TIP3    H120579   6.669   0.537   4.559
 6878TIP3    H220580   6.714   0.413   4.633
 6879TIP3   OH220581   5.214   7.040   3.215
 6879TIP3    H120582   5.164   6.997   3.146
 6879TIP3    H220583   5.166   7.018   3.295
 6880TIP3   OH220584   5.162   3.534   6.510
 6880TIP3    H120585   5.227   3.592   6.548
 6880TIP3    H220586   5.101   3.516   6.581
 6881TIP3   OH220587   5.969   5.488   3.154
 6881TIP3    H120588   6.041   5.545   3.126
 6881TIP3    H220589   5.948   5.517   3.242
 6882TIP3   OH220590   3.350   0.096   5.908
 6882TIP3    H120591   3.382   0.171   5.958
 6882TIP3    H220592   3.351   0.126   5.817
 6883TIP3   OH220593   7.268   6.632   2.517
 6883TIP3    H120594   7.290   6.663   2.429
 6883TIP3    H220595   7.203   6.563   2.503
 6884TIP3   OH220596   4.308   0.460   2.801
 6884TIP3    H120597   4.358   0.459   2.719
 6884TIP3    H220598   4.372   0.483   2.868
 6885TIP3   OH220599   3.438   3.505   2.050
 6885TIP3    H120600   3.441   3.592   2.010
 6885TIP3    H220601   3.499   3.452   1.999
 6886TIP3   OH220602   7.700   2.674   2.405
 6886TIP3    H120603   7.650   2.717   2.473
 6886TIP3    H220604   7.684   2.726   2.326
 6887TIP3   OH220605   2.225   2.100   0.814
 6887TIP3    H120606   2.161   2.171   0.817
 6887TIP3    H220607   2.306   2.141   0.786
 6888TIP3   OH220608   3.058   4.675   6.001
 6888TIP3    H120609   3.016   4.620   6.067
 6888TIP3    H220610   3.118   4.731   6.051
 6889TIP3   OH220611   6.591   4.093   6.533
 6889TIP3    H120612   6.576   4.064   6.623
 6889TIP3    H220613   6.642   4.174   6.542
 6890TIP3   OH220614   1.571   6.146   6.192
 6890TIP3    H120615   1.556   6.168   6.284
 6890TIP3    H220616   1.581   6.231   6.149
 6891TIP3   OH220617   2.102   2.903   5.797
 6891TIP3    H120618   2.127   2.849   5.722
 6891TIP3    H220619   2.017   2.941   5.773
 6892TIP3   OH220620   4.733   3.408   5.336
 6892TIP3    H120621   4.769   3.350   5.270
 6892TIP3    H220622   4.692   3.350   5.401
 6893TIP3   OH220623   2.791   7.251   1.868
 6893TIP3    H120624   2.808   7.321   1.804
 6893TIP3    H220625   2.726   7.195   1.826
 6894TIP3   OH220626   0.646   2.452   2.958
 6894TIP3    H120627   0.616   2.470   2.869
 6894TIP3    H220628   0.666   2.359   2.959
 6895TIP3   OH220629   1.571   5.250   3.777
 6895TIP3    H120630   1.538   5.266   3.865
 6895TIP3    H220631   1.583   5.156   3.772
 6896TIP3   OH220632   5.399   6.766   4.097
 6896TIP3    H120633   5.453   6.726   4.029
 6896TIP3    H220634   5.323   6.708   4.103
 6897TIP3   OH220635   0.881   1.337   1.275
 6897TIP3    H120636   0.907   1.377   1.192
 6897TIP3    H220637   0.786   1.327   1.268
 6898TIP3   OH220638   3.952   3.902   4.601
 6898TIP3    H120639   3.875   3.864   4.559
 6898TIP3    H220640   3.939   3.996   4.595
 6899TIP3   OH220641   0.382   5.749   1.897
 6899TIP3    H120642   0.376   5.747   1.801
 6899TIP3    H220643   0.419   5.835   1.916
 6900TIP3   OH220644   5.778   0.592   1.622
 6900TIP3    H120645   5.853   0.541   1.652
 6900TIP3    H220646   5.813   0.680   1.607
 6901TIP3   OH220647   2.643   4.569   4.067
 6901TIP3    H120648   2.671   4.544   4.155
 6901TIP3    H220649   2.602   4.490   4.032
 6902TIP3   OH220650   1.173   1.204   4.122
 6902TIP3    H120651   1.130   1.119   4.133
 6902TIP3    H220652   1.155   1.251   4.204
 6903TIP3   OH220653   6.578   2.906   5.522
 6903TIP3    H120654   6.648   2.842   5.516
 6903TIP3    H220655   6.605   2.976   5.462
 6904TIP3   OH220656   1.041   3.505   6.670
 6904TIP3    H120657   0.988   3.509   6.590
 6904TIP3    H220658   0.990   3.557   6.733
 6905TIP3   OH220659   2.473   6.554   2.470
 6905TIP3    H120660   2.564   6.559   2.500
 6905TIP3    H220661   2.471   6.609   2.391
 6906TIP3   OH220662   0.984   2.190   0.822
 6906TIP3    H120663   0.913   2.231   0.771
 6906TIP3    H220664   1.064   2.227   0.784
 6907TIP3   OH220665   1.654   7.606   3.870
 6907TIP3    H120666   1.616   7.579   3.786
 6907TIP3    H220667   1.579   7.636   3.921
 6908TIP3   OH220668   0.457   5.239   4.577
 6908TIP3    H120669   0.505   5.171   4.530
 6908TIP3    H220670   0.492   5.235   4.667
 6909TIP3   OH220671   7.740   4.601   0.346
 6909TIP3    H120672   7.754   4.564   0.433
 6909TIP3    H220673   7.649   4.576   0.324
 6910TIP3   OH220674   4.897   0.820   5.627
 6910TIP3    H120675   4.899   0.893   5.688
 6910TIP3    H220676   4.806   0.813   5.600
 6911TIP3   OH220677   6.917   5.322   1.774
 6911TIP3    H120678   6.903   5.281   1.689
 6911TIP3    H220679   6.964   5.403   1.755
 6912TIP3   OH220680   3.959   7.482   2.040
 6912TIP3    H120681   3.926   7.393   2.052
 6912TIP3    H220682   3.900   7.521   1.975
 6913TIP3   OH220683   1.245   2.694   4.865
 6913TIP3    H120684   1.266   2.774   4.816
 6913TIP3    H220685   1.260   2.718   4.957
 6914TIP3   OH220686   1.620   0.747   6.428
 6914TIP3    H120687   1.616   0.651   6.422
 6914TIP3    H220688   1.566   0.768   6.504
 6915TIP3   OH220689   0.758   3.441   5.661
 6915TIP3    H120690   0.830   3.390   5.697
 6915TIP3    H220691   0.749   3.412   5.571
 6916TIP3   OH220692   0.583   0.558   1.827
 6916TIP3    H120693   0.625   0.619   1.766
 6916TIP3    H220694   0.506   0.526   1.780
 6917TIP3   OH220695   1.017   0.023   2.793
 6917TIP3    H120696   1.081   0.047   2.726
 6917TIP3    H220697   0.934   0.014   2.745
 6918TIP3   OH220698   5.824   0.725   3.637
 6918TIP3    H120699   5.840   0.817   3.615
 6918TIP3    H220700   5.816   0.681   3.553
 6919TIP3   OH220701   2.644   5.513   0.935
 6919TIP3    H120702   2.685   5.532   0.850
 6919TIP3    H220703   2.700   5.445   0.974
 6920TIP3   OH220704   0.834   6.502   5.382
 6920TIP3    H120705   0.760   6.545   5.426
 6920TIP3    H220706   0.823   6.525   5.290
 6921TIP3   OH220707   2.326   5.869   3.690
 6921TIP3    H120708   2.353   5.794   3.638
 6921TIP3    H220709   2.336   5.944   3.630
 6922TIP3   OH220710   2.977   5.366   1.492
 6922TIP3    H120711   2.944   5.285   1.530
 6922TIP3    H220712   3.018   5.339   1.410
 6923TIP3   OH220713   3.225   5.477   3.338
 6923TIP3    H120714   3.210   5.389   3.304
 6923TIP3    H220715   3.316   5.475   3.369
 6924TIP3   OH220716   1.478   2.368   5.783
 6924TIP3    H120717   1.547   2.305   5.761
 6924TIP3    H220718   1.397   2.324   5.756
 6925TIP3   OH220719   0.230   2.054   0.970
 6925TIP3    H120720   0.312   2.011   0.996
 6925TIP3    H220721   0.252   2.101   0.890
 6926TIP3   OH220722   7.351   4.490   4.578
 6926TIP3    H120723   7.445   4.485   4.591
 6926TIP3    H220724   7.339   4.567   4.522
 6927TIP3   OH220725   3.688   1.614   0.114
 6927TIP3    H120726   3.625   1.686   0.114
 6927TIP3    H220727   3.653   1.551   0.176
 6928TIP3   OH220728   3.513   2.149   5.549
 6928TIP3    H120729   3.480   2.095   5.478
 6928TIP3    H220730   3.504   2.094   5.627
 6929TIP3   OH220731   4.529   3.991   2.945
 6929TIP3    H120732   4.483   4.027   3.020
 6929TIP3    H220733   4.538   3.898   2.964
 6930TIP3   OH220734   5.832   6.774   1.615
 6930TIP3    H120735   5.737   6.769   1.606
 6930TIP3    H220736   5.847   6.856   1.661
 6931TIP3   OH220737   6.839   7.829   6.134
 6931TIP3    H120738   6.904   7.773   6.091
 6931TIP3    H220739   6.781   7.768   6.180
 6932TIP3   OH220740   6.762   0.975   1.306
 6932TIP3    H120741   6.846   0.964   1.260
 6932TIP3    H220742   6.698   0.936   1.247
 6933TIP3   OH220743   2.485   0.359   1.071
 6933TIP3    H120744   2.524   0.433   1.025
 6933TIP3    H220745   2.414   0.397   1.123
 6934TIP3   OH220746   7.789   3.633   2.354
 6934TIP3    H120747   7.792   3.704   2.290
 6934TIP3    H220748   7.781   3.553   2.302
 6935TIP3   OH220749   0.908   6.100   1.545
 6935TIP3    H120750   0.860   6.084   1.626
 6935TIP3    H220751   0.983   6.041   1.550
 6936TIP3   OH220752   0.421   4.853   3.795
 6936TIP3    H120753   0.463   4.825   3.876
 6936TIP3    H220754   0.359   4.783   3.775
 6937TIP3   OH220755   2.620   4.169   5.654
 6937TIP3    H120756   2.674   4.235   5.698
 6937TIP3    H220757   2.646   4.174   5.562
 6938TIP3   OH220758   3.312   4.255   5.833
 6938TIP3    H120759   3.375   4.283   5.900
 6938TIP3    H220760   3.356   4.184   5.787
 6939TIP3   OH220761   0.222   5.239   0.700
 6939TIP3    H120762   0.171   5.304   0.652
 6939TIP3    H220763   0.198   5.156   0.660
 6940TIP3   OH220764   0.078   7.075   5.555
 6940TIP3    H120765   0.088   7.093   5.462
 6940TIP3    H220766   0.081   6.979   5.562
 6941TIP3   OH220767   5.279   7.222   5.663
 6941TIP3    H120768   5.260   7.184   5.577
 6941TIP3    H220769   5.226   7.170   5.724
 6942TIP3   OH220770   2.375   2.261   6.449
 6942TIP3    H120771   2.298   2.308   6.481
 6942TIP3    H220772   2.423   2.327   6.399
 6943TIP3   OH220773   3.574   6.206   5.465
 6943TIP3    H120774   3.562   6.263   5.389
 6943TIP3    H220775   3.553   6.119   5.432
 6944TIP3   OH220776   7.486   4.044   3.276
 6944TIP3    H120777   7.530   4.128   3.285
 6944TIP3    H220778   7.548   3.989   3.228
 6945TIP3   OH220779   0.323   4.072   4.916
 6945TIP3    H120780   0.234   4.051   4.943
 6945TIP3    H220781   0.345   4.152   4.964
 6946TIP3   OH220782   4.406   5.479   4.450
 6946TIP3    H120783   4.399   5.385   4.469
 6946TIP3    H220784   4.357   5.521   4.521
 6947TIP3   OH220785   2.164   6.520   3.401
 6947TIP3    H120786   2.120   6.459   3.341
 6947TIP3    H220787   2.111   6.599   3.398
 6948TIP3   OH220788   7.683   3.221   6.503
 6948TIP3    H120789   7.723   3.219   6.416
 6948TIP3    H220790   7.639   3.137   6.511
 6949TIP3   OH220791   3.232   2.041   2.081
 6949TIP3    H120792   3.301   1.989   2.120
 6949TIP3    H220793   3.163   1.978   2.061
 6950TIP3   OH220794   2.933   2.646   6.458
 6950TIP3    H120795   2.844   2.611   6.451
 6950TIP3    H220796   2.946   2.660   6.552
 6951TIP3   OH220797   3.811   1.672   2.815
 6951TIP3    H120798   3.730   1.633   2.849
 6951TIP3    H220799   3.862   1.692   2.893
 6952TIP3   OH220800   7.350   4.671   3.041
 6952TIP3    H120801   7.317   4.737   3.101
 6952TIP3    H220802   7.332   4.707   2.954
 6953TIP3   OH220803   7.389   6.346   4.049
 6953TIP3    H120804   7.475   6.354   4.010
 6953TIP3    H220805   7.394   6.267   4.103
 6954TIP3   OH220806   3.630   6.174   2.162
 6954TIP3    H120807   3.649   6.256   2.207
 6954TIP3    H220808   3.560   6.195   2.101
 6955TIP3   OH220809   8.152   1.736   5.812
 6955TIP3    H120810   8.057   1.734   5.824
 6955TIP3    H220811   8.171   1.828   5.793
 6956TIP3   OH220812   5.590   1.858   0.835
 6956TIP3    H120813   5.644   1.916   0.889
 6956TIP3    H220814   5.538   1.917   0.781
 6957TIP3   OH220815   6.630   3.939   1.370
 6957TIP3    H120816   6.602   4.013   1.424
 6957TIP3    H220817   6.556   3.879   1.370
 6958TIP3   OH220818   3.050   0.801   1.267
 6958TIP3    H120819   2.958   0.819   1.249
 6958TIP3    H220820   3.063   0.830   1.357
 6959TIP3   OH220821   2.936   3.606   5.482
 6959TIP3    H120822   3.002   3.656   5.529
 6959TIP3    H220823   2.937   3.642   5.393
 6960TIP3   OH220824   0.612   2.937   2.248
 6960TIP3    H120825   0.524   2.924   2.285
 6960TIP3    H220826   0.601   3.008   2.185
 6961TIP3   OH220827   2.544   5.307   4.247
 6961TIP3    H120828   2.594   5.388   4.257
 6961TIP3    H220829   2.590   5.259   4.178
 6962TIP3   OH220830   5.329   0.720   5.232
 6962TIP3    H120831   5.299   0.746   5.319
 6962TIP3    H220832   5.318   0.798   5.178
 6963TIP3   OH220833   4.180   3.255   2.294
 6963TIP3    H120834   4.174   3.289   2.204
 6963TIP3    H220835   4.089   3.236   2.318
 6964TIP3   OH220836   0.055   6.093   2.298
 6964TIP3    H120837   0.072   6.019   2.240
 6964TIP3    H220838  -0.032   6.124   2.271
 6965TIP3   OH220839   1.408   6.424   4.001
 6965TIP3    H120840   1.342   6.389   3.941
 6965TIP3    H220841   1.489   6.423   3.950
 6966TIP3   OH220842   6.060   3.645   5.127
 6966TIP3    H120843   6.092   3.633   5.217
 6966TIP3    H220844   5.964   3.641   5.136
 6967TIP3   OH220845   1.213   4.461   3.981
 6967TIP3    H120846   1.179   4.398   3.918
 6967TIP3    H220847   1.307   4.467   3.960
 6968TIP3   OH220848   7.864   0.654   5.602
 6968TIP3    H120849   7.853   0.676   5.695
 6968TIP3    H220850   7.904   0.567   5.602
 6969TIP3   OH220851   1.176   0.986   1.527
 6969TIP3    H120852   1.156   0.909   1.580
 6969TIP3    H220853   1.124   0.974   1.448
 6970TIP3   OH220854   5.714   3.746   3.411
 6970TIP3    H120855   5.775   3.724   3.341
 6970TIP3    H220856   5.713   3.842   3.412
 6971TIP3   OH220857   7.599   4.569   4.024
 6971TIP3    H120858   7.589   4.657   3.988
 6971TIP3    H220859   7.657   4.524   3.963
 6972TIP3   OH220860   6.702   2.131   6.732
 6972TIP3    H120861   6.717   2.043   6.695
 6972TIP3    H220862   6.789   2.170   6.737
 6973TIP3   OH220863   1.656   0.626   0.574
 6973TIP3    H120864   1.724   0.662   0.631
 6973TIP3    H220865   1.704   0.575   0.509
 6974TIP3   OH220866   6.019   5.288   1.528
 6974TIP3    H120867   6.057   5.331   1.452
 6974TIP3    H220868   6.021   5.194   1.507
 6975TIP3   OH220869   0.099   1.145   0.709
 6975TIP3    H120870   0.027   1.207   0.709
 6975TIP3    H220871   0.071   1.076   0.648
 6976TIP3   OH220872   1.583   0.104   3.790
 6976TIP3    H120873   1.612   0.057   3.869
 6976TIP3    H220874   1.535   0.180   3.824
 6977TIP3   OH220875   0.126   1.602   5.637
 6977TIP3    H120876   0.141   1.511   5.613
 6977TIP3    H220877   0.031   1.608   5.647
 6978TIP3   OH220878   6.451   6.243   1.378
 6978TIP3    H120879   6.435   6.199   1.461
 6978TIP3    H220880   6.447   6.173   1.313
 6979TIP3   OH220881   5.302   0.442   2.413
 6979TIP3    H120882   5.317   0.514   2.351
 6979TIP3    H220883   5.376   0.384   2.399
 6980TIP3   OH220884   1.535   3.778   4.792
 6980TIP3    H120885   1.454   3.811   4.829
 6980TIP3    H220886   1.513   3.756   4.702
 6981TIP3   OH220887   4.656   0.792   6.385
 6981TIP3    H120888   4.693   0.768   6.300
 6981TIP3    H220889   4.620   0.711   6.419
 6982TIP3   OH220890   4.444   2.772   1.208
 6982TIP3    H120891   4.426   2.719   1.130
 6982TIP3    H220892   4.493   2.847   1.174
 6983TIP3   OH220893   2.873   6.330   6.702
 6983TIP3    H120894   2.864   6.406   6.759
 6983TIP3    H220895   2.953   6.287   6.731
 6984TIP3   OH220896   6.403   2.721   5.025
 6984TIP3    H120897   6.372   2.769   5.101
 6984TIP3    H220898   6.328   2.668   4.998
 6985TIP3   OH220899   2.873   7.782   6.174
 6985TIP3    H120900   2.790   7.770   6.127
 6985TIP3    H220901   2.882   7.702   6.226
 6986TIP3   OH220902   7.940   1.536   6.027
 6986TIP3    H120903   7.990   1.464   5.990
 6986TIP3    H220904   7.907   1.503   6.110
 6987TIP3   OH220905   3.070   4.321   5.935
 6987TIP3    H120906   3.074   4.414   5.913
 6987TIP3    H220907   3.147   4.284   5.893
 6988TIP3   OH220908   4.707   1.063   2.746
 6988TIP3    H120909   4.801   1.079   2.749
 6988TIP3    H220910   4.680   1.097   2.660
 6989TIP3   OH220911   3.273   6.378   0.106
 6989TIP3    H120912   3.256   6.383   0.012
 6989TIP3    H220913   3.344   6.440   0.121
 6990TIP3   OH220914   6.885   3.693   2.729
 6990TIP3    H120915   6.975   3.668   2.752
 6990TIP3    H220916   6.862   3.760   2.795
 6991TIP3   OH220917   4.201   5.272   3.577
 6991TIP3    H120918   4.192   5.193   3.524
 6991TIP3    H220919   4.168   5.246   3.664
 6992TIP3   OH220920   1.250   3.467   5.919
 6992TIP3    H120921   1.293   3.384   5.938
 6992TIP3    H220922   1.321   3.530   5.912
 6993TIP3   OH220923   1.328   1.967   3.453
 6993TIP3    H120924   1.344   2.020   3.531
 6993TIP3    H220925   1.412   1.923   3.436
 6994TIP3   OH220926   4.648   5.921   3.008
 6994TIP3    H120927   4.669   5.884   3.094
 6994TIP3    H220928   4.733   5.928   2.964
 6995TIP3   OH220929   2.317   7.766   3.767
 6995TIP3    H120930   2.388   7.829   3.775
 6995TIP3    H220931   2.249   7.811   3.718
 6996TIP3   OH220932   5.529   7.298   5.727
 6996TIP3    H120933   5.436   7.280   5.713
 6996TIP3    H220934   5.572   7.272   5.646
 6997TIP3   OH220935   0.461   5.707   3.915
 6997TIP3    H120936   0.393   5.717   3.848
 6997TIP3    H220937   0.540   5.743   3.875
 6998TIP3   OH220938   4.159   1.921   3.964
 6998TIP3    H120939   4.231   1.896   4.022
 6998TIP3    H220940   4.081   1.914   4.020
 6999TIP3   OH220941   1.941   0.983   1.098
 6999TIP3    H120942   1.848   0.998   1.115
 6999TIP3    H220943   1.980   1.071   1.105
 7000TIP3   OH220944   3.652   6.486   6.014
 7000TIP3    H120945   3.616   6.453   6.096
 7000TIP3    H220946   3.624   6.422   5.948
 7001TIP3   OH220947   3.603   2.817   2.246
 7001TIP3    H120948   3.555   2.900   2.244
 7001TIP3    H220949   3.632   2.808   2.337
 7002TIP3   OH220950   1.416   2.087   5.891
 7002TIP3    H120951   1.469   2.118   5.817
 7002TIP3    H220952   1.342   2.042   5.850
 7003TIP3   OH220953   4.574   4.427   2.197
 7003TIP3    H120954   4.487   4.387   2.199
 7003TIP3    H220955   4.588   4.448   2.104
 7004TIP3   OH220956   6.587   0.526  -0.009
 7004TIP3    H120957   6.580   0.580   0.069
 7004TIP3    H220958   6.504   0.540  -0.055
 7005TIP3   OH220959   7.433   5.776   3.481
 7005TIP3    H120960   7.353   5.728   3.460
 7005TIP3    H220961   7.496   5.709   3.508
 7006TIP3   OH220962   3.842   2.072   5.653
 7006TIP3    H120963   3.822   2.160   5.621
 7006TIP3    H220964   3.923   2.047   5.608
 7007TIP3   OH220965   4.779   1.246   1.537
 7007TIP3    H120966   4.844   1.315   1.519
 7007TIP3    H220967   4.712   1.259   1.470
 7008TIP3   OH220968   5.492   5.333   1.826
 7008TIP3    H120969   5.450   5.309   1.743
 7008TIP3    H220970   5.543   5.256   1.851
 7009TIP3   OH220971   0.275   6.903   3.455
 7009TIP3    H120972   0.291   6.828   3.512
 7009TIP3    H220973   0.316   6.879   3.372
 7010TIP3   OH220974   7.016   6.871   6.272
 7010TIP3    H120975   7.109   6.891   6.263
 7010TIP3    H220976   6.972   6.944   6.228
 7011TIP3   OH220977   5.663   7.384   4.083
 7011TIP3    H120978   5.672   7.295   4.050
 7011TIP3    H220979   5.719   7.437   4.026
 7012TIP3   OH220980   2.798   4.877   3.253
 7012TIP3    H120981   2.787   4.913   3.341
 7012TIP3    H220982   2.718   4.828   3.237
 7013TIP3   OH220983   3.547   0.978   0.090
 7013TIP3    H120984   3.558   0.928   0.010
 7013TIP3    H220985   3.459   1.013   0.085
 7014TIP3   OH220986   1.764   2.683   6.466
 7014TIP3    H120987   1.802   2.606   6.424
 7014TIP3    H220988   1.752   2.746   6.395
 7015TIP3   OH220989   1.545   7.583   3.588
 7015TIP3    H120990   1.470   7.564   3.532
 7015TIP3    H220991   1.574   7.670   3.561
 7016TIP3   OH220992   0.948   1.607   2.757
 7016TIP3    H120993   1.014   1.676   2.754
 7016TIP3    H220994   0.864   1.653   2.755
 7017TIP3   OH220995   0.464   0.404   0.112
 7017TIP3    H120996   0.501   0.473   0.168
 7017TIP3    H220997   0.412   0.350   0.171
 7018TIP3   OH220998   7.330   1.625   2.855
 7018TIP3    H120999   7.297   1.711   2.829
 7018TIP3    H221000   7.254   1.580   2.891
 7019TIP3   OH221001   6.074   5.828   3.176
 7019TIP3    H121002   6.098   5.915   3.144
 7019TIP3    H221003   5.984   5.837   3.207
 7020TIP3   OH221004   1.116   3.711   2.667
 7020TIP3    H121005   1.106   3.678   2.757
 7020TIP3    H221006   1.205   3.745   2.664
 7021TIP3   OH221007   5.574   2.405   2.736
 7021TIP3    H121008   5.647   2.413   2.675
 7021TIP3    H221009   5.612   2.430   2.821
 7022TIP3   OH221010   1.288   4.240   3.680
 7022TIP3    H121011   1.210   4.250   3.625
 7022TIP3    H221012   1.356   4.289   3.634
 7023TIP3   OH221013   4.269   1.663   6.617
 7023TIP3    H121014   4.265   1.673   6.521
 7023TIP3    H221015   4.214   1.588   6.635
 7024TIP3   OH221016   0.541   0.788   4.581
 7024TIP3    H121017   0.615   0.811   4.637
 7024TIP3    H221018   0.479   0.860   4.592
 7025TIP3   OH221019   1.935   5.351   3.805
 7025TIP3    H121020   1.939   5.447   3.809
 7025TIP3    H221021   1.848   5.332   3.771
 7026TIP3   OH221022   2.696   1.949   2.335
 7026TIP3    H121023   2.764   1.960   2.268
 7026TIP3    H221024   2.743   1.953   2.418
 7027TIP3   OH221025   7.759   5.367   1.354
 7027TIP3    H121026   7.791   5.356   1.265
 7027TIP3    H221027   7.719   5.454   1.355
 7028TIP3   OH221028   3.936   1.018   2.042
 7028TIP3    H121029   4.025   1.024   2.010
 7028TIP3    H221030   3.895   1.100   2.016
 7029TIP3   OH221031   2.965   6.045   6.602
 7029TIP3    H121032   3.025   5.984   6.558
 7029TIP3    H221033   2.936   6.104   6.532
 7030TIP3   OH221034   7.673   7.456   0.542
 7030TIP3    H121035   7.702   7.372   0.505
 7030TIP3    H221036   7.677   7.443   0.636
 7031TIP3   OH221037   4.816   4.326   2.773
 7031TIP3    H121038   4.761   4.252   2.744
 7031TIP3    H221039   4.831   4.376   2.693
 7032TIP3   OH221040   0.221   4.542   5.526
 7032TIP3    H121041   0.191   4.609   5.588
 7032TIP3    H221042   0.148   4.480   5.520
 7033TIP3   OH221043   0.312   3.233   4.977
 7033TIP3    H121044   0.292   3.262   4.888
 7033TIP3    H221045   0.326   3.139   4.969
 7034TIP3   OH221046   2.350   5.232   3.843
 7034TIP3    H121047   2.365   5.142   3.873
 7034TIP3    H221048   2.418   5.247   3.777
 7035TIP3   OH221049   3.267   1.492   3.403
 7035TIP3    H121050   3.313   1.410   3.418
 7035TIP3    H221051   3.225   1.481   3.317
 7036TIP3   OH221052   3.044   0.556   2.178
 7036TIP3    H121053   3.054   0.511   2.262
 7036TIP3    H221054   3.098   0.506   2.117
 7037TIP3   OH221055   7.923   4.990   5.327
 7037TIP3    H121056   7.985   4.926   5.362
 7037TIP3    H221057   7.972   5.073   5.326
 7038TIP3   OH221058   4.958   1.183   2.970
 7038TIP3    H121059   4.986   1.153   2.883
 7038TIP3    H221060   4.898   1.115   3.000
 7039TIP3   OH221061   5.321   6.193   5.441
 7039TIP3    H121062   5.319   6.192   5.537
 7039TIP3    H221063   5.412   6.212   5.419
 7040TIP3   OH221064   3.725   4.413   1.972
 7040TIP3    H121065   3.792   4.352   1.942
 7040TIP3    H221066   3.644   4.363   1.970
 7041TIP3   OH221067   3.776   7.575   1.854
 7041TIP3    H121068   3.747   7.650   1.803
 7041TIP3    H221069   3.795   7.507   1.789
 7042TIP3   OH221070   6.063   1.659   0.947
 7042TIP3    H121071   6.099   1.697   1.027
 7042TIP3    H221072   6.140   1.628   0.899
 7043TIP3   OH221073   0.919   5.604   3.711
 7043TIP3    H121074   0.861   5.617   3.785
 7043TIP3    H221075   0.961   5.690   3.698
 7044TIP3   OH221076   2.523   7.556   1.552
 7044TIP3    H121077   2.552   7.531   1.639
 7044TIP3    H221078   2.518   7.652   1.554
 7045TIP3   OH221079   3.099   0.981   6.515
 7045TIP3    H121080   3.071   0.993   6.605
 7045TIP3    H221081   3.022   1.003   6.463
 7046TIP3   OH221082   4.412   0.136   2.622
 7046TIP3    H121083   4.449   0.066   2.569
 7046TIP3    H221084   4.452   0.123   2.709
 7047TIP3   OH221085   5.667   0.059   0.957
 7047TIP3    H121086   5.687   0.119   1.029
 7047TIP3    H221087   5.648   0.116   0.883
 7048TIP3   OH221088   0.717   0.295   4.519
 7048TIP3    H121089   0.690   0.250   4.439
 7048TIP3    H221090   0.664   0.375   4.521
 7049TIP3   OH221091   6.839   1.246   0.277
 7049TIP3    H121092   6.909   1.268   0.338
 7049TIP3    H221093   6.796   1.170   0.316
 7050TIP3   OH221094   5.525   6.962   4.689
 7050TIP3    H121095   5.519   6.879   4.738
 7050TIP3    H221096   5.518   6.936   4.597
 7051TIP3   OH221097   7.106   0.937   2.790
 7051TIP3    H121098   7.063   0.982   2.863
 7051TIP3    H221099   7.138   1.008   2.734
 7052TIP3   OH221100   6.644   1.622   4.593
 7052TIP3    H121101   6.582   1.550   4.579
 7052TIP3    H221102   6.588   1.700   4.598
 7053TIP3   OH221103   4.647   0.529   2.467
 7053TIP3    H121104   4.625   0.622   2.466
 7053TIP3    H221105   4.728   0.523   2.416
 7054TIP3   OH221106   4.494   3.385   6.259
 7054TIP3    H121107   4.540   3.323   6.315
 7054TIP3    H221108   4.489   3.341   6.174
 7055TIP3   OH221109   5.043   0.338   0.644
 7055TIP3    H121110   5.056   0.386   0.562
 7055TIP3    H221111   4.984   0.266   0.620
 7056TIP3   OH221112   1.791   0.198   4.594
 7056TIP3    H121113   1.833   0.132   4.540
 7056TIP3    H221114   1.863   0.242   4.639
 7057TIP3   OH221115   0.552   1.878   1.800
 7057TIP3    H121116   0.493   1.896   1.873
 7057TIP3    H221117   0.537   1.951   1.739
 7058TIP3   OH221118   1.732   7.293   4.585
 7058TIP3    H121119   1.734   7.199   4.603
 7058TIP3    H221120   1.788   7.332   4.652
 7059TIP3   OH221121   6.860   5.219   2.014
 7059TIP3    H121122   6.904   5.272   1.947
 7059TIP3    H221123   6.769   5.246   2.010
 7060TIP3   OH221124   3.107   5.808   3.175
 7060TIP3    H121125   3.168   5.878   3.151
 7060TIP3    H221126   3.051   5.797   3.099
 7061TIP3   OH221127   7.376   0.863   0.973
 7061TIP3    H121128   7.331   0.841   1.054
 7061TIP3    H221129   7.416   0.781   0.944
 7062TIP3   OH221130   4.919   4.082   6.410
 7062TIP3    H121131   4.890   4.152   6.352
 7062TIP3    H221132   4.860   4.009   6.391
 7063TIP3   OH221133   0.203   6.842   5.309
 7063TIP3    H121134   0.266   6.912   5.289
 7063TIP3    H221135   0.151   6.834   5.229
 7064TIP3   OH221136   2.664   7.523   5.289
 7064TIP3    H121137   2.702   7.444   5.251
 7064TIP3    H221138   2.573   7.523   5.258
 7065TIP3   OH221139   1.651   6.008   3.202
 7065TIP3    H121140   1.556   5.999   3.194
 7065TIP3    H221141   1.666   6.014   3.297
 7066TIP3   OH221142   2.584   1.531   6.590
 7066TIP3    H121143   2.566   1.544   6.683
 7066TIP3    H221144   2.547   1.445   6.570
 7067TIP3   OH221145   5.471   5.837   0.551
 7067TIP3    H121146   5.461   5.884   0.634
 7067TIP3    H221147   5.391   5.855   0.503
 7068TIP3   OH221148   0.366   1.055   2.015
 7068TIP3    H121149   0.277   1.033   1.987
 7068TIP3    H221150   0.364   1.048   2.110
 7069TIP3   OH221151   3.501   1.781   3.929
 7069TIP3    H121152   3.582   1.832   3.924
 7069TIP3    H221153   3.531   1.691   3.942
 7070TIP3   OH221154   1.691   5.819   1.100
 7070TIP3    H121155   1.736   5.895   1.062
 7070TIP3    H221156   1.717   5.818   1.192
 7071TIP3   OH221157   6.949   4.488   3.339
 7071TIP3    H121158   7.025   4.453   3.293
 7071TIP3    H221159   6.931   4.572   3.296
 7072TIP3   OH221160   0.776   6.333   1.066
 7072TIP3    H121161   0.842   6.334   0.997
 7072TIP3    H221162   0.725   6.412   1.051
 7073TIP3   OH221163   7.555   4.376   0.727
 7073TIP3    H121164   7.533   4.295   0.680
 7073TIP3    H221165   7.598   4.346   0.807
 7074TIP3   OH221166   5.412   7.095   0.309
 7074TIP3    H121167   5.346   7.044   0.262
 7074TIP3    H221168   5.493   7.046   0.298
 7075TIP3   OH221169   0.195   4.067   2.047
 7075TIP3    H121170   0.147   3.988   2.071
 7075TIP3    H221171   0.273   4.035   2.001
 7076TIP3   OH221172   1.470   5.956   1.993
 7076TIP3    H121173   1.484   5.984   1.902
 7076TIP3    H221174   1.549   5.985   2.039
 7077TIP3   OH221175   4.053   5.405   2.559
 7077TIP3    H121176   4.072   5.459   2.636
 7077TIP3    H221177   4.112   5.330   2.567
 7078TIP3   OH221178   1.487   6.445   2.975
 7078TIP3    H121179   1.446   6.530   2.956
 7078TIP3    H221180   1.434   6.408   3.045
 7079TIP3   OH221181   6.411   1.421   2.388
 7079TIP3    H121182   6.333   1.428   2.442
 7079TIP3    H221183   6.381   1.375   2.309
 7080TIP3   OH221184   8.033   4.434   0.651
 7080TIP3    H121185   8.084   4.371   0.701
 7080TIP3    H221186   8.049   4.412   0.559
 7081TIP3   OH221187   4.524   1.166   0.453
 7081TIP3    H121188   4.542   1.236   0.390
 7081TIP3    H221189   4.525   1.210   0.538
 7082TIP3   OH221190   1.212   0.818   6.755
 7082TIP3    H121191   1.263   0.832   6.676
 7082TIP3    H221192   1.128   0.784   6.724
 7083TIP3   OH221193   4.170   4.061   2.368
 7083TIP3    H121194   4.243   4.001   2.384
 7083TIP3    H221195   4.156   4.105   2.452
 7084TIP3   OH221196   0.684   0.910   4.799
 7084TIP3    H121197   0.684   0.986   4.857
 7084TIP3    H221198   0.671   0.835   4.857
 7085TIP3   OH221199   7.133   5.089   0.274
 7085TIP3    H121200   7.217   5.082   0.321
 7085TIP3    H221201   7.141   5.026   0.202
 7086TIP3   OH221202   3.149   5.573   6.586
 7086TIP3    H121203   3.232   5.590   6.630
 7086TIP3    H221204   3.145   5.478   6.578
 7087TIP3   OH221205   7.329   1.329   4.904
 7087TIP3    H121206   7.386   1.395   4.864
 7087TIP3    H221207   7.381   1.291   4.974
 7088TIP3   OH221208   6.169   4.392   1.034
 7088TIP3    H121209   6.121   4.311   1.054
 7088TIP3    H221210   6.261   4.367   1.040
 7089TIP3   OH221211   7.333   4.735   0.836
 7089TIP3    H121212   7.313   4.800   0.768
 7089TIP3    H221213   7.344   4.786   0.916
 7090TIP3   OH221214   8.214   3.836   4.777
 7090TIP3    H121215   8.215   3.782   4.697
 7090TIP3    H221216   8.269   3.788   4.839
 7091TIP3   OH221217   2.786   3.898   1.764
 7091TIP3    H121218   2.691   3.896   1.774
 7091TIP3    H221219   2.803   3.844   1.687
 7092TIP3   OH221220   7.849   4.654   0.596
 7092TIP3    H121221   7.903   4.588   0.640
 7092TIP3    H221222   7.772   4.663   0.652
 7093TIP3   OH221223   2.464   3.977   6.009
 7093TIP3    H121224   2.450   3.906   5.946
 7093TIP3    H221225   2.476   3.932   6.093
 7094TIP3   OH221226   8.214   3.058   6.353
 7094TIP3    H121227   8.125   3.035   6.327
 7094TIP3    H221228   8.269   3.029   6.280
 7095TIP3   OH221229   2.579   4.937   5.519
 7095TIP3    H121230   2.519   4.886   5.573
 7095TIP3    H221231   2.569   4.901   5.431
 7096TIP3   OH221232   6.816   1.386   2.304
 7096TIP3    H121233   6.770   1.303   2.319
 7096TIP3    H221234   6.779   1.420   2.223
 7097TIP3   OH221235   2.217   1.745   1.096
 7097TIP3    H121236   2.173   1.809   1.041
 7097TIP3    H221237   2.306   1.779   1.107
 7098TIP3   OH221238   0.841   3.966   5.900
 7098TIP3    H121239   0.881   3.962   5.813
 7098TIP3    H221240   0.811   3.877   5.917
 7099TIP3   OH221241   0.788   3.898   2.850
 7099TIP3    H121242   0.832   3.982   2.848
 7099TIP3    H221243   0.719   3.908   2.917
 7100TIP3   OH221244   8.279   4.525   3.426
 7100TIP3    H121245   8.308   4.434   3.417
 7100TIP3    H221246   8.211   4.535   3.358
 7101TIP3   OH221247   1.613   3.693   2.212
 7101TIP3    H121248   1.575   3.607   2.232
 7101TIP3    H221249   1.701   3.689   2.249
 7102TIP3   OH221250   5.020   2.284   5.751
 7102TIP3    H121251   4.962   2.353   5.719
 7102TIP3    H221252   5.056   2.320   5.832
 7103TIP3   OH221253   6.038   1.359   5.367
 7103TIP3    H121254   5.992   1.319   5.293
 7103TIP3    H221255   6.057   1.448   5.337
 7104TIP3   OH221256   3.224   4.833   6.123
 7104TIP3    H121257   3.275   4.875   6.193
 7104TIP3    H221258   3.253   4.877   6.043
 7105TIP3   OH221259   2.948   0.380   3.407
 7105TIP3    H121260   2.870   0.399   3.459
 7105TIP3    H221261   2.915   0.338   3.327
 7106TIP3   OH221262   3.303   0.977   0.979
 7106TIP3    H121263   3.309   1.041   0.909
 7106TIP3    H221264   3.254   0.904   0.941
 7107TIP3   OH221265   4.056   1.754   5.262
 7107TIP3    H121266   3.968   1.773   5.294
 7107TIP3    H221267   4.113   1.770   5.337
 7108TIP3   OH221268   7.602   1.601   1.952
 7108TIP3    H121269   7.660   1.644   1.890
 7108TIP3    H221270   7.544   1.670   1.984
 7109TIP3   OH221271   1.517   2.904   0.950
 7109TIP3    H121272   1.504   2.835   0.884
 7109TIP3    H221273   1.450   2.887   1.016
 7110TIP3   OH221274   4.828   1.396   5.433
 7110TIP3    H121275   4.860   1.364   5.349
 7110TIP3    H221276   4.836   1.491   5.427
 7111TIP3   OH221277   1.244   3.422   4.152
 7111TIP3    H121278   1.336   3.430   4.178
 7111TIP3    H221279   1.245   3.439   4.057
 7112TIP3   OH221280   7.215   7.204   3.314
 7112TIP3    H121281   7.143   7.141   3.309
 7112TIP3    H221282   7.284   7.166   3.260
 7113TIP3   OH221283   1.116   2.608   3.201
 7113TIP3    H121284   1.165   2.649   3.130
 7113TIP3    H221285   1.033   2.581   3.161
 7114TIP3   OH221286   8.032   6.235   1.940
 7114TIP3    H121287   7.991   6.228   1.854
 7114TIP3    H221288   7.959   6.244   2.001
 7115TIP3   OH221289   1.204   0.354   4.854
 7115TIP3    H121290   1.153   0.324   4.929
 7115TIP3    H221291   1.223   0.446   4.873
 7116TIP3   OH221292   6.723   0.857   3.691
 7116TIP3    H121293   6.739   0.808   3.772
 7116TIP3    H221294   6.794   0.921   3.688
 7117TIP3   OH221295   3.079   6.037   2.089
 7117TIP3    H121296   3.098   5.996   2.173
 7117TIP3    H221297   3.160   6.027   2.039
 7118TIP3   OH221298   0.362   7.731   1.226
 7118TIP3    H121299   0.287   7.673   1.213
 7118TIP3    H221300   0.355   7.795   1.155
 7119TIP3   OH221301   3.905   3.922   6.603
 7119TIP3    H121302   3.929   3.911   6.695
 7119TIP3    H221303   3.978   3.884   6.554
 7120TIP3   OH221304   7.960   5.143   4.661
 7120TIP3    H121305   7.905   5.172   4.734
 7120TIP3    H221306   8.039   5.109   4.703
 7121TIP3   OH221307   6.233   5.029   6.267
 7121TIP3    H121308   6.193   5.109   6.234
 7121TIP3    H221309   6.197   4.959   6.212
 7122TIP3   OH221310   4.397   4.052   1.705
 7122TIP3    H121311   4.377   4.143   1.681
 7122TIP3    H221312   4.487   4.055   1.736
 7123TIP3   OH221313   3.919   4.291   6.177
 7123TIP3    H121314   3.908   4.384   6.197
 7123TIP3    H221315   3.835   4.264   6.139
 7124TIP3   OH221316   0.422   5.253   0.879
 7124TIP3    H121317   0.485   5.320   0.853
 7124TIP3    H221318   0.365   5.243   0.803
 7125TIP3   OH221319   0.239   6.201   1.999
 7125TIP3    H121320   0.313   6.252   2.031
 7125TIP3    H221321   0.164   6.260   2.008
 7126TIP3   OH221322   3.543   5.315   3.297
 7126TIP3    H121323   3.635   5.290   3.291
 7126TIP3    H221324   3.497   5.250   3.245
 7127TIP3   OH221325   4.361   3.709   3.699
 7127TIP3    H121326   4.378   3.647   3.770
 7127TIP3    H221327   4.414   3.678   3.626
 7128TIP3   OH221328   2.404   6.517   3.535
 7128TIP3    H121329   2.434   6.606   3.548
 7128TIP3    H221330   2.329   6.525   3.476
 7129TIP3   OH221331   3.149   3.243   1.819
 7129TIP3    H121332   3.156   3.263   1.912
 7129TIP3    H221333   3.085   3.172   1.814
 7130TIP3   OH221334   2.575   5.131   3.276
 7130TIP3    H121335   2.643   5.150   3.340
 7130TIP3    H221336   2.526   5.213   3.268
 7131TIP3   OH221337   2.687   2.203   1.131
 7131TIP3    H121338   2.725   2.134   1.185
 7131TIP3    H221339   2.596   2.175   1.117
 7132TIP3   OH221340   4.218   0.636   0.755
 7132TIP3    H121341   4.187   0.558   0.710
 7132TIP3    H221342   4.242   0.606   0.843
 7133TIP3   OH221343   3.627   4.296   1.609
 7133TIP3    H121344   3.616   4.234   1.681
 7133TIP3    H221345   3.714   4.334   1.623
 7134TIP3   OH221346   4.398   0.504   4.482
 7134TIP3    H121347   4.413   0.594   4.454
 7134TIP3    H221348   4.439   0.499   4.569
 7135TIP3   OH221349   6.043   0.962   1.035
 7135TIP3    H121350   6.011   0.894   0.976
 7135TIP3    H221351   5.964   1.003   1.071
 7136TIP3   OH221352   6.040   1.994   1.155
 7136TIP3    H121353   6.039   2.039   1.240
 7136TIP3    H221354   6.075   2.059   1.094
 7137TIP3   OH221355   0.800   2.461   1.217
 7137TIP3    H121356   0.721   2.408   1.211
 7137TIP3    H221357   0.861   2.422   1.155
 7138TIP3   OH221358   6.662   3.800   4.586
 7138TIP3    H121359   6.655   3.838   4.498
 7138TIP3    H221360   6.587   3.740   4.591
 7139TIP3   OH221361   7.549   2.231   5.884
 7139TIP3    H121362   7.538   2.327   5.883
 7139TIP3    H221363   7.602   2.214   5.961
 7140TIP3   OH221364   1.494   5.017   6.478
 7140TIP3    H121365   1.405   4.983   6.469
 7140TIP3    H221366   1.531   5.011   6.390
 7141TIP3   OH221367   6.459   4.699   2.671
 7141TIP3    H121368   6.428   4.609   2.661
 7141TIP3    H221369   6.383   4.754   2.653
 7142TIP3   OH221370   0.340   3.012   3.887
 7142TIP3    H121371   0.389   2.952   3.943
 7142TIP3    H221372   0.250   2.979   3.890
 7143TIP3   OH221373   7.227   2.789   5.247
 7143TIP3    H121374   7.213   2.701   5.282
 7143TIP3    H221375   7.140   2.829   5.245
 7144TIP3   OH221376   5.400   4.327   2.738
 7144TIP3    H121377   5.324   4.308   2.682
 7144TIP3    H221378   5.403   4.253   2.799
 7145TIP3   OH221379   4.109   2.824   2.099
 7145TIP3    H121380   4.079   2.908   2.134
 7145TIP3    H221381   4.058   2.758   2.145
 7146TIP3   OH221382   1.665   3.318   3.116
 7146TIP3    H121383   1.742   3.339   3.169
 7146TIP3    H221384   1.600   3.384   3.140
 7147TIP3   OH221385   7.354   5.407   3.478
 7147TIP3    H121386   7.355   5.312   3.494
 7147TIP3    H221387   7.367   5.415   3.383
 7148TIP3   OH221388   2.424   4.962   0.285
 7148TIP3    H121389   2.502   4.936   0.333
 7148TIP3    H221390   2.351   4.932   0.339
 7149TIP3   OH221391   4.216   1.142   6.675
 7149TIP3    H121392   4.220   1.057   6.719
 7149TIP3    H221393   4.305   1.176   6.680
 7150TIP3   OH221394   2.902   1.607   4.417
 7150TIP3    H121395   2.967   1.676   4.402
 7150TIP3    H221396   2.951   1.525   4.410
 7151TIP3   OH221397   0.214   4.495   6.678
 7151TIP3    H121398   0.162   4.415   6.664
 7151TIP3    H221399   0.178   4.532   6.759
 7152TIP3   OH221400   7.128   2.008   5.428
 7152TIP3    H121401   7.049   2.059   5.445
 7152TIP3    H221402   7.114   1.926   5.476
 7153TIP3   OH221403   6.565   7.619   5.607
 7153TIP3    H121404   6.501   7.548   5.614
 7153TIP3    H221405   6.511   7.699   5.605
 7154TIP3   OH221406   7.295   1.858   1.370
 7154TIP3    H121407   7.292   1.803   1.292
 7154TIP3    H221408   7.309   1.798   1.442
 7155TIP3   OH221409   3.358   7.462   5.157
 7155TIP3    H121410   3.275   7.465   5.206
 7155TIP3    H221411   3.421   7.425   5.218
 7156TIP3   OH221412   3.505   0.718   1.867
 7156TIP3    H121413   3.581   0.675   1.827
 7156TIP3    H221414   3.525   0.811   1.864
 7157TIP3   OH221415   0.230   7.093   4.173
 7157TIP3    H121416   0.222   7.059   4.084
 7157TIP3    H221417   0.268   7.020   4.223
 7158TIP3   OH221418   0.912   0.658   5.120
 7158TIP3    H121419   0.930   0.748   5.092
 7158TIP3    H221420   0.817   0.652   5.121
 7159TIP3   OH221421   0.853   0.057   6.222
 7159TIP3    H121422   0.916   0.059   6.293
 7159TIP3    H221423   0.872  -0.025   6.176
 7160TIP3   OH221424   6.308   5.364   2.316
 7160TIP3    H121425   6.279   5.352   2.407
 7160TIP3    H221426   6.275   5.451   2.292
 7161TIP3   OH221427   6.075   0.663   2.995
 7161TIP3    H121428   5.989   0.705   2.992
 7161TIP3    H221429   6.121   0.709   3.066
 7162TIP3   OH221430   5.817   5.009   3.025
 7162TIP3    H121431   5.806   5.095   2.986
 7162TIP3    H221432   5.859   4.956   2.956
 7163TIP3   OH221433   8.048   3.128   5.397
 7163TIP3    H121434   8.072   3.094   5.311
 7163TIP3    H221435   7.973   3.185   5.379
 7164TIP3   OH221436   2.937   0.234   3.163
 7164TIP3    H121437   2.883   0.165   3.125
 7164TIP3    H221438   3.021   0.225   3.118
 7165TIP3   OH221439   2.241   3.059   0.298
 7165TIP3    H121440   2.214   3.140   0.340
 7165TIP3    H221441   2.313   3.084   0.240
 7166TIP3   OH221442   6.334   3.072   3.448
 7166TIP3    H121443   6.404   3.114   3.397
 7166TIP3    H221444   6.287   3.145   3.488
 7167TIP3   OH221445   5.421   0.211   2.316
 7167TIP3    H121446   5.416   0.179   2.406
 7167TIP3    H221447   5.337   0.186   2.277
 7168TIP3   OH221448   5.430   3.308   2.268
 7168TIP3    H121449   5.438   3.317   2.173
 7168TIP3    H221450   5.397   3.393   2.298
 7169TIP3   OH221451   1.189   6.945   4.822
 7169TIP3    H121452   1.127   7.009   4.857
 7169TIP3    H221453   1.153   6.921   4.737
 7170TIP3   OH221454   6.380   2.096   4.624
 7170TIP3    H121455   6.384   2.191   4.628
 7170TIP3    H221456   6.299   2.073   4.670
 7171TIP3   OH221457   0.840   6.035   2.027
 7171TIP3    H121458   0.768   6.048   1.965
 7171TIP3    H221459   0.830   5.945   2.056
 7172TIP3   OH221460   4.881   6.254   0.245
 7172TIP3    H121461   4.925   6.279   0.164
 7172TIP3    H221462   4.922   6.306   0.313
 7173TIP3   OH221463   2.589   5.504   6.241
 7173TIP3    H121464   2.558   5.430   6.294
 7173TIP3    H221465   2.603   5.467   6.154
 7174TIP3   OH221466   6.444   3.424   4.757
 7174TIP3    H121467   6.389   3.366   4.810
 7174TIP3    H221468   6.438   3.509   4.801
 7175TIP3   OH221469   7.379   7.651   3.802
 7175TIP3    H121470   7.301   7.669   3.854
 7175TIP3    H221471   7.379   7.556   3.790
 7176TIP3   OH221472   7.073   2.722   0.851
 7176TIP3    H121473   7.162   2.688   0.838
 7176TIP3    H221474   7.073   2.805   0.802
 7177TIP3   OH221475   0.055   7.435   3.235
 7177TIP3    H121476   0.141   7.408   3.203
 7177TIP3    H221477   0.020   7.491   3.165
 7178TIP3   OH221478   2.726   2.966   5.534
 7178TIP3    H121479   2.683   2.881   5.526
 7178TIP3    H221480   2.793   2.953   5.601
 7179TIP3   OH221481   0.123   4.268   1.321
 7179TIP3    H121482   0.209   4.287   1.359
 7179TIP3    H221483   0.069   4.343   1.348
 7180TIP3   OH221484   5.473   1.028   0.714
 7180TIP3    H121485   5.440   1.045   0.626
 7180TIP3    H221486   5.394   1.029   0.769
 7181TIP3   OH221487   7.752   5.695   1.286
 7181TIP3    H121488   7.804   5.719   1.363
 7181TIP3    H221489   7.686   5.764   1.279
 7182TIP3   OH221490   1.896   0.240   2.381
 7182TIP3    H121491   1.927   0.276   2.465
 7182TIP3    H221492   1.818   0.190   2.404
 7183TIP3   OH221493   2.031   7.104   5.630
 7183TIP3    H121494   1.947   7.149   5.630
 7183TIP3    H221495   2.086   7.157   5.573
 7184TIP3   OH221496   4.616   6.983   2.872
 7184TIP3    H121497   4.560   7.006   2.798
 7184TIP3    H221498   4.555   6.965   2.944
 7185TIP3   OH221499   3.858   2.100   3.134
 7185TIP3    H121500   3.854   2.175   3.193
 7185TIP3    H221501   3.947   2.068   3.140
 7186TIP3   OH221502   2.460   0.010   3.277
 7186TIP3    H121503   2.469   0.018   3.372
 7186TIP3    H221504   2.372   0.041   3.258
 7187TIP3   OH221505   8.223   6.488   5.997
 7187TIP3    H121506   8.224   6.526   6.084
 7187TIP3    H221507   8.171   6.548   5.944
 7188TIP3   OH221508   1.710   6.039   5.770
 7188TIP3    H121509   1.648   6.016   5.701
 7188TIP3    H221510   1.705   6.134   5.777
 7189TIP3   OH221511   0.802   5.509   1.971
 7189TIP3    H121512   0.777   5.442   2.034
 7189TIP3    H221513   0.865   5.466   1.913
 7190TIP3   OH221514   2.994   1.812   0.555
 7190TIP3    H121515   3.070   1.869   0.567
 7190TIP3    H221516   2.920   1.864   0.585
 7191TIP3   OH221517   3.830   2.448   0.300
 7191TIP3    H121518   3.838   2.388   0.374
 7191TIP3    H221519   3.873   2.402   0.228
 7192TIP3   OH221520   7.312   6.801   5.135
 7192TIP3    H121521   7.363   6.864   5.084
 7192TIP3    H221522   7.274   6.853   5.206
 7193TIP3   OH221523   2.286   4.924   1.529
 7193TIP3    H121524   2.367   4.954   1.486
 7193TIP3    H221525   2.224   4.995   1.514
 7194TIP3   OH221526   3.526   5.838   4.115
 7194TIP3    H121527   3.588   5.766   4.112
 7194TIP3    H221528   3.464   5.814   4.185
 7195TIP3   OH221529   2.210   1.477   1.069
 7195TIP3    H121530   2.213   1.569   1.094
 7195TIP3    H221531   2.140   1.473   1.003
 7196TIP3   OH221532   0.790   1.462   3.440
 7196TIP3    H121533   0.760   1.380   3.402
 7196TIP3    H221534   0.824   1.439   3.526
 7197TIP3   OH221535   8.063   0.898   5.608
 7197TIP3    H121536   8.028   0.962   5.670
 7197TIP3    H221537   8.018   0.816   5.629
 7198TIP3   OH221538   4.961   5.444   0.778
 7198TIP3    H121539   4.919   5.527   0.757
 7198TIP3    H221540   5.053   5.457   0.757
 7199TIP3   OH221541   0.053   6.026   4.645
 7199TIP3    H121542   0.031   6.115   4.671
 7199TIP3    H221543   0.063   6.030   4.550
 7200TIP3   OH221544   7.576   6.050   6.009
 7200TIP3    H121545   7.491   6.011   6.029
 7200TIP3    H221546   7.603   6.010   5.926
 7201TIP3   OH221547   7.134   5.455   2.812
 7201TIP3    H121548   7.152   5.477   2.903
 7201TIP3    H221549   7.177   5.524   2.762
 7202TIP3   OH221550   5.106   0.652   2.021
 7202TIP3    H121551   5.016   0.627   2.002
 7202TIP3    H221552   5.159   0.578   1.992
 7203TIP3   OH221553   5.806   1.401   3.960
 7203TIP3    H121554   5.874   1.431   4.020
 7203TIP3    H221555   5.849   1.336   3.906
 7204TIP3   OH221556   2.018   7.063   0.767
 7204TIP3    H121557   2.102   7.043   0.727
 7204TIP3    H221558   2.017   7.012   0.848
 7205TIP3   OH221559   7.177   4.258   6.127
 7205TIP3    H121560   7.224   4.327   6.080
 7205TIP3    H221561   7.139   4.203   6.057
 7206TIP3   OH221562   5.871   2.644   4.282
 7206TIP3    H121563   5.868   2.568   4.224
 7206TIP3    H221564   5.839   2.717   4.229
 7207TIP3   OH221565   2.044   0.102   5.406
 7207TIP3    H121566   1.999   0.024   5.374
 7207TIP3    H221567   2.078   0.144   5.326
 7208TIP3   OH221568   0.770   5.958   1.746
 7208TIP3    H121569   0.679   5.975   1.768
 7208TIP3    H221570   0.776   5.862   1.739
 7209TIP3   OH221571   5.509   5.004   3.577
 7209TIP3    H121572   5.477   5.093   3.586
 7209TIP3    H221573   5.604   5.012   3.573
 7210TIP3   OH221574   6.150   2.858   2.146
 7210TIP3    H121575   6.220   2.794   2.137
 7210TIP3    H221576   6.190   2.941   2.117
 7211TIP3   OH221577   4.953   2.521   6.692
 7211TIP3    H121578   4.877   2.578   6.686
 7211TIP3    H221579   4.944   2.460   6.618
 7212TIP3   OH221580   2.176   1.115   6.013
 7212TIP3    H121581   2.133   1.077   6.089
 7212TIP3    H221582   2.175   1.045   5.947
 7213TIP3   OH221583   6.746   6.270   4.385
 7213TIP3    H121584   6.796   6.279   4.466
 7213TIP3    H221585   6.670   6.217   4.409
 7214TIP3   OH221586   1.358   4.838   2.148
 7214TIP3    H121587   1.315   4.753   2.158
 7214TIP3    H221588   1.446   4.817   2.116
 7215TIP3   OH221589   5.897   3.645   3.235
 7215TIP3    H121590   5.827   3.613   3.180
 7215TIP3    H221591   5.925   3.727   3.194
 7216TIP3   OH221592   5.697   0.305   2.232
 7216TIP3    H121593   5.626   0.319   2.170
 7216TIP3    H221594   5.654   0.276   2.312
 7217TIP3   OH221595   1.356   3.384   6.490
 7217TIP3    H121596   1.411   3.452   6.451
 7217TIP3    H221597   1.417   3.314   6.514
 7218TIP3   OH221598   0.013   2.036   2.963
 7218TIP3    H121599   0.044   2.034   3.053
 7218TIP3    H221600   0.092   2.051   2.911
 7219TIP3   OH221601   6.081   0.177   6.652
 7219TIP3    H121602   6.130   0.201   6.731
 7219TIP3    H221603   6.025   0.252   6.635
 7220TIP3   OH221604   0.701   0.735   6.302
 7220TIP3    H121605   0.688   0.665   6.238
 7220TIP3    H221606   0.776   0.707   6.354
 7221TIP3   OH221607   1.256   6.818   3.747
 7221TIP3    H121608   1.221   6.749   3.691
 7221TIP3    H221609   1.229   6.793   3.835
 7222TIP3   OH221610   2.506   5.293   5.800
 7222TIP3    H121611   2.466   5.245   5.872
 7222TIP3    H221612   2.479   5.246   5.721
 7223TIP3   OH221613   8.129   5.763   0.263
 7223TIP3    H121614   8.039   5.738   0.283
 7223TIP3    H221615   8.166   5.789   0.347
 7224TIP3   OH221616   1.698   0.774   4.478
 7224TIP3    H121617   1.609   0.753   4.504
 7224TIP3    H221618   1.701   0.758   4.384
 7225TIP3   OH221619   2.323   6.217   0.634
 7225TIP3    H121620   2.268   6.284   0.675
 7225TIP3    H221621   2.345   6.157   0.706
 7226TIP3   OH221622   2.387   5.294   6.060
 7226TIP3    H121623   2.403   5.372   6.008
 7226TIP3    H221624   2.474   5.263   6.085
 7227TIP3   OH221625   1.343   2.117   2.003
 7227TIP3    H121626   1.407   2.180   2.035
 7227TIP3    H221627   1.258   2.157   2.022
 7228TIP3   OH221628   3.329   2.613   6.000
 7228TIP3    H121629   3.338   2.522   6.029
 7228TIP3    H221630   3.238   2.619   5.970
 7229TIP3   OH221631   1.742   7.448   0.684
 7229TIP3    H121632   1.812   7.419   0.743
 7229TIP3    H221633   1.702   7.367   0.652
 7230TIP3   OH221634   3.611   5.154   6.099
 7230TIP3    H121635   3.674   5.182   6.165
 7230TIP3    H221636   3.652   5.176   6.015
 7231TIP3   OH221637   7.565   5.158   2.310
 7231TIP3    H121638   7.502   5.228   2.292
 7231TIP3    H221639   7.646   5.205   2.331
 7232TIP3   OH221640   5.353   7.582   5.326
 7232TIP3    H121641   5.280   7.530   5.359
 7232TIP3    H221642   5.316   7.636   5.256
 7233TIP3   OH221643   3.434   6.973   3.189
 7233TIP3    H121644   3.444   6.922   3.268
 7233TIP3    H221645   3.492   6.932   3.125
 7234TIP3   OH221646   5.298   6.283   3.648
 7234TIP3    H121647   5.333   6.365   3.613
 7234TIP3    H221648   5.210   6.277   3.611
 7235TIP3   OH221649   0.859   5.455   2.551
 7235TIP3    H121650   0.775   5.447   2.506
 7235TIP3    H221651   0.855   5.539   2.595
 7236TIP3   OH221652   2.367   2.725   1.115
 7236TIP3    H121653   2.327   2.642   1.138
 7236TIP3    H221654   2.359   2.779   1.194
 7237TIP3   OH221655   2.905   2.948   3.746
 7237TIP3    H121656   2.878   2.894   3.820
 7237TIP3    H221657   2.967   3.011   3.783
 7238TIP3   OH221658   0.360   7.046   5.184
 7238TIP3    H121659   0.294   7.083   5.125
 7238TIP3    H221660   0.442   7.088   5.157
 7239TIP3   OH221661   0.242   4.950   4.475
 7239TIP3    H121662   0.254   4.893   4.551
 7239TIP3    H221663   0.151   4.935   4.448
 7240TIP3   OH221664   1.226   2.303   4.292
 7240TIP3    H121665   1.246   2.216   4.326
 7240TIP3    H221666   1.277   2.363   4.347
 7241TIP3   OH221667   7.308   2.702   6.594
 7241TIP3    H121668   7.270   2.787   6.616
 7241TIP3    H221669   7.234   2.642   6.596
 7242TIP3   OH221670   4.896   3.017   1.584
 7242TIP3    H121671   4.968   3.030   1.522
 7242TIP3    H221672   4.839   3.094   1.572
 7243TIP3   OH221673   5.199   4.536   5.996
 7243TIP3    H121674   5.259   4.524   6.069
 7243TIP3    H221675   5.112   4.533   6.035
 7244TIP3   OH221676   4.128   3.780   0.913
 7244TIP3    H121677   4.203   3.817   0.959
 7244TIP3    H221678   4.091   3.716   0.974
 7245TIP3   OH221679   7.656   6.154   4.304
 7245TIP3    H121680   7.616   6.101   4.372
 7245TIP3    H221681   7.740   6.111   4.285
 7246TIP3   OH221682   2.555   3.580   0.433
 7246TIP3    H121683   2.563   3.637   0.357
 7246TIP3    H221684   2.465   3.592   0.463
 7247TIP3   OH221685   3.084   3.860   2.269
 7247TIP3    H121686   3.078   3.765   2.264
 7247TIP3    H221687   3.144   3.877   2.341
 7248TIP3   OH221688   8.213   3.067   3.475
 7248TIP3    H121689   8.250   3.093   3.559
 7248TIP3    H221690   8.286   3.073   3.414
 7249TIP3   OH221691   5.792   1.024   6.415
 7249TIP3    H121692   5.772   0.990   6.328
 7249TIP3    H221693   5.742   0.968   6.475
 7250TIP3   OH221694   6.510   3.920   0.397
 7250TIP3    H121695   6.465   3.896   0.316
 7250TIP3    H221696   6.469   4.002   0.424
 7251TIP3   OH221697   6.441   4.320   1.061
 7251TIP3    H121698   6.534   4.325   1.084
 7251TIP3    H221699   6.439   4.265   0.983
 7252TIP3   OH221700   2.390   0.984   1.993
 7252TIP3    H121701   2.460   0.951   2.050
 7252TIP3    H221702   2.321   1.011   2.053
 7253TIP3   OH221703   3.011   2.792   1.303
 7253TIP3    H121704   3.036   2.705   1.335
 7253TIP3    H221705   2.916   2.793   1.308
 7254TIP3   OH221706   5.281   7.210   1.857
 7254TIP3    H121707   5.375   7.216   1.846
 7254TIP3    H221708   5.244   7.249   1.778
 7255TIP3   OH221709   2.845   6.821   5.453
 7255TIP3    H121710   2.917   6.757   5.449
 7255TIP3    H221711   2.768   6.772   5.425
 7256TIP3   OH221712   5.759   2.189   6.077
 7256TIP3    H121713   5.686   2.197   6.017
 7256TIP3    H221714   5.739   2.110   6.128
 7257TIP3   OH221715   0.541   0.319   6.676
 7257TIP3    H121716   0.479   0.311   6.749
 7257TIP3    H221717   0.605   0.383   6.706
 7258TIP3   OH221718   7.086   5.871   3.484
 7258TIP3    H121719   7.105   5.789   3.439
 7258TIP3    H221720   7.115   5.856   3.575
 7259TIP3   OH221721   2.918   3.726   2.537
 7259TIP3    H121722   2.946   3.776   2.613
 7259TIP3    H221723   2.997   3.716   2.485
 7260TIP3   OH221724   4.701   5.837   3.252
 7260TIP3    H121725   4.751   5.913   3.282
 7260TIP3    H221726   4.631   5.827   3.317
 7261TIP3   OH221727   7.687   6.638   4.192
 7261TIP3    H121728   7.674   6.727   4.160
 7261TIP3    H221729   7.780   6.621   4.180
 7262TIP3   OH221730   6.965   5.813   5.831
 7262TIP3    H121731   6.981   5.906   5.842
 7262TIP3    H221732   6.907   5.790   5.903
 7263TIP3   OH221733   2.439   5.501   0.394
 7263TIP3    H121734   2.454   5.440   0.467
 7263TIP3    H221735   2.393   5.449   0.328
 7264TIP3   OH221736   7.368   5.929   2.642
 7264TIP3    H121737   7.454   5.916   2.604
 7264TIP3    H221738   7.382   5.995   2.711
 7265TIP3   OH221739   4.219   3.755   0.650
 7265TIP3    H121740   4.195   3.668   0.621
 7265TIP3    H221741   4.188   3.760   0.741
 7266TIP3   OH221742   7.213   5.512   2.494
 7266TIP3    H121743   7.188   5.526   2.403
 7266TIP3    H221744   7.227   5.600   2.529
 7267TIP3   OH221745   3.469   4.923   3.882
 7267TIP3    H121746   3.521   4.881   3.813
 7267TIP3    H221747   3.514   4.899   3.963
 7268TIP3   OH221748   8.038   4.913   1.893
 7268TIP3    H121749   8.099   4.986   1.882
 7268TIP3    H221750   8.093   4.835   1.884
 7269TIP3   OH221751   6.691   4.136   1.113
 7269TIP3    H121752   6.668   4.098   1.198
 7269TIP3    H221753   6.619   4.109   1.055
 7270TIP3   OH221754   5.836   0.824   4.933
 7270TIP3    H121755   5.749   0.786   4.921
 7270TIP3    H221756   5.823   0.918   4.921
 7271TIP3   OH221757   5.269   3.849   2.997
 7271TIP3    H121758   5.230   3.813   2.917
 7271TIP3    H221759   5.195   3.862   3.055
 7272TIP3   OH221760   2.414   2.057   4.088
 7272TIP3    H121761   2.399   2.029   3.998
 7272TIP3    H221762   2.339   2.112   4.110
 7273TIP3   OH221763   1.397   7.101   5.097
 7273TIP3    H121764   1.369   7.011   5.115
 7273TIP3    H221765   1.460   7.093   5.027
 7274TIP3   OH221766   2.363   0.319   2.153
 7274TIP3    H121767   2.425   0.335   2.082
 7274TIP3    H221768   2.303   0.394   2.150
 7275TIP3   OH221769   0.402   1.020   0.920
 7275TIP3    H121770   0.416   0.967   0.998
 7275TIP3    H221771   0.435   1.106   0.943
 7276TIP3   OH221772   3.620   6.945   2.955
 7276TIP3    H121773   3.664   6.875   2.908
 7276TIP3    H221774   3.541   6.963   2.905
 7277TIP3   OH221775   0.504   0.801   2.149
 7277TIP3    H121776   0.477   0.870   2.210
 7277TIP3    H221777   0.424   0.778   2.101
 7278TIP3   OH221778   2.194   0.653   3.066
 7278TIP3    H121779   2.163   0.609   2.987
 7278TIP3    H221780   2.289   0.638   3.067
 7279TIP3   OH221781   1.570   5.801   2.779
 7279TIP3    H121782   1.533   5.758   2.856
 7279TIP3    H221783   1.522   5.764   2.705
 7280TIP3   OH221784   7.255   4.860   3.237
 7280TIP3    H121785   7.293   4.807   3.307
 7280TIP3    H221786   7.296   4.946   3.247
 7281TIP3   OH221787   4.366   2.181   2.217
 7281TIP3    H121788   4.411   2.265   2.225
 7281TIP3    H221789   4.333   2.180   2.127
 7282TIP3   OH221790   3.471   1.712   0.251
 7282TIP3    H121791   3.426   1.787   0.290
 7282TIP3    H221792   3.416   1.637   0.271
 7283TIP3   OH221793   6.374   1.388   4.877
 7283TIP3    H121794   6.422   1.362   4.956
 7283TIP3    H221795   6.316   1.314   4.859
 7284TIP3   OH221796   1.561   0.666   3.086
 7284TIP3    H121797   1.527   0.753   3.104
 7284TIP3    H221798   1.606   0.640   3.166
 7285TIP3   OH221799   0.324   2.177   0.747
 7285TIP3    H121800   0.405   2.153   0.702
 7285TIP3    H221801   0.297   2.259   0.704
 7286TIP3   OH221802   1.947   2.499   2.146
 7286TIP3    H121803   1.858   2.477   2.118
 7286TIP3    H221804   2.004   2.448   2.088
 7287TIP3   OH221805   5.231   5.095   4.728
 7287TIP3    H121806   5.272   5.166   4.678
 7287TIP3    H221807   5.199   5.138   4.807
 7288TIP3   OH221808   4.560   6.007   0.883
 7288TIP3    H121809   4.473   6.044   0.892
 7288TIP3    H221810   4.552   5.917   0.915
 7289TIP3   OH221811   0.260   5.124   6.283
 7289TIP3    H121812   0.251   5.065   6.208
 7289TIP3    H221813   0.354   5.131   6.297
 7290TIP3   OH221814   3.356   4.993   5.916
 7290TIP3    H121815   3.439   4.963   5.879
 7290TIP3    H221816   3.314   5.041   5.844
 7291TIP3   OH221817   0.594   4.270   2.527
 7291TIP3    H121818   0.504   4.288   2.554
 7291TIP3    H221819   0.598   4.296   2.435
 7292TIP3   OH221820   4.434   5.084   2.740
 7292TIP3    H121821   4.393   5.000   2.758
 7292TIP3    H221822   4.511   5.062   2.687
 7293TIP3   OH221823   8.081   3.818   6.163
 7293TIP3    H121824   8.084   3.751   6.231
 7293TIP3    H221825   8.173   3.837   6.144
 7294TIP3   OH221826   8.153   4.956   1.587
 7294TIP3    H121827   8.065   4.983   1.614
 7294TIP3    H221828   8.169   4.876   1.637
 7295TIP3   OH221829   0.891   5.761   0.660
 7295TIP3    H121830   0.959   5.827   0.650
 7295TIP3    H221831   0.872   5.732   0.570
 7296TIP3   OH221832   2.537   3.523   5.491
 7296TIP3    H121833   2.564   3.437   5.522
 7296TIP3    H221834   2.547   3.581   5.567
 7297TIP3   OH221835   8.057   3.389   4.675
 7297TIP3    H121836   8.090   3.322   4.735
 7297TIP3    H221837   8.000   3.341   4.614
 7298TIP3   OH221838   1.195   3.112   0.951
 7298TIP3    H121839   1.189   3.099   0.856
 7298TIP3    H221840   1.289   3.114   0.969
 7299TIP3   OH221841   2.897   1.729   1.766
 7299TIP3    H121842   2.811   1.736   1.807
 7299TIP3    H221843   2.909   1.636   1.749
 7300TIP3   OH221844   3.628   1.135   6.117
 7300TIP3    H121845   3.581   1.058   6.149
 7300TIP3    H221846   3.718   1.122   6.144
 7301TIP3   OH221847   0.146   5.588   1.483
 7301TIP3    H121848   0.168   5.499   1.512
 7301TIP3    H221849   0.173   5.589   1.391
 7302TIP3   OH221850   3.405   3.898   3.235
 7302TIP3    H121851   3.342   3.970   3.232
 7302TIP3    H221852   3.356   3.821   3.207
 7303TIP3   OH221853   0.098   4.700   5.697
 7303TIP3    H121854   0.033   4.704   5.768
 7303TIP3    H221855   0.131   4.790   5.691
 7304TIP3   OH221856   2.832   5.972   0.321
 7304TIP3    H121857   2.737   5.973   0.336
 7304TIP3    H221858   2.865   6.044   0.376
 7305TIP3   OH221859   0.352   5.287   3.742
 7305TIP3    H121860   0.283   5.300   3.677
 7305TIP3    H221861   0.306   5.264   3.822
 7306TIP3   OH221862   1.991   0.429   1.372
 7306TIP3    H121863   2.018   0.361   1.434
 7306TIP3    H221864   1.934   0.486   1.423
 7307TIP3   OH221865   4.109   3.491   3.580
 7307TIP3    H121866   4.065   3.492   3.665
 7307TIP3    H221867   4.166   3.414   3.584
 7308TIP3   OH221868   6.145   4.292   2.374
 7308TIP3    H121869   6.085   4.351   2.328
 7308TIP3    H221870   6.205   4.261   2.306
 7309TIP3   OH221871   5.520   3.645   2.851
 7309TIP3    H121872   5.482   3.584   2.914
 7309TIP3    H221873   5.450   3.708   2.833
 7310TIP3   OH221874   7.035   6.869   3.987
 7310TIP3    H121875   7.045   6.908   4.074
 7310TIP3    H221876   7.028   6.775   4.004
 7311TIP3   OH221877   5.490   3.309   3.134
 7311TIP3    H121878   5.411   3.260   3.156
 7311TIP3    H221879   5.552   3.243   3.102
 7312TIP3   OH221880   5.837   5.501   5.256
 7312TIP3    H121881   5.871   5.561   5.323
 7312TIP3    H221882   5.887   5.523   5.177
 7313TIP3   OH221883   0.322   4.092   6.245
 7313TIP3    H121884   0.247   4.151   6.257
 7313TIP3    H221885   0.319   4.035   6.321
 7314TIP3   OH221886   1.339   6.796   4.519
 7314TIP3    H121887   1.390   6.723   4.554
 7314TIP3    H221888   1.366   6.871   4.573
 7315TIP3   OH221889   8.295   6.485   5.092
 7315TIP3    H121890   8.281   6.509   5.183
 7315TIP3    H221891   8.207   6.477   5.055
 7316TIP3   OH221892   1.499   5.047   5.163
 7316TIP3    H121893   1.502   4.974   5.101
 7316TIP3    H221894   1.581   5.095   5.148
 7317TIP3   OH221895   5.360   6.579   3.235
 7317TIP3    H121896   5.414   6.646   3.193
 7317TIP3    H221897   5.279   6.624   3.256
 7318TIP3   OH221898   5.935   7.289   3.813
 7318TIP3    H121899   5.933   7.365   3.872
 7318TIP3    H221900   5.943   7.214   3.872
 7319TIP3   OH221901   6.261   6.696   3.200
 7319TIP3    H121902   6.181   6.716   3.248
 7319TIP3    H221903   6.270   6.601   3.206
 7320TIP3   OH221904   2.142   7.053   2.936
 7320TIP3    H121905   2.075   7.025   2.998
 7320TIP3    H221906   2.165   6.974   2.888
 7321TIP3   OH221907   6.281   0.681   6.501
 7321TIP3    H121908   6.198   0.634   6.508
 7321TIP3    H221909   6.345   0.625   6.545
 7322TIP3   OH221910   5.627   0.153   5.401
 7322TIP3    H121911   5.607   0.067   5.365
 7322TIP3    H221912   5.623   0.142   5.496
 7323TIP3   OH221913   2.419   0.022   6.052
 7323TIP3    H121914   2.412   0.084   6.125
 7323TIP3    H221915   2.428  -0.063   6.094
 7324TIP3   OH221916   3.188   2.131   0.571
 7324TIP3    H121917   3.095   2.134   0.546
 7324TIP3    H221918   3.195   2.193   0.644
 7325TIP3   OH221919   0.679   1.693   3.359
 7325TIP3    H121920   0.729   1.612   3.364
 7325TIP3    H221921   0.640   1.692   3.271
 7326TIP3   OH221922   2.568   7.686   6.769
 7326TIP3    H121923   2.642   7.747   6.759
 7326TIP3    H221924   2.588   7.615   6.708
 7327TIP3   OH221925   5.949   1.974   6.427
 7327TIP3    H121926   6.003   2.051   6.446
 7327TIP3    H221927   5.973   1.950   6.337
 7328TIP3   OH221928   1.255   7.364   2.541
 7328TIP3    H121929   1.334   7.344   2.591
 7328TIP3    H221930   1.225   7.448   2.577
 7329TIP3   OH221931   3.217   5.329   2.963
 7329TIP3    H121932   3.274   5.272   3.014
 7329TIP3    H221933   3.228   5.416   3.003
 7330TIP3   OH221934   3.195   2.808   6.624
 7330TIP3    H121935   3.200   2.903   6.630
 7330TIP3    H221936   3.205   2.789   6.530
 7331TIP3   OH221937   1.414   0.095   2.080
 7331TIP3    H121938   1.351   0.141   2.024
 7331TIP3    H221939   1.374   0.096   2.167
 7332TIP3   OH221940   0.318   1.617   3.278
 7332TIP3    H121941   0.326   1.529   3.315
 7332TIP3    H221942   0.227   1.623   3.250
 7333TIP3   OH221943   7.866   5.540   6.333
 7333TIP3    H121944   7.884   5.450   6.307
 7333TIP3    H221945   7.781   5.535   6.377
 7334TIP3   OH221946   4.832   3.249   1.226
 7334TIP3    H121947   4.741   3.231   1.249
 7334TIP3    H221948   4.836   3.344   1.214
 7335TIP3   OH221949   5.548   0.413   6.537
 7335TIP3    H121950   5.636   0.388   6.566
 7335TIP3    H221951   5.555   0.425   6.443
 7336TIP3   OH221952   5.685   3.082   3.193
 7336TIP3    H121953   5.741   3.075   3.271
 7336TIP3    H221954   5.734   3.138   3.133
 7337TIP3   OH221955   4.688   6.917   1.030
 7337TIP3    H121956   4.664   6.852   1.097
 7337TIP3    H221957   4.780   6.900   1.013
 7338TIP3   OH221958   1.263   1.173   6.654
 7338TIP3    H121959   1.215   1.119   6.717
 7338TIP3    H221960   1.196   1.202   6.592
 7339TIP3   OH221961   4.824   0.835   2.910
 7339TIP3    H121962   4.777   0.902   2.860
 7339TIP3    H221963   4.852   0.772   2.844
 7340TIP3   OH221964   2.693   7.197   1.209
 7340TIP3    H121965   2.714   7.269   1.149
 7340TIP3    H221966   2.671   7.241   1.291
 7341TIP3   OH221967   7.437   0.861   5.944
 7341TIP3    H121968   7.396   0.788   5.897
 7341TIP3    H221969   7.372   0.931   5.942
 7342TIP3   OH221970   0.191   7.612   3.921
 7342TIP3    H121971   0.232   7.526   3.915
 7342TIP3    H221972   0.245   7.669   3.867
 7343TIP3   OH221973   3.615   0.220   6.674
 7343TIP3    H121974   3.596   0.157   6.605
 7343TIP3    H221975   3.530   0.251   6.704
 7344TIP3   OH221976   2.674   0.471   0.142
 7344TIP3    H121977   2.621   0.452   0.065
 7344TIP3    H221978   2.696   0.385   0.179
 7345TIP3   OH221979   1.116   4.356   6.218
 7345TIP3    H121980   1.192   4.371   6.162
 7345TIP3    H221981   1.148   4.295   6.285
 7346TIP3   OH221982   5.668   0.156   4.247
 7346TIP3    H121983   5.717   0.195   4.320
 7346TIP3    H221984   5.734   0.141   4.179
 7347TIP3   OH221985   1.480   3.110   3.854
 7347TIP3    H121986   1.532   3.174   3.903
 7347TIP3    H221987   1.428   3.163   3.794
 7348TIP3   OH221988   2.703   5.435   4.018
 7348TIP3    H121989   2.716   5.522   4.056
 7348TIP3    H221990   2.634   5.448   3.953
 7349TIP3   OH221991   0.979   3.090   2.440
 7349TIP3    H121992   0.885   3.074   2.452
 7349TIP3    H221993   1.000   3.156   2.507
 7350TIP3   OH221994   8.051   1.735   5.367
 7350TIP3    H121995   7.964   1.761   5.336
 7350TIP3    H221996   8.109   1.754   5.293
 7351TIP3   OH221997   4.220   0.432   4.265
 7351TIP3    H121998   4.228   0.357   4.324
 7351TIP3    H221999   4.257   0.505   4.314
 7352TIP3   OH222000   7.742   1.057   3.072
 7352TIP3    H122001   7.826   1.098   3.093
 7352TIP3    H222002   7.692   1.061   3.153
 7353TIP3   OH222003   4.673   2.057   4.342
 7353TIP3    H122004   4.696   2.057   4.434
 7353TIP3    H222005   4.757   2.049   4.296
 7354TIP3   OH222006   7.093   6.729   1.330
 7354TIP3    H122007   7.022   6.741   1.393
 7354TIP3    H222008   7.049   6.702   1.249
 7355TIP3   OH222009   0.578   3.893   3.052
 7355TIP3    H122010   0.566   3.895   3.147
 7355TIP3    H222011   0.533   3.814   3.024
 7356TIP3   OH222012   0.789   1.624   4.218
 7356TIP3    H122013   0.701   1.595   4.193
 7356TIP3    H222014   0.787   1.719   4.207
 7357TIP3   OH222015   4.444   6.841   4.652
 7357TIP3    H122016   4.449   6.834   4.748
 7357TIP3    H222017   4.443   6.750   4.622
 7358TIP3   OH222018   2.021   6.350   3.218
 7358TIP3    H122019   2.089   6.288   3.191
 7358TIP3    H222020   2.025   6.420   3.153
 7359TIP3   OH222021   5.515   2.755   6.176
 7359TIP3    H122022   5.442   2.804   6.138
 7359TIP3    H222023   5.572   2.823   6.213
 7360TIP3   OH222024   8.044   6.922   4.639
 7360TIP3    H122025   8.091   6.978   4.701
 7360TIP3    H222026   8.059   6.963   4.554
 7361TIP3   OH222027   0.361   3.636   3.301
 7361TIP3    H122028   0.365   3.618   3.207
 7361TIP3    H222029   0.361   3.732   3.307
 7362TIP3   OH222030   4.756   0.344   1.614
 7362TIP3    H122031   4.696   0.393   1.669
 7362TIP3    H222032   4.835   0.398   1.609
 7363TIP3   OH222033   2.447   6.298   4.017
 7363TIP3    H122034   2.442   6.330   3.927
 7363TIP3    H222035   2.530   6.334   4.050
 7364TIP3   OH222036   4.641   2.672   0.876
 7364TIP3    H122037   4.571   2.634   0.929
 7364TIP3    H222038   4.603   2.680   0.788
 7365TIP3   OH222039   6.614   2.264   3.342
 7365TIP3    H122040   6.608   2.168   3.334
 7365TIP3    H222041   6.523   2.293   3.344
 7366TIP3   OH222042   1.046   0.586   1.934
 7366TIP3    H122043   0.985   0.647   1.976
 7366TIP3    H222044   1.014   0.579   1.844
 7367TIP3   OH222045   3.760   2.791   0.685
 7367TIP3    H122046   3.754   2.749   0.600
 7367TIP3    H222047   3.806   2.874   0.668
 7368TIP3   OH222048   1.781   4.964   2.313
 7368TIP3    H122049   1.852   4.931   2.257
 7368TIP3    H222050   1.781   4.906   2.389
 7369TIP3   OH222051   4.276   1.786   1.655
 7369TIP3    H122052   4.322   1.746   1.729
 7369TIP3    H222053   4.327   1.864   1.634
 7370TIP3   OH222054   6.400   2.323   0.696
 7370TIP3    H122055   6.333   2.255   0.692
 7370TIP3    H222056   6.352   2.403   0.715
 7371TIP3   OH222057   4.388   1.726   2.814
 7371TIP3    H122058   4.394   1.719   2.909
 7371TIP3    H222059   4.364   1.817   2.798
 7372TIP3   OH222060   1.745   3.058   0.655
 7372TIP3    H122061   1.781   3.135   0.613
 7372TIP3    H222062   1.814   3.029   0.715
 7373TIP3   OH222063   4.670   1.238   3.955
 7373TIP3    H122064   4.607   1.310   3.953
 7373TIP3    H222065   4.701   1.236   4.046
 7374TIP3   OH222066   2.574   0.585   4.911
 7374TIP3    H122067   2.502   0.574   4.973
 7374TIP3    H222068   2.554   0.666   4.864
 7375TIP3   OH222069   0.483   5.170   1.501
 7375TIP3    H122070   0.400   5.214   1.486
 7375TIP3    H222071   0.461   5.096   1.558
 7376TIP3   OH222072   3.263   5.199   5.080
 7376TIP3    H122073   3.325   5.257   5.124
 7376TIP3    H222074   3.177   5.238   5.099
 7377TIP3   OH222075   7.943   1.182   6.462
 7377TIP3    H122076   7.871   1.130   6.498
 7377TIP3    H222077   7.971   1.238   6.535
 7378TIP3   OH222078   5.840   1.158   2.198
 7378TIP3    H122079   5.880   1.152   2.111
 7378TIP3    H222080   5.766   1.218   2.187
 7379TIP3   OH222081   3.059   4.480   6.192
 7379TIP3    H122082   3.030   4.451   6.279
 7379TIP3    H222083   3.035   4.409   6.134
 7380TIP3   OH222084   4.219   5.705   4.332
 7380TIP3    H122085   4.280   5.673   4.265
 7380TIP3    H222086   4.222   5.800   4.325
 7381TIP3   OH222087   3.051   7.184   1.196
 7381TIP3    H122088   3.129   7.143   1.157
 7381TIP3    H222089   3.031   7.257   1.137
 7382TIP3   OH222090   7.632   2.418   0.300
 7382TIP3    H122091   7.584   2.340   0.326
 7382TIP3    H222092   7.701   2.427   0.365
 7383TIP3   OH222093   4.783   4.720   6.523
 7383TIP3    H122094   4.847   4.766   6.469
 7383TIP3    H222095   4.810   4.739   6.613
 7384TIP3   OH222096   6.450   7.801   0.051
 7384TIP3    H122097   6.542   7.785   0.069
 7384TIP3    H222098   6.426   7.733  -0.012
 7385TIP3   OH222099   0.585   1.930   0.842
 7385TIP3    H122100   0.542   1.939   0.757
 7385TIP3    H222101   0.676   1.908   0.821
 7386TIP3   OH222102   6.522   6.952   4.821
 7386TIP3    H122103   6.547   7.027   4.767
 7386TIP3    H222104   6.563   6.970   4.906
 7387TIP3   OH222105   7.285   6.697   2.779
 7387TIP3    H122106   7.233   6.774   2.756
 7387TIP3    H222107   7.300   6.652   2.696
 7388TIP3   OH222108   1.094   3.810   1.650
 7388TIP3    H122109   1.178   3.842   1.682
 7388TIP3    H222110   1.111   3.721   1.620
 7389TIP3   OH222111   1.602   7.254   0.553
 7389TIP3    H122112   1.641   7.185   0.499
 7389TIP3    H222113   1.576   7.321   0.490
 7390TIP3   OH222114   2.603   3.447   4.463
 7390TIP3    H122115   2.697   3.456   4.477
 7390TIP3    H222116   2.564   3.509   4.525
 7391TIP3   OH222117   0.466   3.557   0.047
 7391TIP3    H122118   0.532   3.494   0.077
 7391TIP3    H222119   0.517   3.635   0.024
 7392TIP3   OH222120   5.548   7.189   1.950
 7392TIP3    H122121   5.569   7.202   1.858
 7392TIP3    H222122   5.625   7.223   1.997
 7393TIP3   OH222123   1.909   6.979   3.059
 7393TIP3    H122124   1.866   6.973   3.145
 7393TIP3    H222125   1.845   6.943   2.998
 7394TIP3   OH222126   3.417   1.992   5.994
 7394TIP3    H122127   3.455   1.922   6.047
 7394TIP3    H222128   3.373   2.049   6.057
 7395TIP3   OH222129   5.986   3.751   3.576
 7395TIP3    H122130   5.944   3.813   3.517
 7395TIP3    H222131   6.077   3.747   3.548
 7396TIP3   OH222132   2.024   5.279   3.139
 7396TIP3    H122133   2.096   5.272   3.076
 7396TIP3    H222134   1.990   5.190   3.145
 7397TIP3   OH222135   3.913   1.016   4.292
 7397TIP3    H122136   3.863   1.062   4.359
 7397TIP3    H222137   3.889   0.924   4.303
 7398TIP3   OH222138  -0.016   3.112   6.631
 7398TIP3    H122139   0.065   3.076   6.667
 7398TIP3    H222140  -0.002   3.114   6.537
 7399TIP3   OH222141   3.703   0.993   3.175
 7399TIP3    H122142   3.791   1.031   3.165
 7399TIP3    H222143   3.710   0.936   3.252
 7400TIP3   OH222144   5.885   4.620   2.773
 7400TIP3    H122145   5.837   4.702   2.758
 7400TIP3    H222146   5.821   4.552   2.754
 7401TIP3   OH222147   0.685   0.536   6.688
 7401TIP3    H122148   0.640   0.578   6.615
 7401TIP3    H222149   0.685   0.602   6.757
 7402TIP3   OH222150   5.212   3.332   4.349
 7402TIP3    H122151   5.128   3.285   4.345
 7402TIP3    H222152   5.247   3.326   4.260
 7403TIP3   OH222153   6.701   2.086   0.285
 7403TIP3    H122154   6.747   2.045   0.358
 7403TIP3    H222155   6.622   2.123   0.324
 7404TIP3   OH222156   0.542   4.328   1.059
 7404TIP3    H122157   0.522   4.418   1.032
 7404TIP3    H222158   0.578   4.286   0.981
 7405TIP3   OH222159   5.408   3.335   6.347
 7405TIP3    H122160   5.328   3.357   6.298
 7405TIP3    H222161   5.397   3.378   6.431
 7406TIP3   OH222162   8.141   6.262   2.722
 7406TIP3    H122163   8.143   6.168   2.740
 7406TIP3    H222164   8.188   6.272   2.640
 7407TIP3   OH222165   7.613   7.711   3.182
 7407TIP3    H122166   7.523   7.705   3.149
 7407TIP3    H222167   7.655   7.631   3.148
 7408TIP3   OH222168   2.549   6.097   6.040
 7408TIP3    H122169   2.501   6.026   6.081
 7408TIP3    H222170   2.496   6.123   5.965
 7409TIP3   OH222171   0.228   3.094   6.440
 7409TIP3    H122172   0.207   3.120   6.530
 7409TIP3    H222173   0.178   3.155   6.386
 7410TIP3   OH222174   6.477   2.997   1.787
 7410TIP3    H122175   6.553   3.039   1.748
 7410TIP3    H222176   6.497   2.903   1.783
 7411TIP3   OH222177   1.951   4.287   6.221
 7411TIP3    H122178   1.932   4.325   6.307
 7411TIP3    H222179   1.963   4.362   6.163
 7412TIP3   OH222180   1.071   4.176   4.858
 7412TIP3    H122181   1.067   4.120   4.936
 7412TIP3    H222182   0.998   4.236   4.868
 7413TIP3   OH222183   0.445   0.891   1.693
 7413TIP3    H122184   0.511   0.828   1.664
 7413TIP3    H222185   0.414   0.856   1.777
 7414TIP3   OH222186   1.676   1.977   2.563
 7414TIP3    H122187   1.654   1.928   2.483
 7414TIP3    H222188   1.741   2.041   2.535
 7415TIP3   OH222189   1.313   0.654   2.020
 7415TIP3    H122190   1.233   0.623   1.979
 7415TIP3    H222191   1.349   0.717   1.957
 7416TIP3   OH222192   2.387   5.298   1.564
 7416TIP3    H122193   2.407   5.264   1.652
 7416TIP3    H222194   2.408   5.225   1.505
 7417TIP3   OH222195   4.271   1.720   5.465
 7417TIP3    H122196   4.327   1.673   5.403
 7417TIP3    H222197   4.323   1.795   5.493
 7418TIP3   OH222198   5.589   0.903   3.586
 7418TIP3    H122199   5.575   0.933   3.496
 7418TIP3    H222200   5.676   0.935   3.609
 7419TIP3   OH222201   3.411   4.953   4.705
 7419TIP3    H122202   3.484   5.007   4.674
 7419TIP3    H222203   3.352   4.946   4.630
 7420TIP3   OH222204   7.783   1.161   1.674
 7420TIP3    H122205   7.806   1.251   1.696
 7420TIP3    H222206   7.805   1.111   1.753
 7421TIP3   OH222207   2.441   6.777   3.590
 7421TIP3    H122208   2.416   6.863   3.555
 7421TIP3    H222209   2.471   6.795   3.679
 7422TIP3   OH222210   6.613   5.479   2.299
 7422TIP3    H122211   6.548   5.502   2.366
 7422TIP3    H222212   6.597   5.541   2.228
 7423TIP3   OH222213   3.925   0.446   1.577
 7423TIP3    H122214   3.950   0.369   1.628
 7423TIP3    H222215   3.985   0.515   1.608
 7424TIP3   OH222216   0.647   0.324   6.421
 7424TIP3    H122217   0.607   0.243   6.388
 7424TIP3    H222218   0.618   0.329   6.512
 7425TIP3   OH222219   6.727   1.243   1.526
 7425TIP3    H122220   6.752   1.332   1.554
 7425TIP3    H222221   6.810   1.200   1.508
 7426TIP3   OH222222   0.422   7.707   3.287
 7426TIP3    H122223   0.454   7.688   3.198
 7426TIP3    H222224   0.337   7.664   3.291
 7427TIP3   OH222225   4.373   5.783   1.220
 7427TIP3    H122226   4.456   5.831   1.213
 7427TIP3    H222227   4.378   5.742   1.306
 7428TIP3   OH222228   1.018   3.804   2.993
 7428TIP3    H122229   0.980   3.749   3.061
 7428TIP3    H222230   0.945   3.856   2.961
 7429TIP3   OH222231   3.607   2.571   6.385
 7429TIP3    H122232   3.556   2.491   6.377
 7429TIP3    H222233   3.542   2.640   6.397
 7430TIP3   OH222234   5.588   0.686   3.120
 7430TIP3    H122235   5.611   0.777   3.103
 7430TIP3    H222236   5.502   0.690   3.161
 7431TIP3   OH222237   6.420   7.541   1.394
 7431TIP3    H122238   6.370   7.492   1.459
 7431TIP3    H222239   6.460   7.613   1.444
 7432TIP3   OH222240   0.579   5.829   0.718
 7432TIP3    H122241   0.554   5.758   0.777
 7432TIP3    H222242   0.667   5.807   0.689
 7433TIP3   OH222243   2.520   2.526   2.945
 7433TIP3    H122244   2.535   2.434   2.923
 7433TIP3    H222245   2.554   2.535   3.034
 7434TIP3   OH222246   7.174   4.819   5.539
 7434TIP3    H122247   7.181   4.850   5.629
 7434TIP3    H222248   7.225   4.882   5.488
 7435TIP3   OH222249   3.334   6.430   5.931
 7435TIP3    H122250   3.412   6.374   5.933
 7435TIP3    H222251   3.362   6.507   5.882
 7436TIP3   OH222252   5.763   3.882   1.412
 7436TIP3    H122253   5.711   3.884   1.492
 7436TIP3    H222254   5.723   3.814   1.359
 7437TIP3   OH222255   5.462   7.486   6.400
 7437TIP3    H122256   5.467   7.467   6.307
 7437TIP3    H222257   5.383   7.539   6.409
 7438TIP3   OH222258   3.083   2.087   6.408
 7438TIP3    H122259   3.014   2.021   6.404
 7438TIP3    H222260   3.106   2.093   6.501
 7439TIP3   OH222261   2.072   6.854   3.353
 7439TIP3    H122262   1.994   6.909   3.354
 7439TIP3    H222263   2.075   6.814   3.440
 7440TIP3   OH222264   4.604   5.613   4.046
 7440TIP3    H122265   4.688   5.622   4.002
 7440TIP3    H222266   4.611   5.669   4.123
 7441TIP3   OH222267   2.309   2.672   3.176
 7441TIP3    H122268   2.399   2.703   3.187
 7441TIP3    H222269   2.300   2.657   3.082
 7442TIP3   OH222270   2.232   2.904   5.411
 7442TIP3    H122271   2.236   2.815   5.446
 7442TIP3    H222272   2.140   2.929   5.419
 7443TIP3   OH222273   7.602   6.013   3.551
 7443TIP3    H122274   7.664   5.945   3.526
 7443TIP3    H222275   7.517   5.969   3.550
 7444TIP3   OH222276   4.021   2.534   3.468
 7444TIP3    H122277   3.992   2.522   3.377
 7444TIP3    H222278   4.116   2.532   3.463
 7445TIP3   OH222279   2.924   6.390   1.451
 7445TIP3    H122280   3.013   6.361   1.472
 7445TIP3    H222281   2.936   6.470   1.400
 7446TIP3   OH222282   2.451   7.425   2.061
 7446TIP3    H122283   2.360   7.453   2.050
 7446TIP3    H222284   2.473   7.384   1.978
 7447TIP3   OH222285   0.379   5.945   5.988
 7447TIP3    H122286   0.360   5.923   6.079
 7447TIP3    H222287   0.310   5.902   5.938
 7448TIP3   OH222288   2.578   1.133   1.256
 7448TIP3    H122289   2.488   1.137   1.224
 7448TIP3    H222290   2.578   1.189   1.334
 7449TIP3   OH222291   1.060   7.806   0.355
 7449TIP3    H122292   1.144   7.759   0.358
 7449TIP3    H222293   1.007   7.755   0.294
 7450TIP3   OH222294   4.712   1.582   4.885
 7450TIP3    H122295   4.623   1.564   4.854
 7450TIP3    H222296   4.741   1.655   4.830
 7451TIP3   OH222297   2.545   5.846   0.980
 7451TIP3    H122298   2.626   5.804   0.953
 7451TIP3    H222299   2.527   5.810   1.067
 7452TIP3   OH222300   0.432   1.150   1.568
 7452TIP3    H122301   0.439   1.070   1.620
 7452TIP3    H222302   0.352   1.138   1.517
 7453TIP3   OH222303   2.354   6.234   6.730
 7453TIP3    H122304   2.359   6.330   6.738
 7453TIP3    H222305   2.440   6.204   6.761
 7454TIP3   OH222306   5.865   3.281   2.411
 7454TIP3    H122307   5.806   3.327   2.470
 7454TIP3    H222308   5.953   3.302   2.444
 7455TIP3   OH222309   0.083   0.204   2.957
 7455TIP3    H122310   0.147   0.259   2.913
 7455TIP3    H222311   0.096   0.221   3.050
 7456TIP3   OH222312   5.340   5.743   4.812
 7456TIP3    H122313   5.252   5.759   4.845
 7456TIP3    H222314   5.356   5.650   4.827
 7457TIP3   OH222315   5.882   3.770   4.549
 7457TIP3    H122316   5.902   3.698   4.608
 7457TIP3    H222317   5.911   3.741   4.463
 7458TIP3   OH222318   4.852   2.464   1.545
 7458TIP3    H122319   4.924   2.485   1.603
 7458TIP3    H222320   4.893   2.424   1.468
 7459TIP3   OH222321   6.879   7.315   2.049
 7459TIP3    H122322   6.925   7.310   2.133
 7459TIP3    H222323   6.879   7.408   2.027
 7460TIP3   OH222324   1.635   7.680   4.887
 7460TIP3    H122325   1.672   7.688   4.799
 7460TIP3    H222326   1.707   7.703   4.945
 7461TIP3   OH222327   2.407   1.902   1.993
 7461TIP3    H122328   2.432   1.859   1.911
 7461TIP3    H222329   2.482   1.959   2.013
 7462TIP3   OH222330   1.470   1.774   1.139
 7462TIP3    H122331   1.513   1.737   1.216
 7462TIP3    H222332   1.385   1.729   1.135
 7463TIP3   OH222333   0.745   7.431   1.051
 7463TIP3    H122334   0.817   7.434   0.987
 7463TIP3    H222335   0.757   7.348   1.097
 7464TIP3   OH222336   7.654   6.073   1.059
 7464TIP3    H122337   7.696   6.158   1.073
 7464TIP3    H222338   7.727   6.011   1.054
 7465TIP3   OH222339   1.293   3.441   2.751
 7465TIP3    H122340   1.277   3.487   2.833
 7465TIP3    H222341   1.297   3.348   2.775
 7466TIP3   OH222342   3.992   5.854   6.347
 7466TIP3    H122343   3.943   5.900   6.415
 7466TIP3    H222344   3.991   5.913   6.272
 7467TIP3   OH222345   7.251   5.646   5.020
 7467TIP3    H122346   7.231   5.565   4.973
 7467TIP3    H222347   7.344   5.660   5.006
 7468TIP3   OH222348   7.855   0.109   0.944
 7468TIP3    H122349   7.911   0.140   1.016
 7468TIP3    H222350   7.773   0.084   0.986
 7469TIP3   OH222351   3.030   3.084   0.365
 7469TIP3    H122352   3.106   3.058   0.417
 7469TIP3    H222353   2.957   3.035   0.404
 7470TIP3   OH222354   4.890   5.104   2.199
 7470TIP3    H122355   4.916   5.028   2.251
 7470TIP3    H222356   4.952   5.172   2.223
 7471TIP3   OH222357   2.932   1.536   3.625
 7471TIP3    H122358   2.980   1.520   3.706
 7471TIP3    H222359   2.992   1.511   3.555
 7472TIP3   OH222360   1.926   1.328   5.492
 7472TIP3    H122361   1.950   1.418   5.514
 7472TIP3    H222362   1.832   1.324   5.506
 7473TIP3   OH222363   2.357   3.884   5.281
 7473TIP3    H122364   2.278   3.836   5.258
 7473TIP3    H222365   2.429   3.826   5.256
 7474TIP3   OH222366   2.952   2.165   5.188
 7474TIP3    H122367   3.032   2.117   5.170
 7474TIP3    H222368   2.928   2.203   5.104
 7475TIP3   OH222369   6.930   6.859   4.579
 7475TIP3    H122370   6.948   6.953   4.573
 7475TIP3    H222371   6.972   6.831   4.660
 7476TIP3   OH222372   1.717   4.342   5.345
 7476TIP3    H122373   1.651   4.286   5.387
 7476TIP3    H222374   1.700   4.429   5.380
 7477TIP3   OH222375   6.345   0.996   5.347
 7477TIP3    H122376   6.341   0.943   5.426
 7477TIP3    H222377   6.432   0.977   5.310
 7478TIP3   OH222378   4.919   3.768   6.528
 7478TIP3    H122379   4.998   3.809   6.562
 7478TIP3    H222380   4.950   3.707   6.462
 7479TIP3   OH222381   0.510   2.083   5.318
 7479TIP3    H122382   0.419   2.061   5.340
 7479TIP3    H222383   0.521   2.054   5.227
 7480TIP3   OH222384   3.135   4.069   3.503
 7480TIP3    H122385   3.180   3.996   3.544
 7480TIP3    H222386   3.056   4.081   3.556
 7481TIP3   OH222387   0.124   2.665   5.369
 7481TIP3    H122388   0.059   2.623   5.425
 7481TIP3    H222389   0.094   2.755   5.360
 7482TIP3   OH222390   2.209   6.297   3.846
 7482TIP3    H122391   2.268   6.254   3.908
 7482TIP3    H222392   2.261   6.305   3.766
 7483TIP3   OH222393   5.835   3.470   1.180
 7483TIP3    H122394   5.795   3.402   1.126
 7483TIP3    H222395   5.781   3.547   1.166
 7484TIP3   OH222396   2.423   6.844   1.700
 7484TIP3    H122397   2.503   6.852   1.751
 7484TIP3    H222398   2.426   6.755   1.665
 7485TIP3   OH222399   7.957   6.565   0.629
 7485TIP3    H122400   7.953   6.660   0.617
 7485TIP3    H222401   7.988   6.553   0.718
 7486TIP3   OH222402   5.684   2.854   0.325
 7486TIP3    H122403   5.632   2.874   0.402
 7486TIP3    H222404   5.707   2.761   0.335
 7487TIP3   OH222405   6.233   5.946   3.592
 7487TIP3    H122406   6.286   5.867   3.599
 7487TIP3    H222407   6.164   5.924   3.529
 7488TIP3   OH222408   6.229   2.551   0.777
 7488TIP3    H122409   6.228   2.510   0.863
 7488TIP3    H222410   6.138   2.547   0.747
 7489TIP3   OH222411   2.665   6.980   5.636
 7489TIP3    H122412   2.727   6.917   5.600
 7489TIP3    H222413   2.613   6.929   5.699
 7490TIP3   OH222414   1.118   3.135   5.292
 7490TIP3    H122415   1.096   3.121   5.200
 7490TIP3    H222416   1.037   3.116   5.339
 7491TIP3   OH222417   5.490   5.741   6.423
 7491TIP3    H122418   5.405   5.700   6.409
 7491TIP3    H222419   5.474   5.806   6.491
 7492TIP3   OH222420   6.288   4.851   2.520
 7492TIP3    H122421   6.196   4.841   2.498
 7492TIP3    H222422   6.331   4.872   2.437
 7493TIP3   OH222423   0.630   4.081   3.461
 7493TIP3    H122424   0.632   3.986   3.450
 7493TIP3    H222425   0.566   4.112   3.398
 7494TIP3   OH222426   4.116   6.349   5.911
 7494TIP3    H122427   4.144   6.290   5.842
 7494TIP3    H222428   4.191   6.406   5.928
 7495TIP3   OH222429   6.613   5.983   1.578
 7495TIP3    H122430   6.609   5.991   1.674
 7495TIP3    H222431   6.695   5.938   1.561
 7496TIP3   OH222432   5.074   0.700   4.534
 7496TIP3    H122433   5.040   0.770   4.590
 7496TIP3    H222434   5.019   0.624   4.554
 7497TIP3   OH222435   6.183   3.890   1.892
 7497TIP3    H122436   6.159   3.801   1.919
 7497TIP3    H222437   6.180   3.887   1.796
 7498TIP3   OH222438   8.211   0.305   6.682
 7498TIP3    H122439   8.278   0.367   6.711
 7498TIP3    H222440   8.243   0.271   6.599
 7499TIP3   OH222441   7.716   5.577   0.632
 7499TIP3    H122442   7.642   5.577   0.692
 7499TIP3    H222443   7.784   5.527   0.679
 7500TIP3   OH222444   5.086   0.751   3.781
 7500TIP3    H122445   5.146   0.677   3.773
 7500TIP3    H222446   5.098   0.782   3.871
 7501TIP3   OH222447   3.343   0.792   1.626
 7501TIP3    H122448   3.432   0.828   1.629
 7501TIP3    H222449   3.348   0.713   1.680
 7502TIP3   OH222450   6.754   6.052   5.167
 7502TIP3    H122451   6.797   6.057   5.082
 7502TIP3    H222452   6.780   5.967   5.202
 7503TIP3   OH222453   4.759   2.076   0.582
 7503TIP3    H122454   4.745   2.062   0.489
 7503TIP3    H222455   4.708   2.007   0.624
 7504TIP3   OH222456   4.878   7.074   0.839
 7504TIP3    H122457   4.889   7.092   0.746
 7504TIP3    H222458   4.793   7.112   0.860
 7505TIP3   OH222459   1.658   1.341   2.058
 7505TIP3    H122460   1.733   1.378   2.105
 7505TIP3    H222461   1.601   1.416   2.041
 7506TIP3   OH222462   3.943   5.002   3.473
 7506TIP3    H122463   3.898   4.918   3.463
 7506TIP3    H222464   4.031   4.985   3.440
 7507TIP3   OH222465   4.688   3.038   4.560
 7507TIP3    H122466   4.645   2.953   4.566
 7507TIP3    H222467   4.781   3.019   4.571
 7508TIP3   OH222468   1.370   4.496   2.874
 7508TIP3    H122469   1.285   4.453   2.862
 7508TIP3    H222470   1.416   4.481   2.791
 7509TIP3   OH222471   6.271   3.350   3.950
 7509TIP3    H122472   6.333   3.277   3.957
 7509TIP3    H222473   6.323   3.422   3.914
 7510TIP3   OH222474   0.261   6.922   2.543
 7510TIP3    H122475   0.318   6.886   2.476
 7510TIP3    H222476   0.183   6.867   2.541
 7511TIP3   OH222477   7.469   7.589   2.348
 7511TIP3    H122478   7.399   7.624   2.293
 7511TIP3    H222479   7.548   7.596   2.294
 7512TIP3   OH222480   0.468   1.349   4.245
 7512TIP3    H122481   0.398   1.385   4.191
 7512TIP3    H222482   0.496   1.270   4.199
 7513TIP3   OH222483   5.502   2.491   0.286
 7513TIP3    H122484   5.413   2.466   0.263
 7513TIP3    H222485   5.530   2.426   0.350
 7514TIP3   OH222486   2.145   1.444   1.530
 7514TIP3    H122487   2.092   1.524   1.526
 7514TIP3    H222488   2.169   1.437   1.623
 7515TIP3   OH222489   6.530   1.061   5.948
 7515TIP3    H122490   6.486   1.137   5.910
 7515TIP3    H222491   6.460   0.998   5.963
 7516TIP3   OH222492   7.084   7.493   3.008
 7516TIP3    H122493   7.065   7.469   3.098
 7516TIP3    H222494   7.077   7.410   2.960
 7517TIP3   OH222495   6.806   2.842   6.547
 7517TIP3    H122496   6.725   2.793   6.535
 7517TIP3    H222497   6.869   2.777   6.576
 7518TIP3   OH222498   0.445   3.491   5.025
 7518TIP3    H122499   0.413   3.517   4.939
 7518TIP3    H222500   0.437   3.396   5.026
 7519TIP3   OH222501   1.285   1.584   4.490
 7519TIP3    H122502   1.315   1.630   4.569
 7519TIP3    H222503   1.191   1.600   4.487
 7520TIP3   OH222504   1.359   4.805   6.085
 7520TIP3    H122505   1.285   4.761   6.046
 7520TIP3    H222506   1.379   4.754   6.164
 7521TIP3   OH222507   8.162   0.362   1.669
 7521TIP3    H122508   8.196   0.347   1.757
 7521TIP3    H222509   8.235   0.340   1.611
 7522TIP3   OH222510   3.593   4.514   3.407
 7522TIP3    H122511   3.677   4.496   3.450
 7522TIP3    H222512   3.594   4.458   3.329
 7523TIP3   OH222513   2.753   4.095   1.386
 7523TIP3    H122514   2.690   4.129   1.323
 7523TIP3    H222515   2.718   4.120   1.471
 7524TIP3   OH222516   6.303   7.130   4.204
 7524TIP3    H122517   6.316   7.051   4.258
 7524TIP3    H222518   6.384   7.138   4.154
 7525TIP3   OH222519   4.451   3.668   1.522
 7525TIP3    H122520   4.520   3.693   1.584
 7525TIP3    H222521   4.381   3.730   1.538
 7526TIP3   OH222522   4.333   6.353   1.541
 7526TIP3    H122523   4.289   6.290   1.484
 7526TIP3    H222524   4.426   6.347   1.517
 7527TIP3   OH222525   1.113   0.846   3.837
 7527TIP3    H122526   1.135   0.777   3.775
 7527TIP3    H222527   1.101   0.924   3.782
 7528TIP3   OH222528   0.364   4.365   1.830
 7528TIP3    H122529   0.341   4.323   1.747
 7528TIP3    H222530   0.284   4.359   1.882
 7529TIP3   OH222531   0.897   0.825   2.177
 7529TIP3    H122532   0.853   0.872   2.106
 7529TIP3    H222533   0.841   0.749   2.194
 7530TIP3   OH222534   7.600   3.757   2.828
 7530TIP3    H122535   7.630   3.847   2.843
 7530TIP3    H222536   7.613   3.744   2.734
 7531TIP3   OH222537   5.441   3.048   1.499
 7531TIP3    H122538   5.510   3.113   1.513
 7531TIP3    H222539   5.406   3.068   1.413
 7532TIP3   OH222540   7.991   5.256   0.572
 7532TIP3    H122541   7.963   5.191   0.507
 7532TIP3    H222542   8.037   5.323   0.521
 7533TIP3   OH222543   0.714   1.000   2.611
 7533TIP3    H122544   0.620   0.989   2.621
 7533TIP3    H222545   0.748   0.996   2.701
 7534TIP3   OH222546   5.999   7.332   5.786
 7534TIP3    H122547   5.935   7.369   5.726
 7534TIP3    H222548   5.948   7.274   5.842
 7535TIP3   OH222549   7.134   7.186   4.804
 7535TIP3    H122550   7.197   7.189   4.733
 7535TIP3    H222551   7.187   7.179   4.883
 7536TIP3   OH222552   7.865   3.242   4.519
 7536TIP3    H122553   7.845   3.319   4.467
 7536TIP3    H222554   7.782   3.194   4.525
 7537TIP3   OH222555   6.811   1.880   6.732
 7537TIP3    H122556   6.847   1.846   6.814
 7537TIP3    H222557   6.735   1.824   6.714
 7538TIP3   OH222558   3.807   2.057   2.866
 7538TIP3    H122559   3.890   2.083   2.827
 7538TIP3    H222560   3.820   2.070   2.960
 7539TIP3   OH222561   0.838   0.104   1.857
 7539TIP3    H122562   0.858   0.101   1.764
 7539TIP3    H222563   0.899   0.168   1.893
 7540TIP3   OH222564   6.038   0.459   1.621
 7540TIP3    H122565   6.125   0.424   1.643
 7540TIP3    H222566   6.023   0.430   1.531
 7541TIP3   OH222567   2.257   3.628   2.832
 7541TIP3    H122568   2.204   3.685   2.886
 7541TIP3    H222569   2.253   3.543   2.876
 7542TIP3   OH222570   2.334   3.497   6.415
 7542TIP3    H122571   2.335   3.506   6.319
 7542TIP3    H222572   2.364   3.408   6.431
 7543TIP3   OH222573   6.675   1.538   5.158
 7543TIP3    H122574   6.765   1.529   5.128
 7543TIP3    H222575   6.638   1.450   5.153
 7544TIP3   OH222576   1.916   3.335   3.241
 7544TIP3    H122577   1.959   3.286   3.171
 7544TIP3    H222578   1.921   3.278   3.318
 7545TIP3   OH222579   3.622   1.893   6.630
 7545TIP3    H122580   3.703   1.914   6.676
 7545TIP3    H222581   3.552   1.917   6.690
 7546TIP3   OH222582   6.641   4.850   2.521
 7546TIP3    H122583   6.584   4.859   2.444
 7546TIP3    H222584   6.623   4.762   2.554
 7547TIP3   OH222585   2.237   7.688   0.468
 7547TIP3    H122586   2.149   7.652   0.455
 7547TIP3    H222587   2.224   7.760   0.531
 7548TIP3   OH222588   2.319   0.021   1.315
 7548TIP3    H122589   2.331   0.102   1.365
 7548TIP3    H222590   2.310  -0.047   1.382
 7549TIP3   OH222591   5.340   4.167   6.608
 7549TIP3    H122592   5.373   4.228   6.541
 7549TIP3    H222593   5.414   4.107   6.624
 7550TIP3   OH222594   8.273   1.247   6.685
 7550TIP3    H122595   8.183   1.227   6.712
 7550TIP3    H222596   8.280   1.210   6.597
 7551TIP3   OH222597   2.524   2.849   6.245
 7551TIP3    H122598   2.552   2.888   6.327
 7551TIP3    H222599   2.519   2.923   6.184
 7552TIP3   OH222600   1.038   2.580   3.897
 7552TIP3    H122601   1.051   2.516   3.827
 7552TIP3    H222602   1.110   2.563   3.958
 7553TIP3   OH222603   2.313   5.396   3.551
 7553TIP3    H122604   2.256   5.428   3.621
 7553TIP3    H222605   2.327   5.303   3.572
 7554TIP3   OH222606   5.525   0.581   2.241
 7554TIP3    H122607   5.619   0.592   2.254
 7554TIP3    H222608   5.517   0.518   2.169
 7555TIP3   OH222609   2.668   7.067   4.519
 7555TIP3    H122610   2.655   7.146   4.572
 7555TIP3    H222611   2.739   7.020   4.564
 7556TIP3   OH222612   7.624   0.031   5.634
 7556TIP3    H122613   7.660  -0.052   5.603
 7556TIP3    H222614   7.563   0.057   5.564
 7557TIP3   OH222615   7.043   6.106   3.373
 7557TIP3    H122616   7.023   6.024   3.418
 7557TIP3    H222617   7.118   6.142   3.420
 7558TIP3   OH222618   2.697   6.798   4.007
 7558TIP3    H122619   2.755   6.785   4.082
 7558TIP3    H222620   2.749   6.769   3.932
 7559TIP3   OH222621   2.263   2.278   3.085
 7559TIP3    H122622   2.345   2.246   3.046
 7559TIP3    H222623   2.195   2.229   3.039
 7560TIP3   OH222624   0.979   0.923   5.024
 7560TIP3    H122625   1.030   0.987   5.073
 7560TIP3    H222626   0.890   0.957   5.026
 7561TIP3   OH222627   1.815   6.447   1.179
 7561TIP3    H122628   1.894   6.499   1.164
 7561TIP3    H222629   1.844   6.356   1.175
 7562TIP3   OH222630   7.583   3.521   3.626
 7562TIP3    H122631   7.625   3.597   3.587
 7562TIP3    H222632   7.645   3.491   3.693
 7563TIP3   OH222633   3.216   7.658   6.372
 7563TIP3    H122634   3.285   7.699   6.424
 7563TIP3    H222635   3.217   7.566   6.399
 7564TIP3   OH222636   1.127   5.623   1.955
 7564TIP3    H122637   1.214   5.628   1.996
 7564TIP3    H222638   1.120   5.532   1.927
 7565TIP3   OH222639   6.558   6.916   5.093
 7565TIP3    H122640   6.499   6.884   5.161
 7565TIP3    H222641   6.629   6.852   5.090
 7566TIP3   OH222642   5.029   3.408   1.511
 7566TIP3    H122643   5.026   3.484   1.569
 7566TIP3    H222644   5.042   3.445   1.424
 7567TIP3   OH222645   2.667   5.362   6.004
 7567TIP3    H122646   2.753   5.322   5.989
 7567TIP3    H222647   2.614   5.331   5.931
 7568TIP3   OH222648   5.928   5.246   1.777
 7568TIP3    H122649   5.936   5.329   1.824
 7568TIP3    H222650   5.963   5.264   1.690
 7569TIP3   OH222651   5.007   0.494   3.908
 7569TIP3    H122652   4.986   0.584   3.881
 7569TIP3    H222653   5.033   0.502   3.999
 7570TIP3   OH222654   1.420   1.759   0.011
 7570TIP3    H122655   1.400   1.677   0.056
 7570TIP3    H222656   1.489   1.799   0.064
 7571TIP3   OH222657   7.994   1.755   3.128
 7571TIP3    H122658   8.040   1.806   3.195
 7571TIP3    H222659   8.005   1.806   3.048
 7572TIP3   OH222660   2.538   0.318   4.159
 7572TIP3    H122661   2.612   0.258   4.171
 7572TIP3    H222662   2.575   0.405   4.175
 7573TIP3   OH222663   1.022   2.967   3.359
 7573TIP3    H122664   0.938   2.987   3.402
 7573TIP3    H222665   1.001   2.964   3.266
 7574TIP3   OH222666   4.894   5.705   4.256
 7574TIP3    H122667   4.961   5.638   4.263
 7574TIP3    H222668   4.811   5.658   4.258
 7575TIP3   OH222669   3.133   1.187   4.914
 7575TIP3    H122670   3.172   1.260   4.963
 7575TIP3    H222671   3.039   1.206   4.913
 7576TIP3   OH222672   1.391   1.461   2.071
 7576TIP3    H122673   1.316   1.403   2.085
 7576TIP3    H222674   1.388   1.481   1.978
 7577TIP3   OH222675   1.645   0.162   0.192
 7577TIP3    H122676   1.716   0.225   0.177
 7577TIP3    H222677   1.613   0.141   0.104
 7578TIP3   OH222678   0.793   6.588   2.190
 7578TIP3    H122679   0.833   6.571   2.104
 7578TIP3    H222680   0.822   6.677   2.212
 7579TIP3   OH222681   3.478   0.182   2.937
 7579TIP3    H122682   3.495   0.088   2.935
 7579TIP3    H222683   3.539   0.220   2.873
 7580TIP3   OH222684   7.026   2.851   6.235
 7580TIP3    H122685   7.010   2.929   6.288
 7580TIP3    H222686   6.944   2.802   6.239
 7581TIP3   OH222687   2.682   5.479   3.116
 7581TIP3    H122688   2.772   5.472   3.083
 7581TIP3    H222689   2.635   5.408   3.074
 7582TIP3   OH222690   3.132   2.506   0.989
 7582TIP3    H122691   3.071   2.445   1.031
 7582TIP3    H222692   3.149   2.467   0.903
 7583TIP3   OH222693   4.898   0.321   3.437
 7583TIP3    H122694   4.939   0.279   3.362
 7583TIP3    H222695   4.926   0.270   3.513
 7584TIP3   OH222696   7.265   6.575   2.243
 7584TIP3    H122697   7.268   6.634   2.167
 7584TIP3    H222698   7.181   6.530   2.235
 7585TIP3   OH222699   3.367   1.368   2.682
 7585TIP3    H122700   3.278   1.394   2.704
 7585TIP3    H222701   3.416   1.450   2.673
 7586TIP3   OH222702   0.281   5.424   6.268
 7586TIP3    H122703   0.374   5.411   6.287
 7586TIP3    H222704   0.249   5.336   6.249
 7587TIP3   OH222705   1.370   5.474   2.517
 7587TIP3    H122706   1.320   5.407   2.563
 7587TIP3    H222707   1.414   5.427   2.446
 7588TIP3   OH222708   3.758   2.546   5.402
 7588TIP3    H122709   3.683   2.544   5.461
 7588TIP3    H222710   3.731   2.494   5.326
 7589TIP3   OH222711   8.199   3.189   1.288
 7589TIP3    H122712   8.181   3.118   1.225
 7589TIP3    H222713   8.175   3.269   1.241
 7590TIP3   OH222714   5.348   1.273   3.329
 7590TIP3    H122715   5.282   1.252   3.263
 7590TIP3    H222716   5.304   1.258   3.413
 7591TIP3   OH222717   0.467   5.763   0.981
 7591TIP3    H122718   0.542   5.819   0.964
 7591TIP3    H222719   0.403   5.820   1.023
 7592TIP3   OH222720   1.936   3.341   2.704
 7592TIP3    H122721   1.847   3.369   2.726
 7592TIP3    H222722   1.961   3.283   2.776
 7593TIP3   OH222723   7.481   4.845   5.934
 7593TIP3    H122724   7.417   4.777   5.955
 7593TIP3    H222725   7.518   4.817   5.850
 7594TIP3   OH222726   3.257   6.633   0.782
 7594TIP3    H122727   3.306   6.712   0.760
 7594TIP3    H222728   3.201   6.658   0.855
 7595TIP3   OH222729   5.181   0.497   2.645
 7595TIP3    H122730   5.233   0.456   2.576
 7595TIP3    H222731   5.242   0.507   2.718
 7596TIP3   OH222732   5.258   1.108   1.424
 7596TIP3    H122733   5.339   1.141   1.385
 7596TIP3    H222734   5.189   1.164   1.387
 7597TIP3   OH222735   3.780   6.809   1.217
 7597TIP3    H122736   3.781   6.713   1.220
 7597TIP3    H222737   3.832   6.830   1.139
 7598TIP3   OH222738   7.812   2.102   4.938
 7598TIP3    H122739   7.859   2.168   4.888
 7598TIP3    H222740   7.830   2.125   5.030
 7599TIP3   OH222741   0.143   7.535   5.071
 7599TIP3    H122742   0.169   7.594   5.142
 7599TIP3    H222743   0.172   7.580   4.992
 7600TIP3   OH222744   5.874   7.519   5.237
 7600TIP3    H122745   5.789   7.529   5.280
 7600TIP3    H222746   5.934   7.572   5.289
 7601TIP3   OH222747   2.598   2.586   2.677
 7601TIP3    H122748   2.577   2.547   2.762
 7601TIP3    H222749   2.578   2.679   2.688
 7602TIP3   OH222750   6.256   5.984   2.040
 7602TIP3    H122751   6.304   5.987   2.123
 7602TIP3    H222752   6.179   6.038   2.055
 7603TIP3   OH222753   0.135   2.896   2.978
 7603TIP3    H122754   0.211   2.871   3.030
 7603TIP3    H222755   0.069   2.923   3.042
 7604TIP3   OH222756   0.720   2.471   3.543
 7604TIP3    H122757   0.689   2.419   3.469
 7604TIP3    H222758   0.647   2.472   3.605
 7605TIP3   OH222759   2.520   1.596   5.323
 7605TIP3    H122760   2.562   1.546   5.393
 7605TIP3    H222761   2.578   1.671   5.310
 7606TIP3   OH222762   1.842   6.583   4.352
 7606TIP3    H122763   1.870   6.619   4.267
 7606TIP3    H222764   1.796   6.502   4.329
 7607TIP3   OH222765   5.480   6.158   2.251
 7607TIP3    H122766   5.545   6.228   2.242
 7607TIP3    H222767   5.518   6.098   2.316
 7608TIP3   OH222768   0.756   3.155   4.633
 7608TIP3    H122769   0.715   3.143   4.548
 7608TIP3    H222770   0.820   3.085   4.640
 7609TIP3   OH222771   7.927   7.716   4.458
 7609TIP3    H122772   7.944   7.693   4.366
 7609TIP3    H222773   8.011   7.748   4.490
 7610TIP3   OH222774   5.371   5.446   2.247
 7610TIP3    H122775   5.386   5.518   2.307
 7610TIP3    H222776   5.343   5.487   2.165
 7611TIP3   OH222777   5.656   5.381   1.308
 7611TIP3    H122778   5.744   5.363   1.274
 7611TIP3    H222779   5.671   5.436   1.385
 7612TIP3   OH222780   8.067   7.648   5.545
 7612TIP3    H122781   7.974   7.666   5.560
 7612TIP3    H222782   8.112   7.720   5.588
 7613TIP3   OH222783   1.395   1.712   4.722
 7613TIP3    H122784   1.458   1.702   4.650
 7613TIP3    H222785   1.435   1.663   4.794
 7614TIP3   OH222786   6.232   0.347   4.207
 7614TIP3    H122787   6.261   0.257   4.192
 7614TIP3    H222788   6.287   0.378   4.278
 7615TIP3   OH222789   7.988   2.486   3.653
 7615TIP3    H122790   8.021   2.545   3.721
 7615TIP3    H222791   8.017   2.526   3.571
 7616TIP3   OH222792   0.111   3.936   6.161
 7616TIP3    H122793   0.183   3.996   6.143
 7616TIP3    H222794   0.153   3.858   6.196
 7617TIP3   OH222795   2.555   4.317   6.708
 7617TIP3    H122796   2.628   4.364   6.668
 7617TIP3    H222797   2.585   4.296   6.796
 7618TIP3   OH222798   7.833   3.914   1.382
 7618TIP3    H122799   7.769   3.904   1.452
 7618TIP3    H222800   7.918   3.915   1.426
 7619TIP3   OH222801   1.586   4.331   0.332
 7619TIP3    H122802   1.595   4.240   0.358
 7619TIP3    H222803   1.553   4.328   0.243
 7620TIP3   OH222804   3.260   0.338   1.385
 7620TIP3    H122805   3.165   0.328   1.385
 7620TIP3    H222806   3.274   0.429   1.358
 7621TIP3   OH222807   8.238   0.034   4.043
 7621TIP3    H122808   8.218   0.124   4.018
 7621TIP3    H222809   8.293   0.042   4.121
 7622TIP3   OH222810   4.793   5.918   3.654
 7622TIP3    H122811   4.704   5.929   3.686
 7622TIP3    H222812   4.795   5.829   3.619
 7623TIP3   OH222813   6.129   3.198   4.595
 7623TIP3    H122814   6.088   3.159   4.518
 7623TIP3    H222815   6.213   3.153   4.604
 7624TIP3   OH222816   7.575   5.102   2.822
 7624TIP3    H122817   7.664   5.098   2.787
 7624TIP3    H222818   7.523   5.137   2.749
 7625TIP3   OH222819   1.803   4.988   0.063
 7625TIP3    H122820   1.810   4.963  -0.029
 7625TIP3    H222821   1.892   4.978   0.098
 7626TIP3   OH222822   5.209   3.494   3.581
 7626TIP3    H122823   5.186   3.530   3.496
 7626TIP3    H222824   5.259   3.564   3.624
 7627TIP3   OH222825   3.711   1.011   5.224
 7627TIP3    H122826   3.637   0.985   5.280
 7627TIP3    H222827   3.760   1.073   5.278
 7628TIP3   OH222828   3.585   1.529   2.976
 7628TIP3    H122829   3.514   1.561   3.031
 7628TIP3    H222830   3.549   1.531   2.887
 7629TIP3   OH222831   6.602   7.438   3.981
 7629TIP3    H122832   6.540   7.489   3.928
 7629TIP3    H222833   6.681   7.432   3.927
 7630TIP3   OH222834   1.915   6.998   6.605
 7630TIP3    H122835   1.933   6.962   6.518
 7630TIP3    H222836   1.823   7.025   6.601
 7631TIP3   OH222837   3.285   1.778   6.508
 7631TIP3    H122838   3.234   1.782   6.427
 7631TIP3    H222839   3.287   1.868   6.540
 7632TIP3   OH222840   7.851   0.735   2.078
 7632TIP3    H122841   7.796   0.694   2.146
 7632TIP3    H222842   7.799   0.810   2.049
 7633TIP3   OH222843   4.119   5.070   1.150
 7633TIP3    H122844   4.126   5.157   1.110
 7633TIP3    H222845   4.026   5.048   1.143
 7634TIP3   OH222846   1.626   6.607   1.016
 7634TIP3    H122847   1.705   6.589   1.069
 7634TIP3    H222848   1.553   6.581   1.073
 7635TIP3   OH222849   2.760   1.549   2.148
 7635TIP3    H122850   2.845   1.539   2.104
 7635TIP3    H222851   2.754   1.473   2.206
 7636TIP3   OH222852   6.044   5.751   4.001
 7636TIP3    H122853   6.135   5.780   4.000
 7636TIP3    H222854   5.995   5.823   3.962
 7637TIP3   OH222855   5.465   7.224   3.316
 7637TIP3    H122856   5.535   7.192   3.260
 7637TIP3    H222857   5.385   7.188   3.276
 7638TIP3   OH222858   2.698   4.430   0.811
 7638TIP3    H122859   2.788   4.419   0.842
 7638TIP3    H222860   2.695   4.381   0.729
 7639TIP3   OH222861   6.152   2.762   1.669
 7639TIP3    H122862   6.181   2.840   1.715
 7639TIP3    H222863   6.200   2.690   1.710
 7640TIP3   OH222864   1.284   4.484   6.540
 7640TIP3    H122865   1.322   4.557   6.590
 7640TIP3    H222866   1.212   4.454   6.595
 7641TIP3   OH222867   2.789   5.389   3.530
 7641TIP3    H122868   2.882   5.395   3.551
 7641TIP3    H222869   2.775   5.458   3.465
 7642TIP3   OH222870   5.845   0.893   1.600
 7642TIP3    H122871   5.860   0.853   1.514
 7642TIP3    H222872   5.927   0.937   1.621
 7643TIP3   OH222873   5.313   1.242   4.833
 7643TIP3    H122874   5.329   1.276   4.744
 7643TIP3    H222875   5.220   1.222   4.834
 7644TIP3   OH222876   1.741   2.209   2.415
 7644TIP3    H122877   1.723   2.295   2.378
 7644TIP3    H222878   1.655   2.167   2.421
 7645TIP3   OH222879   8.076   5.227   3.243
 7645TIP3    H122880   8.124   5.159   3.290
 7645TIP3    H222881   8.144   5.277   3.197
 7646TIP3   OH222882   3.319   3.335   2.678
 7646TIP3    H122883   3.409   3.365   2.685
 7646TIP3    H222884   3.296   3.349   2.586
 7647TIP3   OH222885   7.107   5.207   2.194
 7647TIP3    H122886   7.164   5.183   2.120
 7647TIP3    H222887   7.167   5.220   2.267
 7648TIP3   OH222888   6.100   1.648   0.303
 7648TIP3    H122889   6.014   1.664   0.265
 7648TIP3    H222890   6.088   1.664   0.397
 7649TIP3   OH222891   3.039   2.789   2.157
 7649TIP3    H122892   3.031   2.713   2.099
 7649TIP3    H222893   3.030   2.753   2.245
 7650TIP3   OH222894   2.757   6.879   1.500
 7650TIP3    H122895   2.828   6.921   1.451
 7650TIP3    H222896   2.793   6.867   1.588
 7651TIP3   OH222897   7.303   4.091   1.272
 7651TIP3    H122898   7.244   4.023   1.239
 7651TIP3    H222899   7.382   4.082   1.218
 7652TIP3   OH222900   1.712   7.246   6.432
 7652TIP3    H122901   1.616   7.246   6.423
 7652TIP3    H222902   1.744   7.277   6.347
 7653TIP3   OH222903   6.200   7.207   0.591
 7653TIP3    H122904   6.247   7.130   0.623
 7653TIP3    H222905   6.244   7.281   0.634
 7654TIP3   OH222906   4.122   3.708   2.454
 7654TIP3    H122907   4.104   3.615   2.467
 7654TIP3    H222908   4.144   3.741   2.541
 7655TIP3   OH222909   2.186   4.916   3.418
 7655TIP3    H122910   2.263   4.872   3.381
 7655TIP3    H222911   2.133   4.940   3.343
 7656TIP3   OH222912   2.468   6.455   5.395
 7656TIP3    H122913   2.497   6.378   5.443
 7656TIP3    H222914   2.463   6.427   5.303
 7657TIP3   OH222915   8.249   0.011   6.240
 7657TIP3    H122916   8.167   0.057   6.260
 7657TIP3    H222917   8.224  -0.056   6.177
 7658TIP3   OH222918   1.375   1.456   2.412
 7658TIP3    H122919   1.341   1.371   2.438
 7658TIP3    H222920   1.363   1.459   2.317
 7659TIP3   OH222921   4.558   3.489   2.110
 7659TIP3    H122922   4.536   3.412   2.162
 7659TIP3    H222923   4.592   3.454   2.028
 7660TIP3   OH222924   6.612   5.912   4.261
 7660TIP3    H122925   6.584   5.990   4.213
 7660TIP3    H222926   6.546   5.845   4.240
 7661TIP3   OH222927   7.045   2.034   3.245
 7661TIP3    H122928   7.002   1.992   3.320
 7661TIP3    H222929   7.108   2.094   3.285
 7662TIP3   OH222930   7.974   2.121   3.231
 7662TIP3    H122931   8.027   2.050   3.268
 7662TIP3    H222932   7.964   2.184   3.303
 7663TIP3   OH222933   5.814   6.597   2.205
 7663TIP3    H122934   5.906   6.615   2.224
 7663TIP3    H222935   5.790   6.662   2.139
 7664TIP3   OH222936   7.234   1.335   4.527
 7664TIP3    H122937   7.213   1.244   4.550
 7664TIP3    H222938   7.328   1.334   4.511
 7665TIP3   OH222939   4.674   7.288   1.964
 7665TIP3    H122940   4.722   7.323   1.889
 7665TIP3    H222941   4.589   7.262   1.929
 7666TIP3   OH222942   6.228   2.884   2.782
 7666TIP3    H122943   6.285   2.943   2.832
 7666TIP3    H222944   6.286   2.841   2.719
 7667TIP3   OH222945   5.500   2.196   3.119
 7667TIP3    H122946   5.445   2.142   3.061
 7667TIP3    H222947   5.441   2.220   3.191
 7668TIP3   OH222948   6.640   7.259   1.037
 7668TIP3    H122949   6.669   7.348   1.019
 7668TIP3    H222950   6.562   7.248   0.982
 7669TIP3   OH222951   1.637   6.176   5.148
 7669TIP3    H122952   1.563   6.120   5.124
 7669TIP3    H222953   1.701   6.116   5.187
 7670TIP3   OH222954   2.490   1.942   2.756
 7670TIP3    H122955   2.454   1.948   2.668
 7670TIP3    H222956   2.551   2.015   2.763
 7671TIP3   OH222957   0.503   6.806   2.863
 7671TIP3    H122958   0.527   6.888   2.820
 7671TIP3    H222959   0.507   6.740   2.794
 7672TIP3   OH222960   1.461   0.258   0.977
 7672TIP3    H122961   1.430   0.308   1.052
 7672TIP3    H222962   1.539   0.213   1.010
 7673TIP3   OH222963   5.390   5.535   6.125
 7673TIP3    H122964   5.351   5.448   6.118
 7673TIP3    H222965   5.316   5.595   6.116
 7674TIP3   OH222966   4.635   4.452   3.675
 7674TIP3    H122967   4.700   4.522   3.671
 7674TIP3    H222968   4.586   4.469   3.756
 7675TIP3   OH222969   2.077   5.116   3.776
 7675TIP3    H122970   2.168   5.140   3.760
 7675TIP3    H222971   2.031   5.200   3.781
 7676TIP3   OH222972   0.106   0.035   5.174
 7676TIP3    H122973   0.137  -0.035   5.116
 7676TIP3    H222974   0.185   0.081   5.202
 7677TIP3   OH222975   1.439   0.396   1.781
 7677TIP3    H122976   1.470   0.477   1.821
 7677TIP3    H222977   1.519   0.345   1.765
 7678TIP3   OH222978   4.109   0.824   5.082
 7678TIP3    H122979   4.097   0.746   5.028
 7678TIP3    H222980   4.022   0.842   5.118
 7679TIP3   OH222981   8.004   1.642   4.993
 7679TIP3    H122982   8.018   1.717   4.936
 7679TIP3    H222983   8.056   1.572   4.954
 7680TIP3   OH222984   6.058   0.696   2.488
 7680TIP3    H122985   6.075   0.716   2.396
 7680TIP3    H222986   6.096   0.770   2.536
 7681TIP3   OH222987   1.864   3.139   4.507
 7681TIP3    H122988   1.856   3.066   4.570
 7681TIP3    H222989   1.773   3.164   4.489
 7682TIP3   OH222990   5.900   1.187   0.558
 7682TIP3    H122991   5.988   1.191   0.593
 7682TIP3    H222992   5.910   1.143   0.473
 7683TIP3   OH222993   0.440   6.854   1.493
 7683TIP3    H122994   0.468   6.764   1.508
 7683TIP3    H222995   0.416   6.856   1.401
 7684TIP3   OH222996   0.418   6.375   2.149
 7684TIP3    H122997   0.394   6.363   2.241
 7684TIP3    H222998   0.444   6.467   2.143
 7685TIP3   OH222999   2.748   0.096   2.833
 7685TIP3    H123000   2.660   0.088   2.796
 7685TIP3    H223001   2.734   0.099   2.928
 7686TIP3   OH223002   3.020   7.351   3.720
 7686TIP3    H123003   2.949   7.293   3.748
 7686TIP3    H223004   2.994   7.438   3.749
 7687TIP3   OH223005   1.241   0.751   4.052
 7687TIP3    H123006   1.329   0.768   4.019
 7687TIP3    H223007   1.182   0.792   3.988
 7688TIP3   OH223008   8.135   5.831   4.629
 7688TIP3    H123009   8.080   5.873   4.696
 7688TIP3    H223010   8.214   5.885   4.625
 7689TIP3   OH223011   3.733   1.120   4.478
 7689TIP3    H123012   3.651   1.072   4.484
 7689TIP3    H223013   3.758   1.135   4.570
 7690TIP3   OH223014   1.602   4.073   5.680
 7690TIP3    H123015   1.611   4.114   5.594
 7690TIP3    H223016   1.680   4.100   5.728
 7691TIP3   OH223017   5.660   0.949   5.377
 7691TIP3    H123018   5.721   0.895   5.326
 7691TIP3    H223019   5.633   1.019   5.317
 7692TIP3   OH223020   7.318   6.990   2.864
 7692TIP3    H123021   7.340   7.075   2.826
 7692TIP3    H223022   7.248   6.956   2.808
 7693TIP3   OH223023   4.800   6.608   6.249
 7693TIP3    H123024   4.757   6.550   6.185
 7693TIP3    H223025   4.815   6.689   6.201
 7694TIP3   OH223026   4.071   6.539   3.934
 7694TIP3    H123027   4.155   6.534   3.980
 7694TIP3    H223028   4.007   6.560   4.001
 7695TIP3   OH223029   4.771   2.812   5.266
 7695TIP3    H123030   4.821   2.893   5.265
 7695TIP3    H223031   4.834   2.745   5.240
 7696TIP3   OH223032   7.692   3.565   1.464
 7696TIP3    H123033   7.772   3.563   1.518
 7696TIP3    H223034   7.652   3.479   1.478
 7697TIP3   OH223035   2.102   1.617   6.442
 7697TIP3    H123036   2.184   1.591   6.483
 7697TIP3    H223037   2.049   1.537   6.441
 7698TIP3   OH223038   6.628   3.492   3.320
 7698TIP3    H123039   6.649   3.566   3.264
 7698TIP3    H223040   6.579   3.530   3.393
 7699TIP3   OH223041   6.367   1.932   0.190
 7699TIP3    H123042   6.348   1.840   0.174
 7699TIP3    H223043   6.295   1.979   0.148
 7700TIP3   OH223044   3.219   0.157   4.899
 7700TIP3    H123045   3.214   0.232   4.840
 7700TIP3    H223046   3.130   0.123   4.903
 7701TIP3   OH223047   0.921   4.346   0.422
 7701TIP3    H123048   0.951   4.415   0.481
 7701TIP3    H223049   0.837   4.318   0.459
 7702TIP3   OH223050   1.361   3.216   5.879
 7702TIP3    H123051   1.400   3.214   5.966
 7702TIP3    H223052   1.422   3.168   5.824
 7703TIP3   OH223053   6.760   6.340   5.283
 7703TIP3    H123054   6.764   6.254   5.324
 7703TIP3    H223055   6.682   6.337   5.228
 7704TIP3   OH223056   1.526   5.631   1.322
 7704TIP3    H123057   1.482   5.646   1.406
 7704TIP3    H223058   1.518   5.714   1.275
 7705TIP3   OH223059   3.176   4.913   3.910
 7705TIP3    H123060   3.265   4.932   3.878
 7705TIP3    H223061   3.119   4.962   3.851
 7706TIP3   OH223062   4.764   3.279   1.576
 7706TIP3    H123063   4.692   3.331   1.542
 7706TIP3    H223064   4.841   3.311   1.529
 7707TIP3   OH223065   5.233   3.814   2.469
 7707TIP3    H123066   5.325   3.801   2.444
 7707TIP3    H223067   5.183   3.787   2.392
 7708TIP3   OH223068   1.104   0.181   4.311
 7708TIP3    H123069   1.170   0.240   4.347
 7708TIP3    H223070   1.027   0.194   4.367
 7709TIP3   OH223071   0.125   0.779   2.376
 7709TIP3    H123072   0.111   0.808   2.286
 7709TIP3    H223073   0.220   0.784   2.388
 7710TIP3   OH223074   0.669   3.236   2.992
 7710TIP3    H123075   0.712   3.226   3.077
 7710TIP3    H223076   0.740   3.261   2.933
 7711TIP3   OH223077   6.334   3.134   5.356
 7711TIP3    H123078   6.277   3.201   5.319
 7711TIP3    H223079   6.386   3.181   5.422
 7712TIP3   OH223080   1.942   2.997   4.993
 7712TIP3    H123081   1.916   3.062   5.058
 7712TIP3    H223082   2.030   2.971   5.019
 7713TIP3   OH223083   7.684   2.409   1.664
 7713TIP3    H123084   7.677   2.339   1.600
 7713TIP3    H223085   7.776   2.433   1.664
 7714TIP3   OH223086   2.097   3.279   3.953
 7714TIP3    H123087   2.182   3.234   3.960
 7714TIP3    H223088   2.080   3.312   4.041
 7715TIP3   OH223089   2.398   4.227   4.948
 7715TIP3    H123090   2.489   4.230   4.976
 7715TIP3    H223091   2.402   4.216   4.853
 7716TIP3   OH223092   7.794   6.708   5.557
 7716TIP3    H123093   7.828   6.659   5.483
 7716TIP3    H223094   7.715   6.660   5.583
 7717TIP3   OH223095   5.929   0.788   3.349
 7717TIP3    H123096   5.939   0.818   3.259
 7717TIP3    H223097   5.848   0.737   3.349
 7718TIP3   OH223098   7.464   2.168   1.604
 7718TIP3    H123099   7.508   2.130   1.680
 7718TIP3    H223100   7.413   2.241   1.641
 7719TIP3   OH223101   1.181   4.079   2.663
 7719TIP3    H123102   1.104   4.100   2.611
 7719TIP3    H223103   1.158   4.106   2.752
 7720TIP3   OH223104   1.138   2.533   4.480
 7720TIP3    H123105   1.074   2.535   4.409
 7720TIP3    H223106   1.222   2.517   4.438
 7721TIP3   OH223107   7.752   6.571   0.281
 7721TIP3    H123108   7.762   6.501   0.346
 7721TIP3    H223109   7.839   6.579   0.242
 7722TIP3   OH223110   4.346   7.059   5.491
 7722TIP3    H123111   4.344   7.090   5.581
 7722TIP3    H223112   4.303   6.973   5.494
 7723TIP3   OH223113   2.011   1.715   5.546
 7723TIP3    H123114   1.953   1.673   5.610
 7723TIP3    H223115   1.995   1.808   5.556
 7724TIP3   OH223116   4.849   6.229   6.470
 7724TIP3    H123117   4.910   6.181   6.524
 7724TIP3    H223118   4.891   6.314   6.456
 7725TIP3   OH223119   2.930   6.473   5.433
 7725TIP3    H123120   2.964   6.485   5.522
 7725TIP3    H223121   2.918   6.378   5.425
 7726TIP3   OH223122   3.863   7.640   6.069
 7726TIP3    H123123   3.794   7.693   6.029
 7726TIP3    H223124   3.864   7.666   6.161
 7727TIP3   OH223125   1.887   3.831   5.124
 7727TIP3    H123126   1.932   3.915   5.127
 7727TIP3    H223127   1.927   3.785   5.049
 7728TIP3   OH223128   2.606   4.420   1.942
 7728TIP3    H123129   2.662   4.370   1.882
 7728TIP3    H223130   2.595   4.363   2.018
 7729TIP3   OH223131   6.090   5.886   5.378
 7729TIP3    H123132   6.140   5.840   5.311
 7729TIP3    H223133   6.046   5.957   5.330
 7730TIP3   OH223134   0.980   5.083   5.414
 7730TIP3    H123135   0.909   5.067   5.352
 7730TIP3    H223136   0.946   5.054   5.498
 7731TIP3   OH223137   8.183   7.523   4.694
 7731TIP3    H123138   8.152   7.453   4.636
 7731TIP3    H223139   8.158   7.495   4.782
 7732TIP3   OH223140   3.926   3.932   3.580
 7732TIP3    H123141   3.859   4.001   3.575
 7732TIP3    H223142   3.977   3.954   3.658
 7733TIP3   OH223143   4.647   5.906   0.509
 7733TIP3    H123144   4.560   5.926   0.476
 7733TIP3    H223145   4.698   5.883   0.431
 7734TIP3   OH223146   7.502   4.032   1.104
 7734TIP3    H123147   7.508   3.958   1.044
 7734TIP3    H223148   7.587   4.035   1.148
 7735TIP3   OH223149   7.180   7.564   6.463
 7735TIP3    H123150   7.154   7.523   6.545
 7735TIP3    H223151   7.230   7.497   6.417
 7736TIP3   OH223152   3.366   5.730   3.481
 7736TIP3    H123153   3.392   5.714   3.572
 7736TIP3    H223154   3.294   5.793   3.488
 7737TIP3   OH223155   6.468   0.837   5.021
 7737TIP3    H123156   6.559   0.835   4.991
 7737TIP3    H223157   6.473   0.816   5.114
 7738TIP3   OH223158   1.744   0.489   2.361
 7738TIP3    H123159   1.821   0.449   2.401
 7738TIP3    H223160   1.700   0.416   2.317
 7739TIP3   OH223161   5.680   3.174   1.500
 7739TIP3    H123162   5.768   3.202   1.523
 7739TIP3    H223163   5.689   3.134   1.414
 7740TIP3   OH223164   5.838   5.889   3.888
 7740TIP3    H123165   5.852   5.957   3.822
 7740TIP3    H223166   5.745   5.893   3.908
 7741TIP3   OH223167   6.454   1.351   0.658
 7741TIP3    H123168   6.475   1.325   0.569
 7741TIP3    H223169   6.536   1.386   0.693
 7742TIP3   OH223170   0.166   1.160   1.452
 7742TIP3    H123171   0.124   1.153   1.538
 7742TIP3    H223172   0.167   1.254   1.433
 7743TIP3   OH223173   7.714   5.552   3.371
 7743TIP3    H123174   7.668   5.550   3.455
 7743TIP3    H223175   7.792   5.499   3.386
 7744TIP3   OH223176   5.645   4.509   1.814
 7744TIP3    H123177   5.625   4.456   1.891
 7744TIP3    H223178   5.739   4.499   1.802
 7745TIP3   OH223179   7.183   2.955   4.609
 7745TIP3    H123180   7.265   2.914   4.582
 7745TIP3    H223181   7.120   2.927   4.543
 7746TIP3   OH223182   7.876   6.691   5.809
 7746TIP3    H123183   7.811   6.625   5.829
 7746TIP3    H223184   7.871   6.702   5.714
 7747TIP3   OH223185   4.072   1.739   1.152
 7747TIP3    H123186   4.102   1.743   1.243
 7747TIP3    H223187   4.070   1.830   1.124
 7748TIP3   OH223188   6.243   2.464   6.058
 7748TIP3    H123189   6.182   2.455   5.984
 7748TIP3    H223190   6.234   2.554   6.087
 7749TIP3   OH223191   2.984   2.624   1.954
 7749TIP3    H123192   2.898   2.583   1.949
 7749TIP3    H223193   3.000   2.658   1.866
 7750TIP3   OH223194   0.178   2.320   4.190
 7750TIP3    H123195   0.174   2.260   4.265
 7750TIP3    H223196   0.213   2.401   4.226
 7751TIP3   OH223197   0.127   2.338   0.587
 7751TIP3    H123198   0.055   2.394   0.559
 7751TIP3    H223199   0.164   2.303   0.506
 7752TIP3   OH223200   1.563   5.480   2.750
 7752TIP3    H123201   1.487   5.503   2.804
 7752TIP3    H223202   1.527   5.464   2.663
 7753TIP3   OH223203   3.492   0.850   0.625
 7753TIP3    H123204   3.488   0.818   0.535
 7753TIP3    H223205   3.435   0.790   0.674
 7754TIP3   OH223206   0.603   4.617   6.268
 7754TIP3    H123207   0.610   4.601   6.362
 7754TIP3    H223208   0.557   4.540   6.235
 7755TIP3   OH223209   8.152   7.025   0.555
 7755TIP3    H123210   8.179   7.105   0.510
 7755TIP3    H223211   8.072   7.051   0.602
 7756TIP3   OH223212   0.215   3.849   5.149
 7756TIP3    H123213   0.120   3.837   5.147
 7756TIP3    H223214   0.228   3.940   5.175
 7757TIP3   OH223215   1.723   6.395   4.997
 7757TIP3    H123216   1.795   6.345   4.959
 7757TIP3    H223217   1.668   6.330   5.039
 7758TIP3   OH223218   4.969   2.878   6.261
 7758TIP3    H123219   5.016   2.865   6.344
 7758TIP3    H223220   4.881   2.905   6.287
 7759TIP3   OH223221   3.597   6.461   2.251
 7759TIP3    H123222   3.657   6.536   2.255
 7759TIP3    H223223   3.598   6.425   2.339
 7760TIP3   OH223224   0.691   3.100   2.549
 7760TIP3    H123225   0.654   3.175   2.503
 7760TIP3    H223226   0.624   3.074   2.612
 7761TIP3   OH223227   1.014   4.692   5.170
 7761TIP3    H123228   0.928   4.731   5.189
 7761TIP3    H223229   1.000   4.642   5.090
 7762TIP3   OH223230   7.169   3.423   4.745
 7762TIP3    H123231   7.209   3.460   4.824
 7762TIP3    H223232   7.117   3.495   4.709
 7763TIP3   OH223233   4.045   0.294   5.948
 7763TIP3    H123234   3.993   0.240   5.889
 7763TIP3    H223235   3.980   0.345   5.996
 7764TIP3   OH223236   0.905   6.858   0.312
 7764TIP3    H123237   0.895   6.765   0.335
 7764TIP3    H223238   0.886   6.905   0.393
 7765TIP3   OH223239   1.529   6.771   0.820
 7765TIP3    H123240   1.566   6.713   0.887
 7765TIP3    H223241   1.574   6.855   0.833
 7766TIP3   OH223242   0.585   2.299   4.440
 7766TIP3    H123243   0.619   2.389   4.446
 7766TIP3    H223244   0.664   2.245   4.439
 7767TIP3   OH223245   3.314   0.311   4.069
 7767TIP3    H123246   3.382   0.362   4.025
 7767TIP3    H223247   3.341   0.307   4.160
 7768TIP3   OH223248   3.126   6.541   3.337
 7768TIP3    H123249   3.114   6.564   3.429
 7768TIP3    H223250   3.099   6.619   3.289
 7769TIP3   OH223251   3.108   7.550   1.631
 7769TIP3    H123252   3.099   7.639   1.599
 7769TIP3    H223253   3.050   7.545   1.707
 7770TIP3   OH223254   8.228   2.502   6.334
 7770TIP3    H123255   8.319   2.512   6.308
 7770TIP3    H223256   8.232   2.476   6.426
 7771TIP3   OH223257   5.481   3.605   1.344
 7771TIP3    H123258   5.474   3.613   1.439
 7771TIP3    H223259   5.475   3.511   1.327
 7772TIP3   OH223260   3.410   6.246   2.037
 7772TIP3    H123261   3.368   6.281   1.958
 7772TIP3    H223262   3.361   6.283   2.109
 7773TIP3   OH223263   4.709   2.186   6.112
 7773TIP3    H123264   4.643   2.116   6.113
 7773TIP3    H223265   4.733   2.198   6.204
 7774TIP3   OH223266   6.966   4.051   5.647
 7774TIP3    H123267   6.927   4.012   5.569
 7774TIP3    H223268   7.061   4.044   5.632
 7775TIP3   OH223269   7.300   7.453   3.321
 7775TIP3    H123270   7.255   7.370   3.305
 7775TIP3    H223271   7.393   7.429   3.329
 7776TIP3   OH223272   6.929   4.076   2.786
 7776TIP3    H123273   7.022   4.055   2.776
 7776TIP3    H223274   6.903   4.113   2.702
 7777TIP3   OH223275   2.505   3.759   0.910
 7777TIP3    H123276   2.561   3.682   0.895
 7777TIP3    H223277   2.470   3.746   0.999
 7778TIP3   OH223278   3.924   5.245   4.521
 7778TIP3    H123279   3.995   5.286   4.571
 7778TIP3    H223280   3.889   5.316   4.466
 7779TIP3   OH223281   8.029   6.693   6.420
 7779TIP3    H123282   8.031   6.690   6.516
 7779TIP3    H223283   8.108   6.648   6.393
 7780TIP3   OH223284   5.245   5.178   1.453
 7780TIP3    H123285   5.271   5.215   1.369
 7780TIP3    H223286   5.154   5.151   1.440
 7781TIP3   OH223287   0.057   5.297   2.255
 7781TIP3    H123288   0.035   5.389   2.268
 7781TIP3    H223289   0.016   5.274   2.171
 7782TIP3   OH223290   4.731   7.388   0.020
 7782TIP3    H123291   4.787   7.413  -0.054
 7782TIP3    H223292   4.783   7.323   0.067
 7783TIP3   OH223293   6.686   4.390   3.349
 7783TIP3    H123294   6.774   4.423   3.333
 7783TIP3    H223295   6.638   4.409   3.268
 7784TIP3   OH223296   0.213   0.687   4.632
 7784TIP3    H123297   0.202   0.617   4.568
 7784TIP3    H223298   0.175   0.765   4.590
 7785TIP3   OH223299   4.558   3.918   1.362
 7785TIP3    H123300   4.485   3.981   1.364
 7785TIP3    H223301   4.519   3.837   1.331
 7786TIP3   OH223302   1.674   3.740   0.503
 7786TIP3    H123303   1.594   3.716   0.549
 7786TIP3    H223304   1.739   3.753   0.573
 7787TIP3   OH223305   5.326   5.421   5.332
 7787TIP3    H123306   5.417   5.392   5.325
 7787TIP3    H223307   5.330   5.515   5.316
 7788TIP3   OH223308   4.555   0.535   0.351
 7788TIP3    H123309   4.635   0.484   0.364
 7788TIP3    H223310   4.492   0.495   0.411
 7789TIP3   OH223311   4.207   4.183   5.719
 7789TIP3    H123312   4.254   4.180   5.636
 7789TIP3    H223313   4.262   4.133   5.779
 7790TIP3   OH223314   2.253   2.708   2.006
 7790TIP3    H123315   2.192   2.707   1.932
 7790TIP3    H223316   2.297   2.793   1.998
 7791TIP3   OH223317   4.089   2.855   2.718
 7791TIP3    H123318   4.124   2.945   2.722
 7791TIP3    H223319   4.018   2.854   2.783
 7792TIP3   OH223320   7.162   2.543   5.341
 7792TIP3    H123321   7.082   2.539   5.393
 7792TIP3    H223322   7.171   2.455   5.304
 7793TIP3   OH223323   0.186   2.833   6.520
 7793TIP3    H123324   0.217   2.780   6.447
 7793TIP3    H223325   0.205   2.923   6.494
 7794TIP3   OH223326   1.907   7.349   1.718
 7794TIP3    H123327   1.814   7.339   1.699
 7794TIP3    H223328   1.915   7.434   1.761
 7795TIP3   OH223329   1.267   6.626   5.609
 7795TIP3    H123330   1.237   6.574   5.534
 7795TIP3    H223331   1.319   6.565   5.661
 7796TIP3   OH223332   7.583   4.843   4.086
 7796TIP3    H123333   7.571   4.875   3.997
 7796TIP3    H223334   7.508   4.878   4.134
 7797TIP3   OH223335   4.974   6.613   0.646
 7797TIP3    H123336   4.973   6.679   0.578
 7797TIP3    H223337   4.894   6.628   0.696
 7798TIP3   OH223338   6.588   4.949   0.667
 7798TIP3    H123339   6.506   4.994   0.689
 7798TIP3    H223340   6.572   4.858   0.690
 7799TIP3   OH223341   7.468   2.540   3.812
 7799TIP3    H123342   7.415   2.512   3.888
 7799TIP3    H223343   7.542   2.480   3.812
 7800TIP3   OH223344   5.727   2.916   6.336
 7800TIP3    H123345   5.687   3.002   6.346
 7800TIP3    H223346   5.803   2.931   6.279
 7801TIP3   OH223347   6.705   1.151   2.367
 7801TIP3    H123348   6.653   1.078   2.401
 7801TIP3    H223349   6.660   1.175   2.285
 7802TIP3   OH223350   2.693   0.291   5.030
 7802TIP3    H123351   2.710   0.385   5.018
 7802TIP3    H223352   2.640   0.287   5.110
 7803TIP3   OH223353   3.809   7.391   1.656
 7803TIP3    H123354   3.747   7.357   1.591
 7803TIP3    H223355   3.866   7.317   1.676
 7804TIP3   OH223356   1.132   7.587   6.378
 7804TIP3    H123357   1.186   7.520   6.335
 7804TIP3    H223358   1.148   7.666   6.327
 7805TIP3   OH223359   6.724   4.423   1.977
 7805TIP3    H123360   6.724   4.369   2.056
 7805TIP3    H223361   6.669   4.498   1.999
 7806TIP3   OH223362   6.007   7.569   3.382
 7806TIP3    H123363   5.971   7.610   3.460
 7806TIP3    H223364   6.083   7.519   3.415
 7807TIP3   OH223365   0.191   2.451   4.745
 7807TIP3    H123366   0.151   2.492   4.669
 7807TIP3    H223367   0.244   2.520   4.785
 7808TIP3   OH223368   3.336   0.185   2.328
 7808TIP3    H123369   3.271   0.158   2.263
 7808TIP3    H223370   3.363   0.273   2.300
 7809TIP3   OH223371   1.854   5.505   5.815
 7809TIP3    H123372   1.820   5.587   5.850
 7809TIP3    H223373   1.929   5.531   5.762
 7810TIP3   OH223374   6.990   7.117   4.593
 7810TIP3    H123375   7.019   7.156   4.675
 7810TIP3    H223376   6.995   7.189   4.529
 7811TIP3   OH223377   6.806   5.498   5.684
 7811TIP3    H123378   6.895   5.495   5.649
 7811TIP3    H223379   6.808   5.437   5.758
 7812TIP3   OH223380   5.555   3.316   4.331
 7812TIP3    H123381   5.465   3.319   4.299
 7812TIP3    H223382   5.604   3.369   4.268
 7813TIP3   OH223383   5.908   4.574   5.538
 7813TIP3    H123384   5.846   4.543   5.472
 7813TIP3    H223385   5.859   4.570   5.620
 7814TIP3   OH223386   2.031   5.311   1.398
 7814TIP3    H123387   2.007   5.359   1.319
 7814TIP3    H223388   2.060   5.379   1.459
 7815TIP3   OH223389   0.413   6.944   0.119
 7815TIP3    H123390   0.373   6.964   0.034
 7815TIP3    H223391   0.504   6.922   0.097
 7816TIP3   OH223392   2.668   6.547   2.205
 7816TIP3    H123393   2.646   6.460   2.240
 7816TIP3    H223394   2.651   6.540   2.111
 7817TIP3   OH223395   5.062   0.904   3.078
 7817TIP3    H123396   5.061   0.863   3.164
 7817TIP3    H223397   4.972   0.895   3.046
 7818TIP3   OH223398   5.462   7.791   0.615
 7818TIP3    H123399   5.463   7.699   0.589
 7818TIP3    H223400   5.454   7.839   0.533
 7819TIP3   OH223401   1.837   3.246   0.472
 7819TIP3    H123402   1.759   3.300   0.482
 7819TIP3    H223403   1.841   3.227   0.379
 7820TIP3   OH223404   1.562   4.397   3.029
 7820TIP3    H123405   1.543   4.418   3.120
 7820TIP3    H223406   1.478   4.411   2.983
 7821TIP3   OH223407   8.247   1.288   3.106
 7821TIP3    H123408   8.162   1.258   3.137
 7821TIP3    H223409   8.256   1.377   3.140
 7822TIP3   OH223410   3.910   5.067   0.789
 7822TIP3    H123411   3.851   5.100   0.721
 7822TIP3    H223412   3.864   4.993   0.828
 7823TIP3   OH223413   1.474   2.231   0.401
 7823TIP3    H123414   1.523   2.241   0.483
 7823TIP3    H223415   1.461   2.321   0.371
 7824TIP3   OH223416   5.343   2.724   2.147
 7824TIP3    H123417   5.355   2.791   2.079
 7824TIP3    H223418   5.429   2.716   2.188
 7825TIP3   OH223419   6.855   4.615   2.935
 7825TIP3    H123420   6.763   4.619   2.910
 7825TIP3    H223421   6.860   4.668   3.015
 7826TIP3   OH223422   1.162   5.116   3.136
 7826TIP3    H123423   1.203   5.183   3.190
 7826TIP3    H223424   1.077   5.152   3.112
 7827TIP3   OH223425   6.263   7.284   2.259
 7827TIP3    H123426   6.235   7.213   2.317
 7827TIP3    H223427   6.306   7.346   2.317
 7828TIP3   OH223428   6.939   6.084   2.038
 7828TIP3    H123429   6.995   6.101   2.114
 7828TIP3    H223430   6.942   6.165   1.988
 7829TIP3   OH223431   6.580   5.967   5.785
 7829TIP3    H123432   6.604   5.943   5.875
 7829TIP3    H223433   6.648   6.028   5.758
 7830TIP3   OH223434   5.841   4.824   4.600
 7830TIP3    H123435   5.851   4.816   4.505
 7830TIP3    H223436   5.920   4.784   4.637
 7831TIP3   OH223437   4.826   5.410   0.033
 7831TIP3    H123438   4.773   5.331   0.023
 7831TIP3    H223439   4.882   5.412  -0.044
 7832TIP3   OH223440   0.135   6.513   5.387
 7832TIP3    H123441   0.089   6.443   5.435
 7832TIP3    H223442   0.202   6.543   5.449
 7833TIP3   OH223443   5.484   4.849   5.488
 7833TIP3    H123444   5.395   4.881   5.503
 7833TIP3    H223445   5.540   4.911   5.534
 7834TIP3   OH223446   8.072   3.654   5.011
 7834TIP3    H123447   8.034   3.633   4.926
 7834TIP3    H223448   7.999   3.648   5.072
 7835TIP3   OH223449   3.095   2.169   6.680
 7835TIP3    H123450   3.067   2.094   6.733
 7835TIP3    H223451   3.030   2.236   6.699
 7836TIP3   OH223452   6.125   0.128   3.852
 7836TIP3    H123453   6.157   0.103   3.939
 7836TIP3    H223454   6.180   0.080   3.791
 7837TIP3   OH223455   5.474   2.906   3.703
 7837TIP3    H123456   5.503   2.996   3.688
 7837TIP3    H223457   5.382   2.906   3.676
 7838TIP3   OH223458   3.493   4.036   1.114
 7838TIP3    H123459   3.527   4.035   1.203
 7838TIP3    H223460   3.497   3.944   1.086
 7839TIP3   OH223461   6.009   6.864   5.633
 7839TIP3    H123462   6.050   6.809   5.700
 7839TIP3    H223463   6.002   6.807   5.556
 7840TIP3   OH223464   1.820   5.059   6.007
 7840TIP3    H123465   1.744   5.044   5.950
 7840TIP3    H223466   1.820   5.153   6.023
 7841TIP3   OH223467   5.332   6.342   4.598
 7841TIP3    H123468   5.319   6.376   4.687
 7841TIP3    H223469   5.291   6.256   4.599
 7842TIP3   OH223470   2.015   6.613   2.727
 7842TIP3    H123471   1.976   6.619   2.640
 7842TIP3    H223472   2.109   6.611   2.712
 7843TIP3   OH223473   7.513   4.518   3.201
 7843TIP3    H123474   7.528   4.454   3.131
 7843TIP3    H223475   7.466   4.589   3.158
 7844TIP3   OH223476   6.504   6.454   6.633
 7844TIP3    H123477   6.477   6.513   6.704
 7844TIP3    H223478   6.508   6.368   6.673
 7845TIP3   OH223479   5.809   1.118   1.142
 7845TIP3    H123480   5.810   1.154   1.231
 7845TIP3    H223481   5.718   1.094   1.128
 7846TIP3   OH223482   3.647   6.856   5.593
 7846TIP3    H123483   3.605   6.796   5.532
 7846TIP3    H223484   3.689   6.799   5.658
 7847TIP3   OH223485   3.445   2.936   4.808
 7847TIP3    H123486   3.497   2.939   4.727
 7847TIP3    H223487   3.407   2.848   4.809
 7848TIP3   OH223488   4.106   6.122   1.077
 7848TIP3    H123489   4.074   6.037   1.046
 7848TIP3    H223490   4.157   6.156   1.003
 7849TIP3   OH223491   2.443   2.509   1.822
 7849TIP3    H123492   2.417   2.461   1.900
 7849TIP3    H223493   2.370   2.497   1.761
 7850TIP3   OH223494   6.861   1.390   2.569
 7850TIP3    H123495   6.858   1.385   2.474
 7850TIP3    H223496   6.784   1.441   2.593
 7851TIP3   OH223497   1.134   6.289   0.280
 7851TIP3    H123498   1.201   6.261   0.342
 7851TIP3    H223499   1.077   6.212   0.270
 7852TIP3   OH223500   1.727   6.055   2.476
 7852TIP3    H123501   1.809   6.088   2.438
 7852TIP3    H223502   1.660   6.116   2.444
 7853TIP3   OH223503   4.879   1.261   0.006
 7853TIP3    H123504   4.870   1.356   0.016
 7853TIP3    H223505   4.811   1.224   0.062
 7854TIP3   OH223506   4.270   1.054   0.473
 7854TIP3    H123507   4.360   1.028   0.456
 7854TIP3    H223508   4.227   0.974   0.501
 7855TIP3   OH223509   5.009   7.270   5.712
 7855TIP3    H123510   4.964   7.190   5.738
 7855TIP3    H223511   5.083   7.277   5.773
 7856TIP3   OH223512   1.930   2.686   2.893
 7856TIP3    H123513   1.958   2.612   2.948
 7856TIP3    H223514   1.835   2.684   2.898
 7857TIP3   OH223515   5.235   3.060   0.906
 7857TIP3    H123516   5.166   3.054   0.973
 7857TIP3    H223517   5.236   2.973   0.866
 7858TIP3   OH223518   1.927   4.160   0.524
 7858TIP3    H123519   1.910   4.095   0.457
 7858TIP3    H223520   2.020   4.152   0.543
 7859TIP3   OH223521   6.610   2.785   3.283
 7859TIP3    H123522   6.622   2.740   3.199
 7859TIP3    H223523   6.515   2.791   3.294
 7860TIP3   OH223524   8.197   2.428   5.936
 7860TIP3    H123525   8.180   2.335   5.952
 7860TIP3    H223526   8.211   2.434   5.842
 7861TIP3   OH223527   1.009   3.344   3.195
 7861TIP3    H123528   1.017   3.385   3.281
 7861TIP3    H223529   0.945   3.274   3.208
 7862TIP3   OH223530   7.764   6.122   6.411
 7862TIP3    H123531   7.836   6.059   6.418
 7862TIP3    H223532   7.802   6.205   6.441
 7863TIP3   OH223533   2.850   6.848   0.343
 7863TIP3    H123534   2.792   6.872   0.415
 7863TIP3    H223535   2.892   6.767   0.372
 7864TIP3   OH223536   1.461   0.148   4.322
 7864TIP3    H123537   1.410   0.068   4.314
 7864TIP3    H223538   1.411   0.214   4.273
 7865TIP3   OH223539   0.227   0.189   2.687
 7865TIP3    H123540   0.303   0.132   2.699
 7865TIP3    H223541   0.255   0.274   2.721
 7866TIP3   OH223542   1.481   2.276   2.851
 7866TIP3    H123543   1.416   2.317   2.793
 7866TIP3    H223544   1.475   2.183   2.831
 7867TIP3   OH223545   2.078   7.569   0.791
 7867TIP3    H123546   2.080   7.473   0.784
 7867TIP3    H223547   2.015   7.587   0.861
 7868TIP3   OH223548   3.487   2.956   1.910
 7868TIP3    H123549   3.439   2.987   1.987
 7868TIP3    H223550   3.457   2.866   1.897
 7869TIP3   OH223551   2.809   0.683   6.419
 7869TIP3    H123552   2.845   0.733   6.346
 7869TIP3    H223553   2.726   0.650   6.386
 7870TIP3   OH223554   7.227   7.001   5.364
 7870TIP3    H123555   7.290   7.069   5.385
 7870TIP3    H223556   7.146   7.048   5.343
 7871TIP3   OH223557   0.278   2.739   4.485
 7871TIP3    H123558   0.254   2.810   4.425
 7871TIP3    H223559   0.360   2.768   4.524
 7872TIP3   OH223560   4.250   0.306   1.879
 7872TIP3    H123561   4.280   0.249   1.950
 7872TIP3    H223562   4.331   0.337   1.837
 7873TIP3   OH223563   5.796   6.633   5.779
 7873TIP3    H123564   5.755   6.558   5.737
 7873TIP3    H223565   5.780   6.706   5.719
 7874TIP3   OH223566   6.676   6.477   6.402
 7874TIP3    H123567   6.653   6.463   6.494
 7874TIP3    H223568   6.739   6.548   6.404
 7875TIP3   OH223569   3.803   5.544   4.654
 7875TIP3    H123570   3.855   5.584   4.584
 7875TIP3    H223571   3.825   5.594   4.732
 7876TIP3   OH223572   4.232   0.683   3.833
 7876TIP3    H123573   4.217   0.605   3.887
 7876TIP3    H223574   4.327   0.695   3.834
 7877TIP3   OH223575   2.629   1.431   5.823
 7877TIP3    H123576   2.543   1.472   5.825
 7877TIP3    H223577   2.612   1.338   5.831
 7878TIP3   OH223578   0.047   0.600   2.070
 7878TIP3    H123579   0.036   0.556   2.155
 7878TIP3    H223580  -0.040   0.597   2.030
 7879TIP3   OH223581   4.029   5.522   2.064
 7879TIP3    H123582   4.049   5.429   2.050
 7879TIP3    H223583   3.948   5.536   2.016
 7880TIP3   OH223584   2.037   5.942   3.616
 7880TIP3    H123585   2.005   6.028   3.588
 7880TIP3    H223586   2.066   5.900   3.535
 7881TIP3   OH223587   4.972   5.217   5.433
 7881TIP3    H123588   4.978   5.250   5.522
 7881TIP3    H223589   4.896   5.158   5.434
 7882TIP3   OH223590   5.114   6.467   2.004
 7882TIP3    H123591   5.207   6.458   1.982
 7882TIP3    H223592   5.108   6.430   2.093
 7883TIP3   OH223593   4.139   4.981   0.868
 7883TIP3    H123594   4.059   5.024   0.840
 7883TIP3    H223595   4.152   5.010   0.958
 7884TIP3   OH223596   1.504   4.473   4.756
 7884TIP3    H123597   1.536   4.479   4.846
 7884TIP3    H223598   1.416   4.511   4.759
 7885TIP3   OH223599   1.684   6.244   3.024
 7885TIP3    H123600   1.610   6.305   3.020
 7885TIP3    H223601   1.697   6.216   2.934
 7886TIP3   OH223602   2.403   7.022   2.701
 7886TIP3    H123603   2.433   6.991   2.787
 7886TIP3    H223604   2.476   7.003   2.642
 7887TIP3   OH223605   0.760   2.014   5.756
 7887TIP3    H123606   0.724   1.963   5.828
 7887TIP3    H223607   0.830   2.067   5.796
 7888TIP3   OH223608   7.474   0.550   3.020
 7888TIP3    H123609   7.425   0.516   3.094
 7888TIP3    H223610   7.440   0.638   3.007
 7889TIP3   OH223611   0.335   3.065   2.348
 7889TIP3    H123612   0.280   3.103   2.279
 7889TIP3    H223613   0.281   2.997   2.387
 7890TIP3   OH223614   4.940   5.607   2.275
 7890TIP3    H123615   4.890   5.608   2.193
 7890TIP3    H223616   4.963   5.698   2.290
 7891TIP3   OH223617   1.538   3.471   0.186
 7891TIP3    H123618   1.591   3.408   0.235
 7891TIP3    H223619   1.480   3.418   0.132
 7892TIP3   OH223620   5.641   0.121   3.419
 7892TIP3    H123621   5.710   0.164   3.369
 7892TIP3    H223622   5.563   0.127   3.363
 7893TIP3   OH223623   3.345   5.132   2.538
 7893TIP3    H123624   3.373   5.223   2.546
 7893TIP3    H223625   3.250   5.137   2.530
 7894TIP3   OH223626   5.203   6.058   5.008
 7894TIP3    H123627   5.209   6.048   5.103
 7894TIP3    H223628   5.167   5.974   4.978
 7895TIP3   OH223629   2.843   2.470   5.743
 7895TIP3    H123630   2.760   2.502   5.777
 7895TIP3    H223631   2.888   2.434   5.820
 7896TIP3   OH223632   2.094   0.919   3.868
 7896TIP3    H123633   2.175   0.874   3.893
 7896TIP3    H223634   2.044   0.924   3.950
 7897TIP3   OH223635   0.340   5.357   2.004
 7897TIP3    H123636   0.272   5.413   1.967
 7897TIP3    H223637   0.325   5.272   1.961
 7898TIP3   OH223638   2.786   1.269   6.549
 7898TIP3    H123639   2.857   1.301   6.494
 7898TIP3    H223640   2.806   1.303   6.636
 7899TIP3   OH223641   1.978   1.872   5.984
 7899TIP3    H123642   2.050   1.863   6.046
 7899TIP3    H223643   1.900   1.846   6.033
 7900TIP3   OH223644   8.150   4.907   2.380
 7900TIP3    H123645   8.101   4.869   2.308
 7900TIP3    H223646   8.232   4.858   2.382
 7901TIP3   OH223647   1.255   1.217   2.493
 7901TIP3    H123648   1.182   1.174   2.536
 7901TIP3    H223649   1.285   1.154   2.428
 7902TIP3   OH223650   7.492   2.910   1.883
 7902TIP3    H123651   7.538   2.958   1.813
 7902TIP3    H223652   7.402   2.941   1.877
 7903TIP3   OH223653   4.057   6.674   4.828
 7903TIP3    H123654   4.060   6.637   4.916
 7903TIP3    H223655   4.009   6.756   4.838
 7904TIP3   OH223656   5.009   6.583   1.380
 7904TIP3    H123657   5.041   6.639   1.309
 7904TIP3    H223658   5.071   6.510   1.383
 7905TIP3   OH223659   6.813   5.866   0.938
 7905TIP3    H123660   6.743   5.841   0.878
 7905TIP3    H223661   6.885   5.893   0.881
 7906TIP3   OH223662   2.812   0.601   5.576
 7906TIP3    H123663   2.801   0.511   5.547
 7906TIP3    H223664   2.871   0.641   5.512
 7907TIP3   OH223665   6.278   5.678   1.193
 7907TIP3    H123666   6.213   5.652   1.128
 7907TIP3    H223667   6.229   5.731   1.256
 7908TIP3   OH223668   7.129   0.834   4.151
 7908TIP3    H123669   7.048   0.800   4.189
 7908TIP3    H223670   7.199   0.799   4.205
 7909TIP3   OH223671   3.495   5.541   4.050
 7909TIP3    H123672   3.457   5.455   4.066
 7909TIP3    H223673   3.422   5.602   4.059
 7910TIP3   OH223674   6.687   0.098   1.032
 7910TIP3    H123675   6.774   0.061   1.017
 7910TIP3    H223676   6.669   0.150   0.953
 7911TIP3   OH223677   6.311   7.621   5.151
 7911TIP3    H123678   6.251   7.617   5.226
 7911TIP3    H223679   6.352   7.535   5.150
 7912TIP3   OH223680   0.885   5.146   0.267
 7912TIP3    H123681   0.927   5.155   0.182
 7912TIP3    H223682   0.925   5.214   0.321
 7913TIP3   OH223683   1.195   4.124   0.955
 7913TIP3    H123684   1.252   4.192   0.919
 7913TIP3    H223685   1.114   4.132   0.906
 7914TIP3   OH223686   4.926   6.837   5.382
 7914TIP3    H123687   4.912   6.930   5.402
 7914TIP3    H223688   4.911   6.830   5.288
 7915TIP3   OH223689   3.251   0.436   5.482
 7915TIP3    H123690   3.167   0.425   5.437
 7915TIP3    H223691   3.245   0.523   5.523
 7916TIP3   OH223692   5.554   4.921   1.180
 7916TIP3    H123693   5.506   4.893   1.102
 7916TIP3    H223694   5.490   4.913   1.251
 7917TIP3   OH223695   7.383   4.517   0.563
 7917TIP3    H123696   7.444   4.448   0.590
 7917TIP3    H223697   7.305   4.502   0.616
 7918TIP3   OH223698   1.672   1.914   4.977
 7918TIP3    H123699   1.670   1.914   5.073
 7918TIP3    H223700   1.582   1.898   4.950
 7919TIP3   OH223701   1.156   7.260   5.053
 7919TIP3    H123702   1.151   7.285   5.145
 7919TIP3    H223703   1.236   7.207   5.047
 7920TIP3   OH223704   3.024   0.445   1.292
 7920TIP3    H123705   3.068   0.453   1.207
 7920TIP3    H223706   2.934   0.473   1.274
 7921TIP3   OH223707   4.187   7.161   0.733
 7921TIP3    H123708   4.205   7.178   0.826
 7921TIP3    H223709   4.239   7.227   0.687
 7922TIP3   OH223710   5.486   2.830   2.710
 7922TIP3    H123711   5.415   2.830   2.774
 7922TIP3    H223712   5.442   2.832   2.625
 7923TIP3   OH223713   5.644   0.305   3.632
 7923TIP3    H123714   5.653   0.233   3.570
 7923TIP3    H223715   5.715   0.292   3.695
 7924TIP3   OH223716   5.187   2.824   0.804
 7924TIP3    H123717   5.234   2.769   0.742
 7924TIP3    H223718   5.097   2.827   0.771
 7925TIP3   OH223719   0.777   2.207   0.524
 7925TIP3    H123720   0.795   2.300   0.510
 7925TIP3    H223721   0.769   2.171   0.436
 7926TIP3   OH223722   6.036   6.281   2.613
 7926TIP3    H123723   6.017   6.353   2.673
 7926TIP3    H223724   6.039   6.203   2.667
 7927TIP3   OH223725   4.685   4.074   2.720
 7927TIP3    H123726   4.616   4.083   2.654
 7927TIP3    H223727   4.646   4.021   2.790
 7928TIP3   OH223728   6.967   4.663   2.488
 7928TIP3    H123729   6.960   4.725   2.561
 7928TIP3    H223730   6.887   4.611   2.493
 7929TIP3   OH223731   3.039   6.596   4.134
 7929TIP3    H123732   2.971   6.589   4.201
 7929TIP3    H223733   3.098   6.663   4.167
 7930TIP3   OH223734   3.797   1.367   3.707
 7930TIP3    H123735   3.878   1.383   3.659
 7930TIP3    H223736   3.729   1.364   3.640
 7931TIP3   OH223737   4.287   3.743   0.086
 7931TIP3    H123738   4.322   3.664   0.045
 7931TIP3    H223739   4.293   3.727   0.180
 7932TIP3   OH223740   2.270   0.369   0.164
 7932TIP3    H123741   2.313   0.421   0.096
 7932TIP3    H223742   2.210   0.311   0.116
 7933TIP3   OH223743   3.302   1.423   6.565
 7933TIP3    H123744   3.376   1.470   6.525
 7933TIP3    H223745   3.238   1.491   6.583
 7934TIP3   OH223746   6.740   6.183   1.078
 7934TIP3    H123747   6.672   6.128   1.040
 7934TIP3    H223748   6.771   6.133   1.154
 7935TIP3   OH223749   4.252   6.682   6.011
 7935TIP3    H123750   4.252   6.723   5.924
 7935TIP3    H223751   4.296   6.598   5.998
 7936TIP3   OH223752   7.762   0.127   0.431
 7936TIP3    H123753   7.759   0.210   0.385
 7936TIP3    H223754   7.739   0.148   0.521
 7937TIP3   OH223755   5.786   2.916   0.053
 7937TIP3    H123756   5.766   2.930   0.146
 7937TIP3    H223757   5.814   2.825   0.048
 7938TIP3   OH223758   6.844   4.708   3.208
 7938TIP3    H123759   6.775   4.684   3.270
 7938TIP3    H223760   6.827   4.799   3.186
 7939TIP3   OH223761   1.635   4.698   1.887
 7939TIP3    H123762   1.609   4.747   1.965
 7939TIP3    H223763   1.723   4.730   1.866
 7940TIP3   OH223764   1.124   5.430   0.182
 7940TIP3    H123765   1.090   5.396   0.265
 7940TIP3    H223766   1.075   5.511   0.168
 7941TIP3   OH223767   6.976   3.827   0.728
 7941TIP3    H123768   6.987   3.788   0.641
 7941TIP3    H223769   7.064   3.858   0.751
 7942TIP3   OH223770   3.660   4.317   6.633
 7942TIP3    H123771   3.715   4.385   6.672
 7942TIP3    H223772   3.607   4.363   6.568
 7943TIP3   OH223773   7.460   5.594   2.293
 7943TIP3    H123774   7.376   5.596   2.247
 7943TIP3    H223775   7.525   5.612   2.225
 7944TIP3   OH223776   3.440   2.484   4.522
 7944TIP3    H123777   3.506   2.422   4.490
 7944TIP3    H223778   3.399   2.520   4.444
 7945TIP3   OH223779   3.501   6.410   1.336
 7945TIP3    H123780   3.567   6.454   1.282
 7945TIP3    H223781   3.483   6.472   1.407
 7946TIP3   OH223782   7.154   0.177   3.948
 7946TIP3    H123783   7.198   0.133   4.021
 7946TIP3    H223784   7.076   0.217   3.987
 7947TIP3   OH223785   2.923   2.084   0.597
 7947TIP3    H123786   2.882   2.098   0.512
 7947TIP3    H223787   2.896   2.159   0.649
 7948TIP3   OH223788   4.484   7.524   6.235
 7948TIP3    H123789   4.514   7.491   6.150
 7948TIP3    H223790   4.443   7.449   6.278
 7949TIP3   OH223791   1.841   7.797   3.898
 7949TIP3    H123792   1.799   7.864   3.951
 7949TIP3    H223793   1.784   7.721   3.905
 7950TIP3   OH223794   1.515   3.448   2.269
 7950TIP3    H123795   1.465   3.374   2.233
 7950TIP3    H223796   1.484   3.456   2.359
 7951TIP3   OH223797   3.733   1.587   6.347
 7951TIP3    H123798   3.705   1.514   6.292
 7951TIP3    H223799   3.675   1.659   6.322
 7952TIP3   OH223800   4.432   1.704   1.923
 7952TIP3    H123801   4.498   1.753   1.970
 7952TIP3    H223802   4.387   1.652   1.990
 7953TIP3   OH223803   6.835   7.762   4.753
 7953TIP3    H123804   6.898   7.810   4.700
 7953TIP3    H223805   6.758   7.751   4.697
 7954TIP3   OH223806   3.631   1.273   1.612
 7954TIP3    H123807   3.608   1.347   1.668
 7954TIP3    H223808   3.546   1.240   1.580
 7955TIP3   OH223809   3.164   5.774   4.812
 7955TIP3    H123810   3.258   5.761   4.825
 7955TIP3    H223811   3.152   5.869   4.822
 7956TIP3   OH223812   5.983   4.014   2.395
 7956TIP3    H123813   5.915   3.958   2.359
 7956TIP3    H223814   5.987   4.088   2.334
 7957TIP3   OH223815   5.325   7.465   0.383
 7957TIP3    H123816   5.252   7.491   0.439
 7957TIP3    H223817   5.403   7.497   0.428
 7958TIP3   OH223818   2.613   7.075   6.524
 7958TIP3    H123819   2.550   7.117   6.466
 7958TIP3    H223820   2.638   6.994   6.480
 7959TIP3   OH223821   5.939   3.096   5.484
 7959TIP3    H123822   5.869   3.031   5.482
 7959TIP3    H223823   5.993   3.076   5.407
 7960TIP3   OH223824   2.887   1.996   2.866
 7960TIP3    H123825   2.961   2.053   2.886
 7960TIP3    H223826   2.812   2.055   2.861
 7961TIP3   OH223827   0.542   3.220   6.088
 7961TIP3    H123828   0.621   3.214   6.141
 7961TIP3    H223829   0.566   3.278   6.016
 7962TIP3   OH223830   6.596   6.222   2.036
 7962TIP3    H123831   6.636   6.238   1.950
 7962TIP3    H223832   6.519   6.279   2.037
 7963TIP3   OH223833   2.821   2.041   1.359
 7963TIP3    H123834   2.804   2.059   1.452
 7963TIP3    H223835   2.915   2.058   1.348
 7964TIP3   OH223836   7.668   7.640   6.642
 7964TIP3    H123837   7.725   7.567   6.665
 7964TIP3    H223838   7.674   7.700   6.716
 7965TIP3   OH223839   2.038   1.657  -0.026
 7965TIP3    H123840   1.994   1.574  -0.009
 7965TIP3    H223841   2.007   1.715   0.043
 7966TIP3   OH223842   6.395   4.089   1.927
 7966TIP3    H123843   6.480   4.064   1.963
 7966TIP3    H223844   6.359   4.008   1.891
 7967TIP3   OH223845   1.199   5.329   1.340
 7967TIP3    H123846   1.291   5.333   1.312
 7967TIP3    H223847   1.180   5.418   1.370
 7968TIP3   OH223848   2.707   1.739   0.990
 7968TIP3    H123849   2.783   1.797   0.998
 7968TIP3    H223850   2.744   1.656   0.959
 7969TIP3   OH223851   5.614   3.328   3.794
 7969TIP3    H123852   5.605   3.423   3.804
 7969TIP3    H223853   5.692   3.306   3.845
 7970TIP3   OH223854   6.420   0.810   4.753
 7970TIP3    H123855   6.432   0.795   4.847
 7970TIP3    H223856   6.396   0.902   4.747
 7971TIP3   OH223857   5.745   2.631   0.080
 7971TIP3    H123858   5.784   2.580   0.009
 7971TIP3    H223859   5.654   2.645   0.053
 7972TIP3   OH223860   0.644   7.680   1.032
 7972TIP3    H123861   0.560   7.704   1.071
 7972TIP3    H223862   0.649   7.585   1.044
 7973TIP3   OH223863   2.810   1.209   2.080
 7973TIP3    H123864   2.813   1.142   2.148
 7973TIP3    H223865   2.823   1.161   1.998
 7974TIP3   OH223866   0.460   4.552   4.838
 7974TIP3    H123867   0.453   4.481   4.902
 7974TIP3    H223868   0.467   4.507   4.753
 7975TIP3   OH223869   4.414   6.808   0.566
 7975TIP3    H123870   4.392   6.862   0.642
 7975TIP3    H223871   4.346   6.741   0.564
 7976TIP3   OH223872   7.704   0.252   0.692
 7976TIP3    H123873   7.745   0.335   0.718
 7976TIP3    H223874   7.750   0.186   0.743
 7977TIP3   OH223875   7.254   6.805   3.338
 7977TIP3    H123876   7.348   6.806   3.321
 7977TIP3    H223877   7.247   6.807   3.434
 7978TIP3   OH223878   3.291   3.109   6.387
 7978TIP3    H123879   3.325   3.035   6.337
 7978TIP3    H223880   3.212   3.135   6.338
 7979TIP3   OH223881   4.679   3.219   4.326
 7979TIP3    H123882   4.716   3.152   4.384
 7979TIP3    H223883   4.589   3.229   4.356
 7980TIP3   OH223884   6.035   3.840   3.095
 7980TIP3    H123885   6.005   3.820   3.006
 7980TIP3    H223886   6.129   3.857   3.086
 7981TIP3   OH223887   5.656   5.357   4.884
 7981TIP3    H123888   5.682   5.443   4.917
 7981TIP3    H223889   5.593   5.324   4.948
 7982TIP3   OH223890   6.471   2.261   3.044
 7982TIP3    H123891   6.400   2.237   2.983
 7982TIP3    H223892   6.436   2.335   3.093
 7983TIP3   OH223893   7.209   4.905   1.848
 7983TIP3    H123894   7.120   4.888   1.817
 7983TIP3    H223895   7.243   4.819   1.872
 7984TIP3   OH223896   4.505   5.904   2.539
 7984TIP3    H123897   4.513   5.962   2.464
 7984TIP3    H223898   4.441   5.946   2.596
 7985TIP3   OH223899   2.281   7.260   2.584
 7985TIP3    H123900   2.307   7.170   2.601
 7985TIP3    H223901   2.310   7.277   2.494
 7986TIP3   OH223902   0.231   3.487   5.939
 7986TIP3    H123903   0.265   3.570   5.905
 7986TIP3    H223904   0.152   3.471   5.889
 7987TIP3   OH223905   4.132   1.485   0.352
 7987TIP3    H123906   4.052   1.432   0.347
 7987TIP3    H223907   4.149   1.492   0.446
 7988TIP3   OH223908   5.279   2.279   6.185
 7988TIP3    H123909   5.228   2.279   6.267
 7988TIP3    H223910   5.223   2.324   6.122
 7989TIP3   OH223911   0.590   5.319   5.895
 7989TIP3    H123912   0.671   5.336   5.847
 7989TIP3    H223913   0.568   5.228   5.873
 7990TIP3   OH223914   3.417   3.319   4.934
 7990TIP3    H123915   3.488   3.376   4.905
 7990TIP3    H223916   3.397   3.264   4.859
 7991TIP3   OH223917   0.581   3.105   1.782
 7991TIP3    H123918   0.641   3.175   1.806
 7991TIP3    H223919   0.638   3.029   1.765
 7992TIP3   OH223920   1.891   1.524   5.723
 7992TIP3    H123921   1.816   1.501   5.776
 7992TIP3    H223922   1.966   1.485   5.769
 7993TIP3   OH223923   5.078   2.375   4.533
 7993TIP3    H123924   5.086   2.470   4.541
 7993TIP3    H223925   4.991   2.356   4.569
 7994TIP3   OH223926   2.127   7.271   5.430
 7994TIP3    H123927   2.218   7.263   5.458
 7994TIP3    H223928   2.131   7.287   5.336
 7995TIP3   OH223929   7.538   3.285   4.457
 7995TIP3    H123930   7.501   3.264   4.543
 7995TIP3    H223931   7.569   3.375   4.466
 7996TIP3   OH223932   3.386   5.056   0.400
 7996TIP3    H123933   3.312   5.027   0.455
 7996TIP3    H223934   3.423   4.975   0.365
 7997TIP3   OH223935   1.704   2.446   4.190
 7997TIP3    H123936   1.679   2.532   4.154
 7997TIP3    H223937   1.758   2.406   4.122
 7998TIP3   OH223938   3.295   0.974   5.074
 7998TIP3    H123939   3.282   1.030   4.998
 7998TIP3    H223940   3.242   0.897   5.056
 7999TIP3   OH223941   5.640   0.667   0.937
 7999TIP3    H123942   5.609   0.703   0.855
 7999TIP3    H223943   5.618   0.574   0.933
 8000TIP3   OH223944   1.609   2.111   0.653
 8000TIP3    H123945   1.702   2.087   0.649
 8000TIP3    H223946   1.563   2.028   0.641
 8001TIP3   OH223947   3.207   1.927   0.765
 8001TIP3    H123948   3.196   1.991   0.694
 8001TIP3    H223949   3.193   1.979   0.845
 8002TIP3   OH223950   0.833   7.036   4.681
 8002TIP3    H123951   0.751   7.083   4.665
 8002TIP3    H223952   0.837   7.026   4.776
 8003TIP3   OH223953   5.754   4.225   5.654
 8003TIP3    H123954   5.751   4.303   5.709
 8003TIP3    H223955   5.697   4.246   5.580
 8004TIP3   OH223956   6.757   2.352   4.662
 8004TIP3    H123957   6.778   2.382   4.750
 8004TIP3    H223958   6.693   2.416   4.630
 8005TIP3   OH223959   0.036   0.672   1.501
 8005TIP3    H123960   0.006   0.672   1.410
 8005TIP3    H223961   0.093   0.749   1.507
 8006TIP3   OH223962   6.810   6.963   6.652
 8006TIP3    H123963   6.818   6.999   6.563
 8006TIP3    H223964   6.885   6.904   6.660
 8007TIP3   OH223965   4.372   0.203   2.313
 8007TIP3    H123966   4.378   0.121   2.362
 8007TIP3    H223967   4.296   0.248   2.350
 8008TIP3   OH223968   1.742   5.873   3.932
 8008TIP3    H123969   1.835   5.893   3.927
 8008TIP3    H223970   1.702   5.956   3.961
 8009TIP3   OH223971   3.633   1.310   0.024
 8009TIP3    H123972   3.662   1.266   0.104
 8009TIP3    H223973   3.699   1.287  -0.041
 8010TIP3   OH223974   7.653   1.429   5.214
 8010TIP3    H123975   7.588   1.489   5.250
 8010TIP3    H223976   7.716   1.485   5.169
 8011TIP3   OH223977   6.941   1.370   0.750
 8011TIP3    H123978   6.987   1.310   0.809
 8011TIP3    H223979   6.957   1.335   0.663
 8012TIP3   OH223980   3.835   4.803   4.630
 8012TIP3    H123981   3.902   4.864   4.598
 8012TIP3    H223982   3.882   4.748   4.693
 8013TIP3   OH223983   1.839   6.123   0.690
 8013TIP3    H123984   1.917   6.164   0.728
 8013TIP3    H223985   1.821   6.174   0.611
 8014TIP3   OH223986   5.545   5.748   4.200
 8014TIP3    H123987   5.553   5.772   4.292
 8014TIP3    H223988   5.595   5.666   4.193
 8015TIP3   OH223989   7.827   5.268   2.349
 8015TIP3    H123990   7.889   5.208   2.390
 8015TIP3    H223991   7.859   5.355   2.372
 8016TIP3   OH223992   1.472   2.186   2.365
 8016TIP3    H123993   1.416   2.258   2.338
 8016TIP3    H223994   1.417   2.108   2.356
 8017TIP3   OH223995   7.303   6.016   0.459
 8017TIP3    H123996   7.231   6.071   0.491
 8017TIP3    H223997   7.377   6.040   0.515
 8018TIP3   OH223998   1.972   3.074   4.277
 8018TIP3    H123999   1.934   3.068   4.365
 8018TIP3    H224000   2.010   3.162   4.273
 8019TIP3   OH224001   2.847   5.281   4.503
 8019TIP3    H124002   2.770   5.228   4.524
 8019TIP3    H224003   2.877   5.248   4.418
 8020TIP3   OH224004   0.440   7.443   0.321
 8020TIP3    H124005   0.514   7.504   0.319
 8020TIP3    H224006   0.481   7.357   0.330
 8021TIP3   OH224007   5.080   0.796   3.384
 8021TIP3    H124008   5.037   0.837   3.459
 8021TIP3    H224009   5.088   0.704   3.409
 8022TIP3   OH224010   4.858   1.582   5.767
 8022TIP3    H124011   4.909   1.652   5.725
 8022TIP3    H224012   4.912   1.504   5.756
 8023TIP3   OH224013   6.592   5.602   4.188
 8023TIP3    H124014   6.679   5.574   4.217
 8023TIP3    H224015   6.535   5.580   4.261
 8024TIP3   OH224016   1.239   4.577   1.858
 8024TIP3    H124017   1.171   4.538   1.803
 8024TIP3    H224018   1.319   4.567   1.808
 8025TIP3   OH224019   0.445   7.094   5.558
 8025TIP3    H124020   0.410   7.121   5.643
 8025TIP3    H224021   0.419   7.164   5.498
 8026TIP3   OH224022   1.970   5.116   4.864
 8026TIP3    H124023   2.011   5.033   4.888
 8026TIP3    H224024   1.883   5.113   4.905
 8027TIP3   OH224025   1.085   5.182   4.269
 8027TIP3    H124026   1.071   5.270   4.303
 8027TIP3    H224027   1.019   5.171   4.200
 8028TIP3   OH224028   1.048   2.488   1.672
 8028TIP3    H124029   1.055   2.473   1.578
 8028TIP3    H224030   1.070   2.580   1.683
 8029TIP3   OH224031   1.912   0.747   0.944
 8029TIP3    H124032   1.932   0.831   0.985
 8029TIP3    H224033   1.997   0.714   0.915
 8030TIP3   OH224034   5.561   0.432   0.853
 8030TIP3    H124035   5.515   0.408   0.772
 8030TIP3    H224036   5.554   0.355   0.909
 8031TIP3   OH224037   7.779   5.813   0.306
 8031TIP3    H124038   7.800   5.751   0.376
 8031TIP3    H224039   7.771   5.759   0.228
 8032TIP3   OH224040   7.302   3.270   2.610
 8032TIP3    H124041   7.259   3.354   2.589
 8032TIP3    H224042   7.318   3.229   2.525
 8033TIP3   OH224043   4.699   4.954   2.108
 8033TIP3    H124044   4.757   5.017   2.152
 8033TIP3    H224045   4.750   4.922   2.034
 8034TIP3   OH224046   6.505   1.719   3.383
 8034TIP3    H124047   6.537   1.656   3.448
 8034TIP3    H224048   6.430   1.675   3.343
 8035TIP3   OH224049   5.713   5.747   0.427
 8035TIP3    H124050   5.725   5.809   0.355
 8035TIP3    H224051   5.659   5.794   0.490
 8036TIP3   OH224052   4.564   0.627   4.853
 8036TIP3    H124053   4.613   0.625   4.936
 8036TIP3    H224054   4.472   0.638   4.880
 8037TIP3   OH224055   6.620   6.009   0.694
 8037TIP3    H124056   6.543   6.049   0.652
 8037TIP3    H224057   6.608   6.026   0.787
 8038TIP3   OH224058   1.156   5.620   2.639
 8038TIP3    H124059   1.201   5.589   2.561
 8038TIP3    H224060   1.184   5.711   2.649
 8039TIP3   OH224061   1.666   2.659   2.083
 8039TIP3    H124062   1.721   2.736   2.092
 8039TIP3    H224063   1.577   2.694   2.079
 8040TIP3   OH224064   0.662   2.880   1.634
 8040TIP3    H124065   0.752   2.849   1.636
 8040TIP3    H224066   0.614   2.811   1.587
 8041TIP3   OH224067   8.173   2.352   4.399
 8041TIP3    H124068   8.224   2.346   4.480
 8041TIP3    H224069   8.126   2.436   4.406
 8042TIP3   OH224070   0.631   2.530   3.820
 8042TIP3    H124071   0.693   2.585   3.868
 8042TIP3    H224072   0.559   2.517   3.882
 8043TIP3   OH224073   7.958   5.964   6.493
 8043TIP3    H124074   7.960   5.869   6.479
 8043TIP3    H224075   8.049   5.988   6.508
 8044TIP3   OH224076   3.304   7.709   6.742
 8044TIP3    H124077   3.223   7.742   6.781
 8044TIP3    H224078   3.311   7.756   6.659
 8045TIP3   OH224079   3.197   1.472   0.904
 8045TIP3    H124080   3.124   1.508   0.854
 8045TIP3    H224081   3.259   1.441   0.837
 8046TIP3   OH224082   4.461   6.962   5.134
 8046TIP3    H124083   4.541   7.012   5.147
 8046TIP3    H224084   4.391   7.021   5.160
 8047TIP3   OH224085   3.507   4.596   4.453
 8047TIP3    H124086   3.462   4.601   4.369
 8047TIP3    H224087   3.569   4.524   4.443
 8048TIP3   OH224088   4.598   6.632   2.416
 8048TIP3    H124089   4.541   6.558   2.435
 8048TIP3    H224090   4.557   6.675   2.341
 8049TIP3   OH224091   7.241   4.198   0.608
 8049TIP3    H124092   7.335   4.183   0.597
 8049TIP3    H224093   7.204   4.186   0.521
 8050TIP3   OH224094   7.632   5.249   3.410
 8050TIP3    H124095   7.575   5.298   3.350
 8050TIP3    H224096   7.721   5.272   3.383
 8051TIP3   OH224097   6.135   2.029   0.088
 8051TIP3    H124098   6.075   2.020   0.162
 8051TIP3    H224099   6.078   2.031   0.011
 8052TIP3   OH224100   7.586   2.869   2.569
 8052TIP3    H124101   7.535   2.923   2.508
 8052TIP3    H224102   7.628   2.932   2.627
 8053TIP3   OH224103   7.766   4.086   2.119
 8053TIP3    H124104   7.771   4.070   2.214
 8053TIP3    H224105   7.847   4.050   2.085
 8054TIP3   OH224106   2.203   7.822   0.228
 8054TIP3    H124107   2.204   7.822   0.323
 8054TIP3    H224108   2.142   7.752   0.204
 8055TIP3   OH224109   5.339   5.249   2.794
 8055TIP3    H124110   5.246   5.271   2.783
 8055TIP3    H224111   5.357   5.271   2.886
 8056TIP3   OH224112   4.466   1.578   1.492
 8056TIP3    H124113   4.539   1.528   1.456
 8056TIP3    H224114   4.494   1.600   1.581
 8057TIP3   OH224115   1.693   0.824   5.343
 8057TIP3    H124116   1.730   0.791   5.426
 8057TIP3    H224117   1.615   0.872   5.369
 8058TIP3   OH224118   5.525   0.441   0.555
 8058TIP3    H124119   5.586   0.376   0.521
 8058TIP3    H224120   5.532   0.514   0.494
 8059TIP3   OH224121   6.309   6.985   5.291
 8059TIP3    H124122   6.347   6.909   5.335
 8059TIP3    H224123   6.215   6.978   5.308
 8060TIP3   OH224124   5.583   2.685   4.405
 8060TIP3    H124125   5.565   2.748   4.335
 8060TIP3    H224126   5.672   2.708   4.434
 8061TIP3   OH224127   7.183   3.682   3.566
 8061TIP3    H124128   7.089   3.661   3.563
 8061TIP3    H224129   7.216   3.655   3.480
 8062TIP3   OH224130   7.903   7.215   0.339
 8062TIP3    H124131   7.969   7.243   0.403
 8062TIP3    H224132   7.938   7.244   0.255
 8063TIP3   OH224133   2.269   7.188   5.181
 8063TIP3    H124134   2.297   7.279   5.170
 8063TIP3    H224135   2.239   7.161   5.095
 8064TIP3   OH224136   0.336   5.557   0.631
 8064TIP3    H124137   0.265   5.495   0.611
 8064TIP3    H224138   0.290   5.637   0.659
 8065TIP3   OH224139   7.835   6.988   6.051
 8065TIP3    H124140   7.826   6.961   6.143
 8065TIP3    H224141   7.930   6.998   6.039
 8066TIP3   OH224142   6.539   4.125   2.394
 8066TIP3    H124143   6.593   4.048   2.379
 8066TIP3    H224144   6.485   4.102   2.470
 8067TIP3   OH224145   1.939   2.959   0.879
 8067TIP3    H124146   1.920   3.048   0.907
 8067TIP3    H224147   2.028   2.942   0.910
 8068TIP3   OH224148   7.398   3.638   4.336
 8068TIP3    H124149   7.416   3.609   4.425
 8068TIP3    H224150   7.485   3.648   4.296
 8069TIP3   OH224151   5.216   0.142   2.643
 8069TIP3    H124152   5.225   0.080   2.715
 8069TIP3    H224153   5.304   0.175   2.628
 8070TIP3   OH224154   1.280   1.786   0.642
 8070TIP3    H124155   1.193   1.746   0.634
 8070TIP3    H224156   1.280   1.826   0.729
 8071TIP3   OH224157   1.880   1.731   6.579
 8071TIP3    H124158   1.862   1.676   6.655
 8071TIP3    H224159   1.943   1.680   6.527
 8072TIP3   OH224160   1.698   1.397   1.217
 8072TIP3    H124161   1.759   1.377   1.287
 8072TIP3    H224162   1.663   1.483   1.240
 8073TIP3   OH224163   3.293   4.489   3.338
 8073TIP3    H124164   3.318   4.543   3.263
 8073TIP3    H224165   3.377   4.464   3.378
 8074TIP3   OH224166   7.507   1.341   2.705
 8074TIP3    H124167   7.534   1.273   2.643
 8074TIP3    H224168   7.531   1.423   2.663
 8075TIP3   OH224169   6.567   2.712   1.800
 8075TIP3    H124170   6.484   2.667   1.813
 8075TIP3    H224171   6.629   2.642   1.778
 8076TIP3   OH224172   1.156   4.101   6.321
 8076TIP3    H124173   1.147   4.073   6.412
 8076TIP3    H224174   1.149   4.020   6.270
 8077TIP3   OH224175   7.205   7.569   1.071
 8077TIP3    H124176   7.131   7.628   1.055
 8077TIP3    H224177   7.167   7.494   1.116
 8078TIP3   OH224178   6.477   6.088   3.396
 8078TIP3    H124179   6.487   5.997   3.424
 8078TIP3    H224180   6.566   6.123   3.401
 8079TIP3   OH224181   3.710   1.212   0.972
 8079TIP3    H124182   3.652   1.139   0.992
 8079TIP3    H224183   3.708   1.219   0.877
 8080TIP3   OH224184   3.004   3.537   1.089
 8080TIP3    H124185   3.093   3.523   1.122
 8080TIP3    H224186   2.971   3.611   1.139
 8081TIP3   OH224187   6.011   6.709   0.800
 8081TIP3    H124188   6.047   6.673   0.881
 8081TIP3    H224189   5.999   6.802   0.818
 8082TIP3   OH224190   2.535   3.872   2.208
 8082TIP3    H124191   2.580   3.787   2.206
 8082TIP3    H224192   2.525   3.896   2.116
 8083TIP3   OH224193   7.857   4.477   5.834
 8083TIP3    H124194   7.811   4.554   5.800
 8083TIP3    H224195   7.813   4.403   5.791
 8084TIP3   OH224196   4.159   5.314   1.727
 8084TIP3    H124197   4.253   5.331   1.726
 8084TIP3    H224198   4.119   5.399   1.705
 8085TIP3   OH224199   7.753   0.567   5.148
 8085TIP3    H124200   7.778   0.637   5.209
 8085TIP3    H224201   7.696   0.610   5.085
 8086TIP3   OH224202   3.205   0.157   3.848
 8086TIP3    H124203   3.122   0.188   3.810
 8086TIP3    H224204   3.231   0.228   3.907
 8087TIP3   OH224205   4.212   1.079   6.145
 8087TIP3    H124206   4.138   1.019   6.157
 8087TIP3    H224207   4.212   1.132   6.224
 8088TIP3   OH224208   0.227   2.700   0.465
 8088TIP3    H124209   0.290   2.670   0.530
 8088TIP3    H224210   0.255   2.658   0.383
 8089TIP3   OH224211   1.120   5.744   0.878
 8089TIP3    H124212   1.124   5.788   0.793
 8089TIP3    H224213   1.209   5.752   0.913
 8090TIP3   OH224214   4.275   7.043   3.841
 8090TIP3    H124215   4.344   6.977   3.828
 8090TIP3    H224216   4.248   7.031   3.932
 8091TIP3   OH224217   4.324   1.300   0.288
 8091TIP3    H124218   4.314   1.236   0.359
 8091TIP3    H224219   4.260   1.369   0.310
 8092TIP3   OH224220   2.106   2.142   5.021
 8092TIP3    H124221   2.169   2.120   4.953
 8092TIP3    H224222   2.104   2.066   5.079
 8093TIP3   OH224223   4.197   0.070   1.235
 8093TIP3    H124224   4.225   0.161   1.232
 8093TIP3    H224225   4.165   0.052   1.146
 8094TIP3   OH224226   1.690   3.709   3.704
 8094TIP3    H124227   1.659   3.631   3.658
 8094TIP3    H224228   1.685   3.686   3.796
 8095TIP3   OH224229   4.451   3.691   0.881
 8095TIP3    H124230   4.365   3.689   0.840
 8095TIP3    H224231   4.461   3.780   0.913
 8096TIP3   OH224232   4.579   1.886   0.709
 8096TIP3    H124233   4.518   1.833   0.760
 8096TIP3    H224234   4.638   1.924   0.774
 8097TIP3   OH224235   2.036   7.021   0.401
 8097TIP3    H124236   2.041   6.931   0.433
 8097TIP3    H224237   2.126   7.042   0.375
 8098TIP3   OH224238   0.001   1.160   6.423
 8098TIP3    H124239  -0.044   1.087   6.381
 8098TIP3    H224240   0.050   1.202   6.352
 8099TIP3   OH224241   5.146   0.872   2.554
 8099TIP3    H124242   5.123   0.787   2.591
 8099TIP3    H224243   5.128   0.863   2.461
 8100TIP3   OH224244   2.775   3.464   5.666
 8100TIP3    H124245   2.813   3.532   5.611
 8100TIP3    H224246   2.769   3.387   5.609
 8101TIP3   OH224247   6.176   3.933   5.563
 8101TIP3    H124248   6.187   3.995   5.492
 8101TIP3    H224249   6.261   3.889   5.570
 8102TIP3   OH224250   7.729   4.533   3.778
 8102TIP3    H124251   7.824   4.548   3.770
 8102TIP3    H224252   7.690   4.597   3.719
 8103TIP3   OH224253   6.602   0.368   2.331
 8103TIP3    H124254   6.618   0.446   2.384
 8103TIP3    H224255   6.689   0.332   2.314
 8104TIP3   OH224256   7.095   6.245   3.124
 8104TIP3    H124257   7.065   6.184   3.191
 8104TIP3    H224258   7.033   6.319   3.129
 8105TIP3   OH224259   2.957   4.671   4.663
 8105TIP3    H124260   2.945   4.660   4.568
 8105TIP3    H224261   2.952   4.765   4.677
 8106TIP3   OH224262   2.081   5.990   6.208
 8106TIP3    H124263   2.004   5.933   6.211
 8106TIP3    H224264   2.140   5.946   6.147
 8107TIP3   OH224265   2.918   1.515   5.082
 8107TIP3    H124266   2.912   1.576   5.008
 8107TIP3    H224267   2.854   1.447   5.062
 8108TIP3   OH224268   8.079   6.789   4.070
 8108TIP3    H124269   8.106   6.723   4.134
 8108TIP3    H224270   8.125   6.766   3.990
 8109TIP3   OH224271   4.714   5.530   1.755
 8109TIP3    H124272   4.716   5.436   1.738
 8109TIP3    H224273   4.799   5.550   1.795
 8110TIP3   OH224274   5.515   0.248   1.656
 8110TIP3    H124275   5.586   0.288   1.606
 8110TIP3    H224276   5.549   0.241   1.745
 8111TIP3   OH224277   1.880   4.020   0.287
 8111TIP3    H124278   1.855   3.941   0.239
 8111TIP3    H224279   1.947   4.061   0.233
 8112TIP3   OH224280   0.556   5.107   5.742
 8112TIP3    H124281   0.523   5.114   5.652
 8112TIP3    H224282   0.649   5.088   5.732
 8113TIP3   OH224283   6.270   3.143   0.881
 8113TIP3    H124284   6.340   3.099   0.833
 8113TIP3    H224285   6.311   3.222   0.918
 8114TIP3   OH224286   5.406   6.475   0.188
 8114TIP3    H124287   5.343   6.500   0.256
 8114TIP3    H224288   5.483   6.528   0.207
 8115TIP3   OH224289   0.882   6.444   4.848
 8115TIP3    H124290   0.790   6.461   4.830
 8115TIP3    H224291   0.927   6.472   4.768
 8116TIP3   OH224292   6.917   0.179   0.224
 8116TIP3    H124293   6.954   0.238   0.158
 8116TIP3    H224294   6.990   0.123   0.251
 8117TIP3   OH224295   5.741   4.415   1.556
 8117TIP3    H124296   5.732   4.498   1.602
 8117TIP3    H224297   5.782   4.357   1.620
 8118TIP3   OH224298   1.064   1.071   2.857
 8118TIP3    H124299   1.128   1.016   2.813
 8118TIP3    H224300   1.109   1.154   2.873
 8119TIP3   OH224301   7.773   3.398   3.801
 8119TIP3    H124302   7.760   3.330   3.867
 8119TIP3    H224303   7.806   3.352   3.725
 8120TIP3   OH224304   7.843   6.208   2.867
 8120TIP3    H124305   7.877   6.141   2.808
 8120TIP3    H224306   7.839   6.288   2.814
 8121TIP3   OH224307   3.247   1.501   1.339
 8121TIP3    H124308   3.303   1.543   1.274
 8121TIP3    H224309   3.228   1.415   1.303
 8122TIP3   OH224310   4.760   6.192   2.756
 8122TIP3    H124311   4.843   6.160   2.790
 8122TIP3    H224312   4.697   6.179   2.826
 8123TIP3   OH224313   0.794   4.653   4.690
 8123TIP3    H124314   0.838   4.713   4.629
 8123TIP3    H224315   0.703   4.684   4.691
 8124TIP3   OH224316   5.262   1.332   6.501
 8124TIP3    H124317   5.173   1.365   6.491
 8124TIP3    H224318   5.298   1.381   6.574
 8125TIP3   OH224319   0.120   1.906   4.580
 8125TIP3    H124320   0.156   1.993   4.597
 8125TIP3    H224321   0.120   1.898   4.485
 8126TIP3   OH224322   3.096   6.705   3.613
 8126TIP3    H124323   3.136   6.667   3.692
 8126TIP3    H224324   3.164   6.761   3.576
 8127TIP3   OH224325   5.652   2.316   1.280
 8127TIP3    H124326   5.652   2.412   1.281
 8127TIP3    H224327   5.640   2.291   1.372
 8128TIP3   OH224328   2.574   3.479   1.565
 8128TIP3    H124329   2.543   3.519   1.646
 8128TIP3    H224330   2.527   3.524   1.496
 8129TIP3   OH224331   7.824   4.657   1.089
 8129TIP3    H124332   7.843   4.579   1.035
 8129TIP3    H224333   7.810   4.622   1.177
 8130TIP3   OH224334   7.122   3.165   1.382
 8130TIP3    H124335   7.202   3.174   1.434
 8130TIP3    H224336   7.141   3.211   1.300
 8131TIP3   OH224337   6.982   0.855   3.818
 8131TIP3    H124338   7.075   0.840   3.833
 8131TIP3    H224339   6.978   0.937   3.770
 8132TIP3   OH224340   7.216   3.592   4.962
 8132TIP3    H124341   7.283   3.557   5.021
 8132TIP3    H224342   7.169   3.657   5.014
 8133TIP3   OH224343   2.401   6.617   1.913
 8133TIP3    H124344   2.339   6.593   1.844
 8133TIP3    H224345   2.357   6.686   1.962
 8134TIP3   OH224346   1.694   2.162   4.473
 8134TIP3    H124347   1.626   2.227   4.492
 8134TIP3    H224348   1.689   2.100   4.546
 8135TIP3   OH224349   0.148   5.419   3.628
 8135TIP3    H124350   0.105   5.398   3.545
 8135TIP3    H224351   0.079   5.412   3.693
 8136TIP3   OH224352   3.724   3.948  -0.019
 8136TIP3    H124353   3.786   3.879   0.006
 8136TIP3    H224354   3.722   4.006   0.058
 8137TIP3   OH224355   5.569   6.851   0.261
 8137TIP3    H124356   5.630   6.821   0.194
 8137TIP3    H224357   5.601   6.812   0.343
 8138TIP3   OH224358   6.787   2.406   2.620
 8138TIP3    H124359   6.731   2.467   2.573
 8138TIP3    H224360   6.857   2.385   2.558
 8139TIP3   OH224361   0.617   0.348   5.034
 8139TIP3    H124362   0.548   0.403   5.072
 8139TIP3    H224363   0.623   0.377   4.943
 8140TIP3   OH224364   3.188   5.676   2.019
 8140TIP3    H124365   3.277   5.683   2.054
 8140TIP3    H224366   3.177   5.583   1.999
 8141TIP3   OH224367   2.293   6.057   1.603
 8141TIP3    H124368   2.206   6.094   1.622
 8141TIP3    H224369   2.348   6.088   1.675
 8142TIP3   OH224370   4.542   3.722   4.800
 8142TIP3    H124371   4.600   3.796   4.783
 8142TIP3    H224372   4.590   3.669   4.864
 8143TIP3   OH224373   3.078   0.812   2.423
 8143TIP3    H124374   2.985   0.820   2.444
 8143TIP3    H224375   3.081   0.759   2.344
 8144TIP3   OH224376   0.973   0.548   0.847
 8144TIP3    H124377   1.023   0.487   0.793
 8144TIP3    H224378   0.971   0.629   0.795
 8145TIP3   OH224379   2.865   3.054   1.430
 8145TIP3    H124380   2.847   2.978   1.376
 8145TIP3    H224381   2.871   3.127   1.368
 8146TIP3   OH224382   1.030   6.225   4.560
 8146TIP3    H124383   0.996   6.312   4.580
 8146TIP3    H224384   0.955   6.166   4.571
 8147TIP3   OH224385   0.165   4.941   0.048
 8147TIP3    H124386   0.257   4.968   0.051
 8147TIP3    H224387   0.168   4.852   0.013
 8148TIP3   OH224388   4.960   2.068   2.065
 8148TIP3    H124389   4.928   2.119   2.139
 8148TIP3    H224390   4.955   2.128   1.990
 8149TIP3   OH224391   0.302   1.073   6.489
 8149TIP3    H124392   0.283   1.085   6.396
 8149TIP3    H224393   0.354   1.149   6.514
 8150TIP3   OH224394   2.358   5.049   4.627
 8150TIP3    H124395   2.335   5.134   4.590
 8150TIP3    H224396   2.426   5.069   4.692
 8151TIP3   OH224397   2.205   1.943   4.767
 8151TIP3    H124398   2.284   1.908   4.728
 8151TIP3    H224399   2.155   1.866   4.793
 8152TIP3   OH224400   4.911   5.177   4.666
 8152TIP3    H124401   4.931   5.084   4.677
 8152TIP3    H224402   4.990   5.214   4.629
 8153TIP3   OH224403   2.404   6.977   4.506
 8153TIP3    H124404   2.496   6.987   4.482
 8153TIP3    H224405   2.391   6.882   4.511
 8154TIP3   OH224406   7.413   7.000   1.926
 8154TIP3    H124407   7.334   7.041   1.962
 8154TIP3    H224408   7.470   6.989   2.002
 8155TIP3   OH224409   2.435   0.447   3.475
 8155TIP3    H124410   2.398   0.475   3.391
 8155TIP3    H224411   2.433   0.526   3.529
 8156TIP3   OH224412   7.652   4.311   6.623
 8156TIP3    H124413   7.740   4.338   6.650
 8156TIP3    H224414   7.666   4.249   6.551
 8157TIP3   OH224415   5.196   7.184   0.485
 8157TIP3    H124416   5.125   7.233   0.444
 8157TIP3    H224417   5.253   7.159   0.412
 8158TIP3   OH224418   6.256   3.320   0.274
 8158TIP3    H124419   6.174   3.353   0.309
 8158TIP3    H224420   6.321   3.341   0.342
 8159TIP3   OH224421   0.160   6.684   4.861
 8159TIP3    H124422   0.141   6.614   4.923
 8159TIP3    H224423   0.127   6.652   4.778
 8160TIP3   OH224424   7.154   6.951   3.746
 8160TIP3    H124425   7.196   6.872   3.712
 8160TIP3    H224426   7.116   6.924   3.829
 8161TIP3   OH224427   4.783   7.310   6.693
 8161TIP3    H124428   4.689   7.328   6.704
 8161TIP3    H224429   4.795   7.306   6.598
 8162TIP3   OH224430   5.933   3.411   4.348
 8162TIP3    H124431   5.974   3.376   4.269
 8162TIP3    H224432   5.842   3.427   4.323
 8163TIP3   OH224433   8.137   3.321   1.955
 8163TIP3    H124434   8.231   3.337   1.968
 8163TIP3    H224435   8.120   3.238   1.998
 8164TIP3   OH224436   6.239   6.881   3.518
 8164TIP3    H124437   6.262   6.956   3.464
 8164TIP3    H224438   6.148   6.862   3.497
 8165TIP3   OH224439   4.979   7.694   5.303
 8165TIP3    H124440   5.028   7.726   5.228
 8165TIP3    H224441   4.895   7.667   5.267
 8166TIP3   OH224442   1.175   7.334   4.772
 8166TIP3    H124443   1.237   7.403   4.748
 8166TIP3    H224444   1.196   7.313   4.862
 8167TIP3   OH224445   7.534   6.468   1.330
 8167TIP3    H124446   7.473   6.435   1.395
 8167TIP3    H224447   7.519   6.563   1.329
 8168TIP3   OH224448   7.656   5.707   3.150
 8168TIP3    H124449   7.602   5.773   3.192
 8168TIP3    H224450   7.661   5.635   3.214
 8169TIP3   OH224451   3.614   1.605   2.423
 8169TIP3    H124452   3.572   1.533   2.376
 8169TIP3    H224453   3.684   1.563   2.474
 8170TIP3   OH224454   6.092   6.380   4.565
 8170TIP3    H124455   6.010   6.409   4.606
 8170TIP3    H224456   6.065   6.339   4.483
 8171TIP3   OH224457   3.373   2.994   0.994
 8171TIP3    H124458   3.320   2.918   1.017
 8171TIP3    H224459   3.382   2.989   0.898
 8172TIP3   OH224460   5.647   5.238   0.906
 8172TIP3    H124461   5.721   5.210   0.960
 8172TIP3    H224462   5.642   5.173   0.836
 8173TIP3   OH224463   4.257   1.443   2.502
 8173TIP3    H124464   4.242   1.353   2.473
 8173TIP3    H224465   4.226   1.445   2.592
 8174TIP3   OH224466   1.987   1.305   4.929
 8174TIP3    H124467   2.009   1.212   4.918
 8174TIP3    H224468   1.979   1.317   5.024
 8175TIP3   OH224469   5.256   0.796   0.921
 8175TIP3    H124470   5.227   0.860   0.987
 8175TIP3    H224471   5.177   0.747   0.899
 8176TIP3   OH224472   3.509   3.760   1.958
 8176TIP3    H124473   3.470   3.819   1.894
 8176TIP3    H224474   3.580   3.717   1.911
 8177TIP3   OH224475   6.081   0.963   4.024
 8177TIP3    H124476   6.026   0.925   4.093
 8177TIP3    H224477   6.125   1.037   4.066
 8178TIP3   OH224478   1.873   0.308   0.934
 8178TIP3    H124479   1.840   0.315   0.845
 8178TIP3    H224480   1.966   0.291   0.925
 8179TIP3   OH224481   3.710   0.907   0.315
 8179TIP3    H124482   3.669   0.930   0.232
 8179TIP3    H224483   3.711   0.811   0.315
 8180TIP3   OH224484   0.856   1.858   1.456
 8180TIP3    H124485   0.765   1.860   1.427
 8180TIP3    H224486   0.852   1.886   1.548
 8181TIP3   OH224487   0.396   5.952   5.010
 8181TIP3    H124488   0.434   5.887   4.951
 8181TIP3    H224489   0.430   6.036   4.978
 8182TIP3   OH224490   0.780   2.669   4.014
 8182TIP3    H124491   0.871   2.654   3.988
 8182TIP3    H224492   0.771   2.764   4.014
 8183TIP3   OH224493   2.695   1.492   5.551
 8183TIP3    H124494   2.767   1.555   5.554
 8183TIP3    H224495   2.666   1.485   5.642
 8184TIP3   OH224496   3.930   1.530   5.864
 8184TIP3    H124497   3.901   1.600   5.922
 8184TIP3    H224498   3.994   1.572   5.806
 8185TIP3   OH224499   6.833   2.315   4.073
 8185TIP3    H124500   6.792   2.308   4.159
 8185TIP3    H224501   6.806   2.235   4.027
 8186TIP3   OH224502   2.870   5.685   0.245
 8186TIP3    H124503   2.793   5.661   0.297
 8186TIP3    H224504   2.881   5.779   0.259
 8187TIP3   OH224505   6.691   7.352   6.243
 8187TIP3    H124506   6.674   7.282   6.179
 8187TIP3    H224507   6.610   7.360   6.292
 8188TIP3   OH224508   3.462   0.825   1.257
 8188TIP3    H124509   3.435   0.746   1.209
 8188TIP3    H224510   3.491   0.886   1.189
 8189TIP3   OH224511   7.635   1.361   5.728
 8189TIP3    H124512   7.583   1.281   5.722
 8189TIP3    H224513   7.690   1.361   5.650
 8190TIP3   OH224514   7.564   6.439   1.814
 8190TIP3    H124515   7.485   6.486   1.842
 8190TIP3    H224516   7.608   6.500   1.756
 8191TIP3   OH224517   3.206   6.356   2.858
 8191TIP3    H124518   3.112   6.356   2.840
 8191TIP3    H224519   3.212   6.367   2.953
 8192TIP3   OH224520   4.041   6.347   3.712
 8192TIP3    H124521   4.016   6.423   3.764
 8192TIP3    H224522   3.959   6.314   3.676
 8193TIP3   OH224523   4.144   0.461   3.661
 8193TIP3    H124524   4.049   0.447   3.669
 8193TIP3    H224525   4.159   0.545   3.704
 8194TIP3   OH224526   0.532   1.574   6.580
 8194TIP3    H124527   0.525   1.663   6.615
 8194TIP3    H224528   0.626   1.562   6.566
 8195TIP3   OH224529   1.782   2.165   0.980
 8195TIP3    H124530   1.759   2.162   1.073
 8195TIP3    H224531   1.699   2.185   0.936
 8196TIP3   OH224532   4.725   1.479   2.662
 8196TIP3    H124533   4.752   1.469   2.753
 8196TIP3    H224534   4.637   1.517   2.667
 8197TIP3   OH224535   2.413   4.068   2.470
 8197TIP3    H124536   2.350   4.059   2.541
 8197TIP3    H224537   2.384   4.003   2.405
 8198TIP3   OH224538   2.434   0.785   2.683
 8198TIP3    H124539   2.484   0.729   2.624
 8198TIP3    H224540   2.351   0.739   2.696
 8199TIP3   OH224541   6.669   2.374   3.803
 8199TIP3    H124542   6.736   2.442   3.798
 8199TIP3    H224543   6.618   2.397   3.881
 8200TIP3   OH224544   0.079   2.788   4.731
 8200TIP3    H124545   0.050   2.739   4.809
 8200TIP3    H224546   0.166   2.755   4.713
 8201TIP3   OH224547   3.549   2.085   6.390
 8201TIP3    H124548   3.499   2.084   6.471
 8201TIP3    H224549   3.602   2.006   6.392
 8202TIP3   OH224550   0.517   0.579   4.086
 8202TIP3    H124551   0.496   0.672   4.077
 8202TIP3    H224552   0.434   0.534   4.075
 8203TIP3   OH224553   3.957   1.525   3.228
 8203TIP3    H124554   4.032   1.486   3.273
 8203TIP3    H224555   3.957   1.617   3.254
 8204TIP3   OH224556   4.898   0.133   3.637
 8204TIP3    H124557   4.891   0.201   3.705
 8204TIP3    H224558   4.810   0.097   3.630
 8205TIP3   OH224559   4.598   4.480   5.807
 8205TIP3    H124560   4.586   4.386   5.800
 8205TIP3    H224561   4.538   4.517   5.742
 8206TIP3   OH224562   7.682   3.929   3.105
 8206TIP3    H124563   7.778   3.924   3.096
 8206TIP3    H224564   7.653   3.969   3.024
 8207TIP3   OH224565   1.103   5.408   3.818
 8207TIP3    H124566   1.176   5.416   3.756
 8207TIP3    H224567   1.045   5.481   3.796
 8208TIP3   OH224568   7.527   4.683   2.174
 8208TIP3    H124569   7.448   4.629   2.174
 8208TIP3    H224570   7.582   4.645   2.105
 8209TIP3   OH224571   1.676   4.366   3.766
 8209TIP3    H124572   1.681   4.405   3.678
 8209TIP3    H224573   1.693   4.440   3.825
 8210TIP3   OH224574   0.486   1.717   5.395
 8210TIP3    H124575   0.479   1.700   5.489
 8210TIP3    H224576   0.556   1.782   5.387
 8211TIP3   OH224577   4.861   4.099   1.489
 8211TIP3    H124578   4.809   4.179   1.493
 8211TIP3    H224579   4.876   4.086   1.395
 8212TIP3   OH224580   0.568   6.962   4.925
 8212TIP3    H124581   0.590   7.045   4.882
 8212TIP3    H224582   0.496   6.927   4.874
 8213TIP3   OH224583   0.243   6.646   1.343
 8213TIP3    H124584   0.228   6.608   1.257
 8213TIP3    H224585   0.235   6.740   1.329
 8214TIP3   OH224586   6.448   1.512   3.654
 8214TIP3    H124587   6.400   1.591   3.633
 8214TIP3    H224588   6.451   1.510   3.750
 8215TIP3   OH224589   8.266   2.400   3.791
 8215TIP3    H124590   8.204   2.472   3.797
 8215TIP3    H224591   8.351   2.442   3.773
 8216TIP3   OH224592   4.946   6.194   5.741
 8216TIP3    H124593   4.911   6.264   5.685
 8216TIP3    H224594   5.034   6.178   5.707
 8217TIP3   OH224595   3.522   2.591   2.581
 8217TIP3    H124596   3.443   2.618   2.628
 8217TIP3    H224597   3.490   2.562   2.496
 8218TIP3   OH224598   2.812   4.721   0.828
 8218TIP3    H124599   2.782   4.630   0.827
 8218TIP3    H224600   2.809   4.746   0.921
 8219TIP3   OH224601   1.018   3.864   6.395
 8219TIP3    H124602   1.056   3.876   6.308
 8219TIP3    H224603   1.078   3.804   6.439
 8220TIP3   OH224604   3.340   0.789   4.199
 8220TIP3    H124605   3.275   0.803   4.268
 8220TIP3    H224606   3.424   0.785   4.244
 8221TIP3   OH224607   1.274   3.174   4.720
 8221TIP3    H124608   1.265   3.190   4.626
 8221TIP3    H224609   1.321   3.251   4.753
 8222TIP3   OH224610   0.700   3.087   0.160
 8222TIP3    H124611   0.752   3.060   0.084
 8222TIP3    H224612   0.759   3.142   0.211
 8223TIP3   OH224613   2.894   6.241   2.125
 8223TIP3    H124614   2.970   6.186   2.111
 8223TIP3    H224615   2.917   6.325   2.085
 8224TIP3   OH224616   5.069   2.307   6.369
 8224TIP3    H124617   5.023   2.313   6.452
 8224TIP3    H224618   5.006   2.340   6.304
 8225TIP3   OH224619   6.029   6.780   3.932
 8225TIP3    H124620   6.056   6.867   3.961
 8225TIP3    H224621   6.057   6.721   4.002
 8226TIP3   OH224622   4.117   5.277   0.985
 8226TIP3    H124623   4.146   5.344   0.924
 8226TIP3    H224624   4.023   5.293   0.996
 8227TIP3   OH224625   5.075   0.876   0.305
 8227TIP3    H124626   5.039   0.964   0.306
 8227TIP3    H224627   5.002   0.819   0.327
 8228TIP3   OH224628   2.010   5.933   2.327
 8228TIP3    H124629   2.017   5.878   2.250
 8228TIP3    H224630   2.101   5.953   2.350
 8229TIP3   OH224631   7.158   6.696   1.623
 8229TIP3    H124632   7.174   6.636   1.550
 8229TIP3    H224633   7.199   6.778   1.595
 8230TIP3   OH224634   0.093   7.051   5.842
 8230TIP3    H124635   0.014   7.003   5.817
 8230TIP3    H224636   0.096   7.125   5.781
 8231TIP3   OH224637   3.639   0.700   1.427
 8231TIP3    H124638   3.568   0.731   1.370
 8231TIP3    H224639   3.685   0.780   1.453
 8232TIP3   OH224640   7.318   3.610   0.539
 8232TIP3    H124641   7.271   3.687   0.570
 8232TIP3    H224642   7.301   3.608   0.445
 8233TIP3   OH224643   5.580   6.487   5.410
 8233TIP3    H124644   5.570   6.519   5.320
 8233TIP3    H224645   5.504   6.521   5.456
 8234TIP3   OH224646   7.679   7.114   2.809
 8234TIP3    H124647   7.757   7.137   2.758
 8234TIP3    H224648   7.680   7.019   2.812
 8235TIP3   OH224649   8.056   0.999   1.296
 8235TIP3    H124650   7.972   0.954   1.284
 8235TIP3    H224651   8.033   1.092   1.302
 8236TIP3   OH224652   2.116   0.009   1.143
 8236TIP3    H124653   2.048   0.074   1.158
 8236TIP3    H224654   2.173   0.016   1.220
 8237TIP3   OH224655   6.763   4.078   0.626
 8237TIP3    H124656   6.771   3.983   0.625
 8237TIP3    H224657   6.816   4.105   0.702
 8238TIP3   OH224658   6.511   1.703   4.918
 8238TIP3    H124659   6.520   1.784   4.866
 8238TIP3    H224660   6.593   1.656   4.902
 8239TIP3   OH224661   6.076   0.100   5.919
 8239TIP3    H124662   6.029   0.016   5.918
 8239TIP3    H224663   6.016   0.162   5.877
 8240TIP3   OH224664   5.302   3.960   2.089
 8240TIP3    H124665   5.219   3.949   2.134
 8240TIP3    H224666   5.317   3.876   2.046
 8241TIP3   OH224667   1.441   1.307   1.466
 8241TIP3    H124668   1.502   1.348   1.527
 8241TIP3    H224669   1.426   1.220   1.502
 8242TIP3   OH224670   6.550   1.353   6.082
 8242TIP3    H124671   6.550   1.357   6.178
 8242TIP3    H224672   6.638   1.323   6.060
 8243TIP3   OH224673   5.732   0.837   2.709
 8243TIP3    H124674   5.678   0.914   2.692
 8243TIP3    H224675   5.797   0.838   2.638
 8244TIP3   OH224676   4.165   7.021   0.457
 8244TIP3    H124677   4.213   7.073   0.522
 8244TIP3    H224678   4.227   7.012   0.384
 8245TIP3   OH224679   6.477   0.057   6.580
 8245TIP3    H124680   6.513  -0.015   6.529
 8245TIP3    H224681   6.511   0.136   6.538
 8246TIP3   OH224682   3.195   6.291   1.503
 8246TIP3    H124683   3.281   6.256   1.481
 8246TIP3    H224684   3.199   6.308   1.597
 8247TIP3   OH224685   8.100   6.348   4.710
 8247TIP3    H124686   8.195   6.339   4.714
 8247TIP3    H224687   8.086   6.418   4.646
 8248TIP3   OH224688   2.534   3.654   4.648
 8248TIP3    H124689   2.570   3.710   4.717
 8248TIP3    H224690   2.501   3.716   4.582
 8249TIP3   OH224691   5.487   7.598   3.656
 8249TIP3    H124692   5.463   7.509   3.630
 8249TIP3    H224693   5.551   7.625   3.590
 8250TIP3   OH224694  -0.020   7.127   0.268
 8250TIP3    H124695  -0.044   7.218   0.288
 8250TIP3    H224696   0.075   7.125   0.277
 8251TIP3   OH224697   2.627   6.901   5.284
 8251TIP3    H124698   2.709   6.900   5.332
 8251TIP3    H224699   2.572   6.837   5.329
 8252TIP3   OH224700   6.309   7.282   3.745
 8252TIP3    H124701   6.300   7.187   3.755
 8252TIP3    H224702   6.262   7.318   3.821
 8253TIP3   OH224703   0.894   7.817   5.183
 8253TIP3    H124704   0.898   7.864   5.266
 8253TIP3    H224705   0.939   7.734   5.200
 8254TIP3   OH224706   2.567   3.377   3.288
 8254TIP3    H124707   2.504   3.313   3.321
 8254TIP3    H224708   2.596   3.424   3.366
 8255TIP3   OH224709   7.493   5.361   5.511
 8255TIP3    H124710   7.559   5.311   5.462
 8255TIP3    H224711   7.508   5.452   5.485
 8256TIP3   OH224712   1.902   0.396   0.470
 8256TIP3    H124713   1.834   0.416   0.406
 8256TIP3    H224714   1.974   0.455   0.448
 8257TIP3   OH224715   4.328   2.615   5.173
 8257TIP3    H124716   4.393   2.652   5.113
 8257TIP3    H224717   4.256   2.678   5.172
 8258TIP3   OH224718   3.887   5.131   5.263
 8258TIP3    H124719   3.879   5.050   5.313
 8258TIP3    H224720   3.980   5.140   5.245
 8259TIP3   OH224721   5.539   6.975   2.663
 8259TIP3    H124722   5.564   6.977   2.755
 8259TIP3    H224723   5.449   6.944   2.663
 8260TIP3   OH224724   1.778   3.643   4.830
 8260TIP3    H124725   1.688   3.674   4.824
 8260TIP3    H224726   1.780   3.566   4.773
 8261TIP3   OH224727   3.402   6.117   1.436
 8261TIP3    H124728   3.489   6.138   1.472
 8261TIP3    H224729   3.373   6.040   1.486
 8262TIP3   OH224730   2.712   3.122   4.372
 8262TIP3    H124731   2.789   3.067   4.380
 8262TIP3    H224732   2.642   3.061   4.349
 8263TIP3   OH224733   8.195   2.412   1.357
 8263TIP3    H124734   8.163   2.394   1.269
 8263TIP3    H224735   8.290   2.418   1.348
 8264TIP3   OH224736   6.088   6.153   2.249
 8264TIP3    H124737   6.015   6.148   2.311
 8264TIP3    H224738   6.166   6.164   2.304
 8265TIP3   OH224739   2.276   3.916   1.619
 8265TIP3    H124740   2.234   4.002   1.611
 8265TIP3    H224741   2.203   3.856   1.634
 8266TIP3   OH224742   7.858   5.072   4.040
 8266TIP3    H124743   7.832   4.983   4.019
 8266TIP3    H224744   7.777   5.116   4.065
 8267TIP3   OH224745   8.067   1.625   6.347
 8267TIP3    H124746   8.088   1.658   6.260
 8267TIP3    H224747   8.132   1.667   6.404
 8268TIP3   OH224748   6.747   6.433   1.713
 8268TIP3    H124749   6.766   6.392   1.629
 8268TIP3    H224750   6.823   6.488   1.731
 8269TIP3   OH224751   1.488   4.249   0.070
 8269TIP3    H124752   1.426   4.303   0.021
 8269TIP3    H224753   1.440   4.169   0.092
 8270TIP3   OH224754   0.025   5.293   4.490
 8270TIP3    H124755   0.084   5.320   4.560
 8270TIP3    H224756  -0.062   5.291   4.530
 8271TIP3   OH224757   4.221   0.646   3.142
 8271TIP3    H124758   4.233   0.665   3.235
 8271TIP3    H224759   4.302   0.602   3.116
 8272TIP3   OH224760   0.908   0.424   6.557
 8272TIP3    H124761   0.907   0.505   6.505
 8272TIP3    H224762   0.824   0.383   6.539
 8273TIP3   OH224763   0.302   7.450   6.527
 8273TIP3    H124764   0.283   7.506   6.602
 8273TIP3    H224765   0.393   7.470   6.504
 8274TIP3   OH224766   2.390   1.851   0.827
 8274TIP3    H124767   2.379   1.944   0.806
 8274TIP3    H224768   2.417   1.850   0.918
 8275TIP3   OH224769   4.584   2.248   1.445
 8275TIP3    H124770   4.618   2.282   1.363
 8275TIP3    H224771   4.495   2.283   1.451
 8276TIP3   OH224772   7.638   3.614   0.172
 8276TIP3    H124773   7.731   3.636   0.179
 8276TIP3    H224774   7.636   3.518   0.179
 8277TIP3   OH224775   5.606   1.813   0.531
 8277TIP3    H124776   5.694   1.850   0.530
 8277TIP3    H224777   5.548   1.888   0.544
 8278TIP3   OH224778   2.750   3.732   3.419
 8278TIP3    H124779   2.797   3.653   3.393
 8278TIP3    H224780   2.721   3.771   3.337
 8279TIP3   OH224781   7.586   1.803   6.212
 8279TIP3    H124782   7.667   1.777   6.168
 8279TIP3    H224783   7.591   1.760   6.297
 8280TIP3   OH224784   0.280   4.957   5.506
 8280TIP3    H124785   0.359   4.916   5.542
 8280TIP3    H224786   0.288   4.945   5.411
 8281TIP3   OH224787   1.517   6.841   6.556
 8281TIP3    H124788   1.550   6.891   6.630
 8281TIP3    H224789   1.583   6.852   6.488
 8282TIP3   OH224790   4.573   1.732   4.276
 8282TIP3    H124791   4.504   1.747   4.211
 8282TIP3    H224792   4.627   1.811   4.273
 8283TIP3   OH224793   2.713   4.086   0.349
 8283TIP3    H124794   2.740   4.031   0.275
 8283TIP3    H224795   2.765   4.165   0.339
 8284TIP3   OH224796   1.258   0.666   0.043
 8284TIP3    H124797   1.291   0.616   0.118
 8284TIP3    H224798   1.236   0.751   0.080
 8285TIP3   OH224799   4.598   0.227   5.175
 8285TIP3    H124800   4.523   0.254   5.120
 8285TIP3    H224801   4.616   0.304   5.229
 8286TIP3   OH224802   6.653   7.793   1.935
 8286TIP3    H124803   6.645   7.774   1.842
 8286TIP3    H224804   6.563   7.812   1.963
 8287TIP3   OH224805   2.419   6.378   0.427
 8287TIP3    H124806   2.350   6.392   0.363
 8287TIP3    H224807   2.386   6.309   0.485
 8288TIP3   OH224808   0.585   7.532   6.461
 8288TIP3    H124809   0.674   7.525   6.495
 8288TIP3    H224810   0.584   7.614   6.412
 8289TIP3   OH224811   4.689   1.479   6.482
 8289TIP3    H124812   4.705   1.417   6.412
 8289TIP3    H224813   4.709   1.565   6.444
 8290TIP3   OH224814   3.349   4.726   3.704
 8290TIP3    H124815   3.275   4.703   3.648
 8290TIP3    H224816   3.321   4.701   3.792
 8291TIP3   OH224817   0.350   0.970   4.620
 8291TIP3    H124818   0.349   0.947   4.713
 8291TIP3    H224819   0.257   0.973   4.596
 8292TIP3   OH224820   0.034   7.405   2.437
 8292TIP3    H124821  -0.012   7.472   2.388
 8292TIP3    H224822   0.040   7.331   2.377
 8293TIP3   OH224823   1.779   5.076   0.957
 8293TIP3    H124824   1.714   5.016   0.920
 8293TIP3    H224825   1.860   5.025   0.957
 8294TIP3   OH224826   0.901   0.500   5.774
 8294TIP3    H124827   0.833   0.510   5.707
 8294TIP3    H224828   0.892   0.411   5.805
 8295TIP3   OH224829   5.689   2.822   4.699
 8295TIP3    H124830   5.765   2.816   4.641
 8295TIP3    H224831   5.704   2.755   4.765
 8296TIP3   OH224832   7.409   2.142   3.098
 8296TIP3    H124833   7.461   2.069   3.131
 8296TIP3    H224834   7.460   2.220   3.120
 8297TIP3   OH224835   6.828   4.278   6.190
 8297TIP3    H124836   6.738   4.247   6.204
 8297TIP3    H224837   6.877   4.245   6.266
 8298TIP3   OH224838   1.439   4.389   5.628
 8298TIP3    H124839   1.350   4.413   5.654
 8298TIP3    H224840   1.488   4.387   5.710
 8299TIP3   OH224841   7.070   3.971   6.358
 8299TIP3    H124842   7.000   3.936   6.413
 8299TIP3    H224843   7.072   4.064   6.379
 8300TIP3   OH224844   0.890   6.613   1.093
 8300TIP3    H124845   0.930   6.635   1.008
 8300TIP3    H224846   0.853   6.696   1.124
 8301TIP3   OH224847   3.201   3.425   5.771
 8301TIP3    H124848   3.243   3.411   5.686
 8301TIP3    H224849   3.150   3.506   5.759
 8302TIP3   OH224850   2.425   5.409   6.643
 8302TIP3    H124851   2.504   5.444   6.685
 8302TIP3    H224852   2.360   5.406   6.713
 8303TIP3   OH224853   8.081   6.722   5.592
 8303TIP3    H124854   8.094   6.777   5.670
 8303TIP3    H224855   8.079   6.632   5.626
 8304TIP3   OH224856   6.514   0.112   2.211
 8304TIP3    H124857   6.540   0.148   2.296
 8304TIP3    H224858   6.578   0.147   2.149
 8305TIP3   OH224859   7.367   5.570   4.697
 8305TIP3    H124860   7.366   5.578   4.602
 8305TIP3    H224861   7.447   5.615   4.724
 8306TIP3   OH224862   1.676   3.882  -0.002
 8306TIP3    H124863   1.581   3.892  -0.008
 8306TIP3    H224864   1.690   3.827   0.074
 8307TIP3   OH224865   6.492   1.811   6.415
 8307TIP3    H124866   6.569   1.785   6.364
 8307TIP3    H224867   6.441   1.865   6.355
 8308TIP3   OH224868   1.572   4.496   5.841
 8308TIP3    H124869   1.584   4.514   5.934
 8308TIP3    H224870   1.515   4.566   5.810
 8309TIP3   OH224871   6.677   0.228   1.676
 8309TIP3    H124872   6.665   0.135   1.699
 8309TIP3    H224873   6.704   0.226   1.585
 8310TIP3   OH224874   0.291   1.913   6.142
 8310TIP3    H124875   0.233   1.843   6.114
 8310TIP3    H224876   0.351   1.872   6.205
 8311TIP3   OH224877   7.191   5.880   3.767
 8311TIP3    H124878   7.178   5.864   3.860
 8311TIP3    H224879   7.235   5.964   3.762
 8312TIP3   OH224880   1.834   1.292   3.266
 8312TIP3    H124881   1.880   1.313   3.184
 8312TIP3    H224882   1.741   1.292   3.242
 8313TIP3   OH224883   2.246   3.043   6.120
 8313TIP3    H124884   2.223   3.132   6.094
 8313TIP3    H224885   2.298   3.010   6.047
 8314TIP3   OH224886   0.261   4.353   3.919
 8314TIP3    H124887   0.186   4.333   3.975
 8314TIP3    H224888   0.227   4.350   3.830
 8315TIP3   OH224889   7.653   2.144   6.153
 8315TIP3    H124890   7.735   2.190   6.135
 8315TIP3    H224891   7.678   2.075   6.215
 8316TIP3   OH224892   6.396   4.358   5.274
 8316TIP3    H124893   6.362   4.434   5.227
 8316TIP3    H224894   6.481   4.387   5.307
 8317TIP3   OH224895   3.673   0.351   0.311
 8317TIP3    H124896   3.659   0.267   0.267
 8317TIP3    H224897   3.664   0.331   0.404
 8318TIP3   OH224898   1.865   4.298   5.112
 8318TIP3    H124899   1.800   4.290   5.182
 8318TIP3    H224900   1.834   4.371   5.058
 8319TIP3   OH224901   6.940   3.697   0.497
 8319TIP3    H124902   6.912   3.759   0.429
 8319TIP3    H224903   6.891   3.617   0.477
 8320TIP3   OH224904   1.219   7.816   5.242
 8320TIP3    H124905   1.189   7.727   5.258
 8320TIP3    H224906   1.303   7.806   5.198
 8321TIP3   OH224907   3.263   4.942   5.026
 8321TIP3    H124908   3.358   4.938   5.021
 8321TIP3    H224909   3.244   5.036   5.035
 8322TIP3   OH224910   2.852   5.564   6.141
 8322TIP3    H124911   2.813   5.614   6.069
 8322TIP3    H224912   2.781   5.553   6.204
 8323TIP3   OH224913   2.434   6.099   3.160
 8323TIP3    H124914   2.525   6.070   3.151
 8323TIP3    H224915   2.439   6.195   3.158
 8324TIP3   OH224916   7.563   0.275   6.106
 8324TIP3    H124917   7.652   0.309   6.120
 8324TIP3    H224918   7.571   0.217   6.031
 8325TIP3   OH224919   3.844   1.094   3.779
 8325TIP3    H124920   3.811   1.090   3.869
 8325TIP3    H224921   3.846   1.187   3.758
 8326TIP3   OH224922   7.511   5.195   3.649
 8326TIP3    H124923   7.591   5.184   3.700
 8326TIP3    H224924   7.542   5.218   3.561
 8327TIP3   OH224925   8.221   2.654   2.508
 8327TIP3    H124926   8.187   2.661   2.597
 8327TIP3    H224927   8.175   2.580   2.469
 8328TIP3   OH224928   1.971   7.316   1.261
 8328TIP3    H124929   1.917   7.365   1.323
 8328TIP3    H224930   1.915   7.305   1.184
 8329TIP3   OH224931   6.087   1.491   0.071
 8329TIP3    H124932   6.095   1.544   0.150
 8329TIP3    H224933   6.166   1.437   0.070
 8330TIP3   OH224934   5.301   0.399   0.737
 8330TIP3    H124935   5.209   0.413   0.714
 8330TIP3    H224936   5.350   0.426   0.658
 8331TIP3   OH224937   6.965   0.256   2.020
 8331TIP3    H124938   6.971   0.163   2.039
 8331TIP3    H224939   6.929   0.260   1.931
 8332TIP3   OH224940   0.208   2.261   0.331
 8332TIP3    H124941   0.223   2.293   0.242
 8332TIP3    H224942   0.159   2.179   0.319
 8333TIP3   OH224943   0.643   4.268   4.828
 8333TIP3    H124944   0.573   4.311   4.778
 8333TIP3    H224945   0.699   4.228   4.761
 8334TIP3   OH224946   7.932   0.054   0.689
 8334TIP3    H124947   7.911   0.070   0.781
 8334TIP3    H224948   8.022   0.022   0.690
 8335TIP3   OH224949   6.426   7.042   1.126
 8335TIP3    H124950   6.434   7.009   1.215
 8335TIP3    H224951   6.335   7.068   1.118
 8336TIP3   OH224952   0.508   2.482   1.826
 8336TIP3    H124953   0.506   2.389   1.852
 8336TIP3    H224954   0.573   2.522   1.883
 8337TIP3   OH224955   5.945   2.967   6.148
 8337TIP3    H124956   5.976   2.886   6.110
 8337TIP3    H224957   5.925   3.023   6.073
 8338TIP3   OH224958   2.975   4.320   0.602
 8338TIP3    H124959   3.046   4.257   0.615
 8338TIP3    H224960   3.021   4.403   0.585
 8339TIP3   OH224961   1.756   5.391   0.521
 8339TIP3    H124962   1.798   5.377   0.436
 8339TIP3    H224963   1.780   5.314   0.573
 8340TIP3   OH224964   8.280   4.696   2.602
 8340TIP3    H124965   8.199   4.675   2.647
 8340TIP3    H224966   8.288   4.791   2.612
 8341TIP3   OH224967   7.352   5.228   0.875
 8341TIP3    H124968   7.320   5.297   0.933
 8341TIP3    H224969   7.359   5.151   0.931
 8342TIP3   OH224970   3.045   0.048   4.250
 8342TIP3    H124971   3.088   0.042   4.165
 8342TIP3    H224972   2.987   0.124   4.242
 8343TIP3   OH224973   6.419   7.085   1.650
 8343TIP3    H124974   6.413   7.159   1.710
 8343TIP3    H224975   6.513   7.066   1.645
 8344TIP3   OH224976   1.373   7.231   0.728
 8344TIP3    H124977   1.433   7.236   0.653
 8344TIP3    H224978   1.380   7.316   0.771
 8345TIP3   OH224979   1.282   4.878   0.434
 8345TIP3    H124980   1.289   4.788   0.467
 8345TIP3    H224981   1.372   4.902   0.413
 8346TIP3   OH224982   4.523   5.156   4.712
 8346TIP3    H124983   4.448   5.164   4.771
 8346TIP3    H224984   4.587   5.219   4.746
 8347TIP3   OH224985   5.693   6.560   6.263
 8347TIP3    H124986   5.751   6.565   6.338
 8347TIP3    H224987   5.731   6.619   6.198
 8348TIP3   OH224988   7.904   3.997   1.019
 8348TIP3    H124989   7.852   3.988   1.099
 8348TIP3    H224990   7.954   4.078   1.032
 8349TIP3   OH224991   4.403   1.905   5.049
 8349TIP3    H124992   4.318   1.913   5.004
 8349TIP3    H224993   4.467   1.900   4.979
 8350TIP3   OH224994   6.532   3.894   0.912
 8350TIP3    H124995   6.579   3.862   0.835
 8350TIP3    H224996   6.439   3.888   0.888
 8351TIP3   OH224997   6.710   4.083   2.079
 8351TIP3    H124998   6.714   4.130   1.996
 8351TIP3    H224999   6.699   3.991   2.054
 8352TIP3   OH225000   5.316   5.673   2.970
 8352TIP3    H125001   5.395   5.681   3.022
 8352TIP3    H225002   5.250   5.640   3.031
 8353TIP3   OH225003   6.997   0.460   4.204
 8353TIP3    H125004   6.976   0.549   4.230
 8353TIP3    H225005   7.091   0.452   4.219
 8354TIP3   OH225006   3.630   6.535   1.621
 8354TIP3    H125007   3.635   6.587   1.541
 8354TIP3    H225008   3.545   6.557   1.658
 8355TIP3   OH225009   6.590   0.471   6.150
 8355TIP3    H125010   6.519   0.496   6.091
 8355TIP3    H225011   6.570   0.517   6.232
 8356TIP3   OH225012   4.326   1.495   2.097
 8356TIP3    H125013   4.272   1.417   2.109
 8356TIP3    H225014   4.372   1.506   2.181
 8357TIP3   OH225015   6.391   3.055   2.914
 8357TIP3    H125016   6.417   3.140   2.880
 8357TIP3    H225017   6.437   3.047   2.997
 8358TIP3   OH225018   2.139   5.868   0.727
 8358TIP3    H125019   2.102   5.782   0.709
 8358TIP3    H225020   2.141   5.912   0.642
 8359TIP3   OH225021   6.588   0.630   1.560
 8359TIP3    H125022   6.616   0.719   1.537
 8359TIP3    H225023   6.574   0.634   1.655
 8360TIP3   OH225024   8.087   2.071   0.529
 8360TIP3    H125025   8.015   2.108   0.581
 8360TIP3    H225026   8.166   2.096   0.576
 8361TIP3   OH225027   5.231   6.405   2.284
 8361TIP3    H125028   5.266   6.317   2.294
 8361TIP3    H225029   5.305   6.457   2.253
 8362TIP3   OH225030   3.415   5.773   5.585
 8362TIP3    H125031   3.435   5.831   5.658
 8362TIP3    H225032   3.446   5.687   5.614
 8363TIP3   OH225033   5.082   2.692   3.680
 8363TIP3    H125034   5.088   2.774   3.631
 8363TIP3    H225035   5.171   2.678   3.713
 8364TIP3   OH225036   7.486   4.821   2.425
 8364TIP3    H125037   7.481   4.756   2.355
 8364TIP3    H225038   7.576   4.854   2.421
 8365TIP3   OH225039   3.510   2.131   3.931
 8365TIP3    H125040   3.506   2.115   4.025
 8365TIP3    H225041   3.603   2.147   3.913
 8366TIP3   OH225042   1.495   1.999   2.803
 8366TIP3    H125043   1.549   1.955   2.737
 8366TIP3    H225044   1.418   1.943   2.811
 8367TIP3   OH225045   2.092   0.046   5.953
 8367TIP3    H125046   2.043   0.054   5.871
 8367TIP3    H225047   2.173   0.094   5.936
 8368TIP3   OH225048   7.473   5.794   0.399
 8368TIP3    H125049   7.399   5.735   0.383
 8368TIP3    H225050   7.432   5.875   0.431
 8369TIP3   OH225051   1.651   6.696   2.581
 8369TIP3    H125052   1.695   6.705   2.496
 8369TIP3    H225053   1.585   6.766   2.581
 8370TIP3   OH225054   4.954   3.533   6.746
 8370TIP3    H125055   4.879   3.589   6.765
 8370TIP3    H225056   4.922   3.470   6.682
 8371TIP3   OH225057   1.510   3.695   6.732
 8371TIP3    H125058   1.518   3.787   6.758
 8371TIP3    H225059   1.578   3.684   6.665
 8372TIP3   OH225060   1.092   3.449   6.349
 8372TIP3    H125061   1.171   3.407   6.384
 8372TIP3    H225062   1.117   3.541   6.338
 8373TIP3   OH225063   5.115   5.339   3.837
 8373TIP3    H125064   5.191   5.397   3.848
 8373TIP3    H225065   5.047   5.380   3.890
 8374TIP3   OH225066   6.487   2.385   6.226
 8374TIP3    H125067   6.476   2.332   6.306
 8374TIP3    H225068   6.400   2.388   6.187
 8375TIP3   OH225069   5.667   6.173   4.830
 8375TIP3    H125070   5.592   6.221   4.864
 8375TIP3    H225071   5.669   6.194   4.736
 8376TIP3   OH225072   6.114   1.235   0.714
 8376TIP3    H125073   6.162   1.156   0.738
 8376TIP3    H225074   6.124   1.293   0.789
 8377TIP3   OH225075   4.007   2.412   2.040
 8377TIP3    H125076   3.945   2.380   2.106
 8377TIP3    H225077   4.088   2.426   2.088
 8378TIP3   OH225078   2.766   7.757   2.774
 8378TIP3    H125079   2.716   7.822   2.823
 8378TIP3    H225080   2.740   7.673   2.812
 8379TIP3   OH225081   4.108   3.103   2.966
 8379TIP3    H125082   4.072   3.137   3.048
 8379TIP3    H225083   4.150   3.020   2.990
 8380TIP3   OH225084   3.301   5.610   5.396
 8380TIP3    H125085   3.355   5.680   5.433
 8380TIP3    H225086   3.211   5.641   5.408
 8381TIP3   OH225087   3.636   1.414   4.731
 8381TIP3    H125088   3.714   1.465   4.709
 8381TIP3    H225089   3.579   1.424   4.654
 8382TIP3   OH225090   1.351   1.701   5.160
 8382TIP3    H125091   1.347   1.765   5.089
 8382TIP3    H225092   1.293   1.630   5.132
 8383TIP3   OH225093   2.173   7.132   4.919
 8383TIP3    H125094   2.161   7.038   4.929
 8383TIP3    H225095   2.201   7.144   4.828
 8384TIP3   OH225096   2.879   0.747   2.990
 8384TIP3    H125097   2.922   0.816   3.041
 8384TIP3    H225098   2.809   0.792   2.942
 8385TIP3   OH225099   0.410   0.974   5.286
 8385TIP3    H125100   0.440   1.012   5.369
 8385TIP3    H225101   0.315   0.981   5.289
 8386TIP3   OH225102   5.373   3.583   0.243
 8386TIP3    H125103   5.371   3.679   0.235
 8386TIP3    H225104   5.414   3.567   0.327
 8387TIP3   OH225105   8.224   5.999   6.565
 8387TIP3    H125106   8.256   5.925   6.617
 8387TIP3    H225107   8.296   6.062   6.565
 8388TIP3   OH225108   5.222   1.991   1.030
 8388TIP3    H125109   5.162   2.063   1.047
 8388TIP3    H225110   5.228   1.987   0.934
 8389TIP3   OH225111   6.470   3.148   2.327
 8389TIP3    H125112   6.533   3.083   2.359
 8389TIP3    H225113   6.453   3.123   2.237
 8390TIP3   OH225114   0.842   7.275   4.094
 8390TIP3    H125115   0.867   7.201   4.150
 8390TIP3    H225116   0.844   7.240   4.005
 8391TIP3   OH225117   7.027   5.679   6.760
 8391TIP3    H125118   6.979   5.749   6.715
 8391TIP3    H225119   6.961   5.611   6.775
 8392TIP3   OH225120   2.236   7.263   6.656
 8392TIP3    H125121   2.246   7.293   6.566
 8392TIP3    H225122   2.182   7.329   6.698
 8393TIP3   OH225123   5.798   5.178   5.923
 8393TIP3    H125124   5.858   5.252   5.924
 8393TIP3    H225125   5.727   5.204   5.983
 8394TIP3   OH225126   3.497   1.198   5.449
 8394TIP3    H125127   3.479   1.240   5.365
 8394TIP3    H225128   3.592   1.200   5.457
 8395TIP3   OH225129   6.198   0.574   4.696
 8395TIP3    H125130   6.164   0.554   4.609
 8395TIP3    H225131   6.293   0.577   4.685
 8396TIP3   OH225132   5.666   7.121   4.022
 8396TIP3    H125133   5.762   7.127   4.024
 8396TIP3    H225134   5.646   7.108   3.929
 8397TIP3   OH225135   1.788   5.137   1.863
 8397TIP3    H125136   1.802   5.179   1.779
 8397TIP3    H225137   1.812   5.045   1.849
 8398TIP3   OH225138   5.255   6.060   6.444
 8398TIP3    H125139   5.326   6.118   6.416
 8398TIP3    H225140   5.298   5.996   6.500
 8399TIP3   OH225141   2.658   2.577   3.208
 8399TIP3    H125142   2.690   2.487   3.215
 8399TIP3    H225143   2.666   2.613   3.296
 8400TIP3   OH225144   2.003   4.065   5.134
 8400TIP3    H125145   1.962   4.148   5.112
 8400TIP3    H225146   2.037   4.078   5.223
 8401TIP3   OH225147   3.636   3.722   6.033
 8401TIP3    H125148   3.672   3.634   6.037
 8401TIP3    H225149   3.680   3.762   5.958
 8402TIP3   OH225150   7.772   5.128   3.734
 8402TIP3    H125151   7.787   5.220   3.756
 8402TIP3    H225152   7.859   5.088   3.737
 8403TIP3   OH225153   0.220   7.269   5.053
 8403TIP3    H125154   0.156   7.324   5.098
 8403TIP3    H225155   0.223   7.304   4.964
 8404TIP3   OH225156   5.631   1.551   3.278
 8404TIP3    H125157   5.701   1.616   3.284
 8404TIP3    H225158   5.659   1.492   3.209
 8405TIP3   OH225159   5.238   1.400   1.242
 8405TIP3    H125160   5.290   1.413   1.163
 8405TIP3    H225161   5.194   1.316   1.228
 8406TIP3   OH225162   4.702   7.367   1.664
 8406TIP3    H125163   4.728   7.458   1.681
 8406TIP3    H225164   4.624   7.374   1.610
 8407TIP3   OH225165   5.937   0.161   4.414
 8407TIP3    H125166   5.961   0.250   4.386
 8407TIP3    H225167   5.936   0.166   4.510
 8408TIP3   OH225168   2.864   4.673   6.464
 8408TIP3    H125169   2.852   4.747   6.523
 8408TIP3    H225170   2.958   4.656   6.466
 8409TIP3   OH225171   0.810   1.172   0.844
 8409TIP3    H125172   0.779   1.245   0.898
 8409TIP3    H225173   0.768   1.186   0.760
 8410TIP3   OH225174   5.427   5.298   0.240
 8410TIP3    H125175   5.452   5.381   0.281
 8410TIP3    H225176   5.337   5.283   0.269
 8411TIP3   OH225177   3.651   6.065   0.615
 8411TIP3    H125178   3.621   6.061   0.524
 8411TIP3    H225179   3.571   6.058   0.667
 8412TIP3   OH225180   3.520   0.021   3.189
 8412TIP3    H125181   3.459   0.094   3.183
 8412TIP3    H225182   3.598   0.051   3.143
 8413TIP3   OH225183   3.859   2.887   5.642
 8413TIP3    H125184   3.811   2.863   5.562
 8413TIP3    H225185   3.790   2.911   5.704
 8414TIP3   OH225186   4.985   4.055   2.770
 8414TIP3    H125187   4.922   4.052   2.698
 8414TIP3    H225188   4.931   4.056   2.849
 8415TIP3   OH225189   4.558   4.200   4.298
 8415TIP3    H125190   4.612   4.122   4.284
 8415TIP3    H225191   4.588   4.262   4.231
 8416TIP3   OH225192   7.144   3.626   2.782
 8416TIP3    H125193   7.192   3.661   2.707
 8416TIP3    H225194   7.208   3.570   2.826
 8417TIP3   OH225195   1.595   1.588   2.198
 8417TIP3    H125196   1.528   1.539   2.151
 8417TIP3    H225197   1.606   1.668   2.148
 8418TIP3   OH225198   5.542   0.699   6.301
 8418TIP3    H125199   5.468   0.751   6.331
 8418TIP3    H225200   5.503   0.618   6.268
 8419TIP3   OH225201   4.660   2.789   3.427
 8419TIP3    H125202   4.684   2.760   3.515
 8419TIP3    H225203   4.585   2.847   3.440
 8420TIP3   OH225204   1.463   2.787   4.313
 8420TIP3    H125205   1.397   2.832   4.260
 8420TIP3    H225206   1.536   2.848   4.318
 8421TIP3   OH225207   1.364   1.701   0.305
 8421TIP3    H125208   1.447   1.734   0.269
 8421TIP3    H225209   1.333   1.770   0.362
 8422TIP3   OH225210   3.240   4.883   1.623
 8422TIP3    H125211   3.260   4.941   1.697
 8422TIP3    H225212   3.203   4.941   1.557
 8423TIP3   OH225213   2.864   7.414   2.127
 8423TIP3    H125214   2.895   7.502   2.150
 8423TIP3    H225215   2.867   7.412   2.031
 8424TIP3   OH225216   3.338   1.576   6.231
 8424TIP3    H125217   3.243   1.574   6.220
 8424TIP3    H225218   3.362   1.485   6.248
 8425TIP3   OH225219   3.467   7.722   5.418
 8425TIP3    H125220   3.430   7.790   5.362
 8425TIP3    H225221   3.397   7.703   5.481
 8426TIP3   OH225222   8.283   4.801   1.032
 8426TIP3    H125223   8.276   4.877   0.974
 8426TIP3    H225224   8.204   4.805   1.086
 8427TIP3   OH225225   4.315   0.061   3.515
 8427TIP3    H125226   4.224   0.088   3.520
 8427TIP3    H225227   4.365   0.140   3.537
 8428TIP3   OH225228   3.153   2.999   5.727
 8428TIP3    H125229   3.146   3.043   5.643
 8428TIP3    H225230   3.190   2.913   5.706
 8429TIP3   OH225231   7.294   1.249   2.845
 8429TIP3    H125232   7.371   1.303   2.827
 8429TIP3    H225233   7.302   1.175   2.784
 8430TIP3   OH225234   1.497   7.179   1.633
 8430TIP3    H125235   1.465   7.201   1.546
 8430TIP3    H225236   1.522   7.263   1.672
 8431TIP3   OH225237   1.133   2.214   0.317
 8431TIP3    H125238   1.057   2.270   0.332
 8431TIP3    H225239   1.187   2.262   0.255
 8432TIP3   OH225240   2.727   5.565   0.659
 8432TIP3    H125241   2.713   5.659   0.652
 8432TIP3    H225242   2.821   5.555   0.675
 8433TIP3   OH225243   1.551   4.697   0.508
 8433TIP3    H125244   1.567   4.789   0.488
 8433TIP3    H225245   1.633   4.667   0.549
 8434TIP3   OH225246   3.851   7.535   5.195
 8434TIP3    H125247   3.802   7.475   5.139
 8434TIP3    H225248   3.807   7.529   5.280
 8435TIP3   OH225249   3.482   3.520   2.500
 8435TIP3    H125250   3.549   3.521   2.569
 8435TIP3    H225251   3.412   3.576   2.534
 8436TIP3   OH225252   2.862   1.186   3.618
 8436TIP3    H125253   2.770   1.174   3.643
 8436TIP3    H225254   2.906   1.111   3.658
 8437TIP3   OH225255   1.398   4.592   2.397
 8437TIP3    H125256   1.374   4.564   2.308
 8437TIP3    H225257   1.348   4.534   2.454
 8438TIP3   OH225258   2.615   4.155   1.621
 8438TIP3    H125259   2.529   4.190   1.643
 8438TIP3    H225260   2.673   4.191   1.689
 8439TIP3   OH225261   6.876   1.779   2.096
 8439TIP3    H125262   6.788   1.799   2.126
 8439TIP3    H225263   6.932   1.795   2.172
 8440TIP3   OH225264   6.509   6.806   2.193
 8440TIP3    H125265   6.540   6.872   2.130
 8440TIP3    H225266   6.574   6.736   2.189
 8441TIP3   OH225267   1.944   0.701   6.456
 8441TIP3    H125268   1.957   0.614   6.416
 8441TIP3    H225269   1.858   0.695   6.498
 8442TIP3   OH225270   4.961   1.829   3.708
 8442TIP3    H125271   4.974   1.740   3.740
 8442TIP3    H225272   5.042   1.850   3.661
 8443TIP3   OH225273   3.888   2.941   5.260
 8443TIP3    H125274   3.816   2.913   5.204
 8443TIP3    H225275   3.867   2.905   5.346
 8444TIP3   OH225276   2.877   0.991   4.693
 8444TIP3    H125277   2.965   0.980   4.729
 8444TIP3    H225278   2.881   1.070   4.640
 8445TIP3   OH225279   3.885   3.022   2.206
 8445TIP3    H125280   3.865   2.953   2.269
 8445TIP3    H225281   3.899   3.100   2.260
 8446TIP3   OH225282   8.249   3.660   6.619
 8446TIP3    H125283   8.220   3.570   6.636
 8446TIP3    H225284   8.195   3.689   6.546
 8447TIP3   OH225285   3.133   5.302   4.051
 8447TIP3    H125286   3.155   5.261   3.968
 8447TIP3    H225287   3.046   5.268   4.072
 8448TIP3   OH225288   5.148   2.824   2.317
 8448TIP3    H125289   5.123   2.747   2.368
 8448TIP3    H225290   5.233   2.801   2.280
 8449TIP3   OH225291   0.982   0.535   5.374
 8449TIP3    H125292   0.991   0.568   5.284
 8449TIP3    H225293   0.889   0.514   5.383
 8450TIP3   OH225294   4.844   6.954   0.292
 8450TIP3    H125295   4.761   6.934   0.336
 8450TIP3    H225296   4.846   6.895   0.217
 8451TIP3   OH225297   6.492   5.892   1.903
 8451TIP3    H125298   6.413   5.928   1.944
 8451TIP3    H225299   6.459   5.818   1.851
 8452TIP3   OH225300   0.879   4.952   4.873
 8452TIP3    H125301   0.855   4.890   4.804
 8452TIP3    H225302   0.795   4.975   4.914
 8453TIP3   OH225303   7.028   6.258   5.292
 8453TIP3    H125304   7.092   6.306   5.240
 8453TIP3    H225305   6.945   6.305   5.279
 8454TIP3   OH225306   7.961   3.907   5.806
 8454TIP3    H125307   8.006   3.951   5.734
 8454TIP3    H225308   7.880   3.874   5.767
 8455TIP3   OH225309   1.301   1.925   0.882
 8455TIP3    H125310   1.220   1.936   0.933
 8455TIP3    H225311   1.368   1.905   0.948
 8456TIP3   OH225312   5.988   5.461   4.978
 8456TIP3    H125313   5.988   5.439   4.885
 8456TIP3    H225314   5.949   5.548   4.982
 8457TIP3   OH225315   2.605   7.533   2.896
 8457TIP3    H125316   2.560   7.457   2.859
 8457TIP3    H225317   2.651   7.498   2.972
 8458TIP3   OH225318   0.088   4.438   0.538
 8458TIP3    H125319   0.105   4.437   0.444
 8458TIP3    H225320   0.041   4.520   0.553
 8459TIP3   OH225321   4.805   1.696   5.411
 8459TIP3    H125322   4.793   1.709   5.317
 8459TIP3    H225323   4.768   1.774   5.451
 8460TIP3   OH225324   6.084   2.750   6.073
 8460TIP3    H125325   6.067   2.763   5.980
 8460TIP3    H225326   6.168   2.793   6.089
 8461TIP3   OH225327   7.843   3.060   2.678
 8461TIP3    H125328   7.883   3.029   2.759
 8461TIP3    H225329   7.854   3.155   2.681
 8462TIP3   OH225330   7.259   3.223   5.331
 8462TIP3    H125331   7.207   3.206   5.253
 8462TIP3    H225332   7.335   3.164   5.322
 8463TIP3   OH225333   3.848   7.198   3.243
 8463TIP3    H125334   3.809   7.243   3.318
 8463TIP3    H225335   3.906   7.264   3.204
 8464TIP3   OH225336   6.019   3.174   1.127
 8464TIP3    H125337   6.096   3.222   1.098
 8464TIP3    H225338   6.042   3.143   1.215
 8465TIP3   OH225339   4.614   2.309   5.864
 8465TIP3    H125340   4.654   2.281   5.947
 8465TIP3    H225341   4.523   2.280   5.870
 8466TIP3   OH225342   2.564   2.484   4.944
 8466TIP3    H125343   2.653   2.500   4.913
 8466TIP3    H225344   2.538   2.566   4.985
 8467TIP3   OH225345   2.659   2.715   0.399
 8467TIP3    H125346   2.662   2.642   0.461
 8467TIP3    H225347   2.570   2.749   0.407
 8468TIP3   OH225348   1.193   2.120   2.660
 8468TIP3    H125349   1.139   2.043   2.640
 8468TIP3    H225350   1.250   2.130   2.585
 8469TIP3   OH225351   4.097   5.783   3.997
 8469TIP3    H125352   4.055   5.698   3.987
 8469TIP3    H225353   4.127   5.784   4.088
 8470TIP3   OH225354   7.677   7.106   4.819
 8470TIP3    H125355   7.759   7.058   4.818
 8470TIP3    H225356   7.638   7.089   4.733
 8471TIP3   OH225357   5.842   6.525   2.821
 8471TIP3    H125358   5.877   6.538   2.732
 8471TIP3    H225359   5.831   6.614   2.856
 8472TIP3   OH225360   6.324   4.582   5.124
 8472TIP3    H125361   6.233   4.611   5.123
 8472TIP3    H225362   6.374   4.661   5.102
 8473TIP3   OH225363   5.984   4.918   1.484
 8473TIP3    H125364   6.054   4.937   1.422
 8473TIP3    H225365   5.907   4.903   1.429
 8474TIP3   OH225366   7.620   6.256   0.789
 8474TIP3    H125367   7.714   6.270   0.792
 8474TIP3    H225368   7.585   6.312   0.858
 8475TIP3   OH225369   6.161   0.823   3.490
 8475TIP3    H125370   6.072   0.807   3.460
 8475TIP3    H225371   6.170   0.918   3.491
 8476TIP3   OH225372   3.549   5.349   1.465
 8476TIP3    H125373   3.578   5.384   1.380
 8476TIP3    H225374   3.548   5.254   1.453
 8477TIP3   OH225375   4.415   5.042   6.436
 8477TIP3    H125376   4.344   5.058   6.374
 8477TIP3    H225377   4.445   5.130   6.460
 8478TIP3   OH225378   3.041   1.259   6.370
 8478TIP3    H125379   2.984   1.183   6.363
 8478TIP3    H225380   3.094   1.257   6.290
 8479TIP3   OH225381   2.960   6.304   3.078
 8479TIP3    H125382   3.045   6.341   3.103
 8479TIP3    H225383   2.906   6.312   3.157
 8480TIP3   OH225384   0.724   2.931   4.330
 8480TIP3    H125385   0.740   2.878   4.408
 8480TIP3    H225386   0.801   2.987   4.322
 8481TIP3   OH225387   5.972   1.122   5.201
 8481TIP3    H125388   5.973   1.036   5.243
 8481TIP3    H225389   5.954   1.103   5.109
 8482TIP3   OH225390   3.212   6.326   2.234
 8482TIP3    H125391   3.141   6.390   2.226
 8482TIP3    H225392   3.175   6.244   2.203
 8483TIP3   OH225393   6.787   3.962   3.763
 8483TIP3    H125394   6.796   3.872   3.794
 8483TIP3    H225395   6.783   4.015   3.842
 8484TIP3   OH225396   5.490   3.569   4.685
 8484TIP3    H125397   5.519   3.538   4.770
 8484TIP3    H225398   5.559   3.628   4.655
 8485TIP3   OH225399   4.383   3.421   2.478
 8485TIP3    H125400   4.339   3.400   2.395
 8485TIP3    H225401   4.331   3.375   2.544
 8486TIP3   OH225402   2.559   7.679   2.039
 8486TIP3    H125403   2.543   7.590   2.070
 8486TIP3    H225404   2.551   7.734   2.117
 8487TIP3   OH225405   6.221   5.798   1.838
 8487TIP3    H125406   6.235   5.859   1.911
 8487TIP3    H225407   6.163   5.845   1.778
 8488TIP3   OH225408   0.407   0.497   5.135
 8488TIP3    H125409   0.350   0.518   5.209
 8488TIP3    H225410   0.364   0.538   5.060
 8489TIP3   OH225411   4.233   7.619   4.617
 8489TIP3    H125412   4.309   7.563   4.637
 8489TIP3    H225413   4.213   7.662   4.701
 8490TIP3   OH225414   0.464   1.746   6.318
 8490TIP3    H125415   0.530   1.816   6.322
 8490TIP3    H225416   0.470   1.704   6.403
 8491TIP3   OH225417   1.642   2.445   4.463
 8491TIP3    H125418   1.675   2.433   4.374
 8491TIP3    H225419   1.718   2.432   4.519
 8492TIP3   OH225420   1.963   6.289   2.064
 8492TIP3    H125421   1.962   6.258   2.155
 8492TIP3    H225422   1.948   6.383   2.071
 8493TIP3   OH225423   0.733   3.815   3.538
 8493TIP3    H125424   0.692   3.844   3.619
 8493TIP3    H225425   0.679   3.742   3.509
 8494TIP3   OH225426   3.791   5.695   4.295
 8494TIP3    H125427   3.797   5.673   4.202
 8494TIP3    H225428   3.871   5.661   4.334
 8495TIP3   OH225429   0.794   4.315   6.735
 8495TIP3    H125430   0.811   4.248   6.802
 8495TIP3    H225431   0.796   4.267   6.652
 8496TIP3   OH225432   3.809   7.149   2.546
 8496TIP3    H125433   3.748   7.213   2.583
 8496TIP3    H225434   3.844   7.193   2.468
 8497TIP3   OH225435   7.254   4.589   2.373
 8497TIP3    H125436   7.158   4.591   2.379
 8497TIP3    H225437   7.280   4.519   2.433
 8498TIP3   OH225438   0.829   4.577   1.858
 8498TIP3    H125439   0.853   4.561   1.767
 8498TIP3    H225440   0.817   4.490   1.896
 8499TIP3   OH225441   3.407   2.735   0.618
 8499TIP3    H125442   3.444   2.812   0.660
 8499TIP3    H225443   3.312   2.745   0.628
 8500TIP3   OH225444   2.216   2.415   0.356
 8500TIP3    H125445   2.265   2.485   0.312
 8500TIP3    H225446   2.182   2.361   0.284
 8501TIP3   OH225447   4.112   7.683   2.793
 8501TIP3    H125448   4.081   7.767   2.759
 8501TIP3    H225449   4.140   7.703   2.883
 8502TIP3   OH225450   3.985   7.631   0.028
 8502TIP3    H125451   4.076   7.623  -0.001
 8502TIP3    H225452   3.980   7.579   0.108
 8503TIP3   OH225453   7.674   0.870   4.460
 8503TIP3    H125454   7.752   0.820   4.437
 8503TIP3    H225455   7.636   0.823   4.534
 8504TIP3   OH225456   0.292   2.624   0.222
 8504TIP3    H125457   0.203   2.631   0.187
 8504TIP3    H225458   0.345   2.675   0.160
 8505TIP3   OH225459   6.458   6.018   5.339
 8505TIP3    H125460   6.464   5.941   5.284
 8505TIP3    H225461   6.410   5.989   5.417
 8506TIP3   OH225462   4.270   0.910   1.630
 8506TIP3    H125463   4.274   0.966   1.553
 8506TIP3    H225464   4.178   0.911   1.657
 8507TIP3   OH225465   5.340   1.888   2.519
 8507TIP3    H125466   5.368   1.872   2.609
 8507TIP3    H225467   5.245   1.898   2.524
 8508TIP3   OH225468   3.160   1.799   2.596
 8508TIP3    H125469   3.243   1.844   2.611
 8508TIP3    H225470   3.151   1.797   2.501
 8509TIP3   OH225471   4.010   0.596   4.943
 8509TIP3    H125472   3.918   0.605   4.966
 8509TIP3    H225473   4.015   0.514   4.894
 8510TIP3   OH225474   3.507   3.290   6.672
 8510TIP3    H125475   3.589   3.311   6.629
 8510TIP3    H225476   3.439   3.327   6.615
 8511TIP3   OH225477   3.592   3.692   4.173
 8511TIP3    H125478   3.579   3.597   4.176
 8511TIP3    H225479   3.597   3.718   4.264
 8512TIP3   OH225480   4.260   3.571   5.261
 8512TIP3    H125481   4.202   3.598   5.189
 8512TIP3    H225482   4.348   3.583   5.227
 8513TIP3   OH225483   1.024   1.930   2.524
 8513TIP3    H125484   1.027   1.838   2.497
 8513TIP3    H225485   0.953   1.934   2.588
 8514TIP3   OH225486   3.786   1.579   5.628
 8514TIP3    H125487   3.831   1.602   5.709
 8514TIP3    H225488   3.805   1.486   5.616
 8515TIP3   OH225489   4.259   6.525   4.364
 8515TIP3    H125490   4.169   6.524   4.394
 8515TIP3    H225491   4.311   6.541   4.443
 8516TIP3   OH225492   4.101   1.026   5.538
 8516TIP3    H125493   4.016   1.042   5.497
 8516TIP3    H225494   4.157   0.996   5.465
 8517TIP3   OH225495   3.982   1.577   6.299
 8517TIP3    H125496   3.997   1.489   6.264
 8517TIP3    H225497   3.887   1.585   6.303
 8518TIP3   OH225498   1.342   6.705   6.202
 8518TIP3    H125499   1.284   6.637   6.167
 8518TIP3    H225500   1.294   6.786   6.188
 8519TIP3   OH225501   3.018   5.901   5.116
 8519TIP3    H125502   2.930   5.940   5.108
 8519TIP3    H225503   3.063   5.927   5.036
 8520TIP3   OH225504   4.757   6.546   6.520
 8520TIP3    H125505   4.723   6.562   6.432
 8520TIP3    H225506   4.747   6.630   6.565
 8521TIP3   OH225507   4.244   5.942   6.245
 8521TIP3    H125508   4.190   5.868   6.215
 8521TIP3    H225509   4.181   6.013   6.260
 8522TIP3   OH225510   1.844   7.322   6.140
 8522TIP3    H125511   1.900   7.249   6.115
 8522TIP3    H225512   1.903   7.386   6.178
 8523TIP3   OH225513   1.324   7.794   4.237
 8523TIP3    H125514   1.346   7.724   4.299
 8523TIP3    H225515   1.245   7.762   4.193
 8524TIP3   OH225516   1.191   4.978   3.739
 8524TIP3    H125517   1.133   4.924   3.685
 8524TIP3    H225518   1.136   5.049   3.772
 8525TIP3   OH225519   4.490   2.305   2.751
 8525TIP3    H125520   4.525   2.245   2.817
 8525TIP3    H225521   4.442   2.249   2.691
 8526TIP3   OH225522   8.153   2.063   1.001
 8526TIP3    H125523   8.098   1.988   0.980
 8526TIP3    H225524   8.195   2.086   0.917
 8527TIP3   OH225525   4.151   4.459   6.522
 8527TIP3    H125526   4.112   4.518   6.587
 8527TIP3    H225527   4.085   4.391   6.510
 8528TIP3   OH225528   1.372   2.558   1.484
 8528TIP3    H125529   1.395   2.487   1.543
 8528TIP3    H225530   1.436   2.627   1.503
 8529TIP3   OH225531   5.279   1.292   5.357
 8529TIP3    H125532   5.191   1.329   5.346
 8529TIP3    H225533   5.285   1.274   5.451
 8530TIP3   OH225534   0.358   6.291   5.329
 8530TIP3    H125535   0.385   6.270   5.419
 8530TIP3    H225536   0.368   6.386   5.323
 8531TIP3   OH225537   1.552   4.930   0.352
 8531TIP3    H125538   1.570   5.020   0.325
 8531TIP3    H225539   1.580   4.877   0.277
 8532TIP3   OH225540   4.816   2.911   4.251
 8532TIP3    H125541   4.745   2.847   4.252
 8532TIP3    H225542   4.869   2.888   4.329
 8533TIP3   OH225543   2.546   3.799   5.808
 8533TIP3    H125544   2.509   3.804   5.720
 8533TIP3    H225545   2.615   3.865   5.808
 8534TIP3   OH225546   2.053   1.762   4.228
 8534TIP3    H125547   2.105   1.835   4.260
 8534TIP3    H225548   2.103   1.684   4.251
 8535TIP3   OH225549   2.751   3.101   1.153
 8535TIP3    H125550   2.761   3.029   1.091
 8535TIP3    H225551   2.770   3.179   1.102
 8536TIP3   OH225552   8.064   3.321   0.920
 8536TIP3    H125553   8.136   3.349   0.863
 8536TIP3    H225554   8.094   3.342   1.009
 8537TIP3   OH225555   5.303   4.067   5.029
 8537TIP3    H125556   5.227   4.117   4.998
 8537TIP3    H225557   5.371   4.133   5.044
 8538TIP3   OH225558   4.166   1.563   4.241
 8538TIP3    H125559   4.151   1.499   4.172
 8538TIP3    H225560   4.080   1.579   4.278
 8539TIP3   OH225561   5.173   2.946   3.584
 8539TIP3    H125562   5.100   2.961   3.524
 8539TIP3    H225563   5.161   3.012   3.653
 8540TIP3   OH225564   4.371   5.967   3.039
 8540TIP3    H125565   4.361   6.046   2.987
 8540TIP3    H225566   4.464   5.946   3.034
 8541TIP3   OH225567   3.417   3.314   4.281
 8541TIP3    H125568   3.494   3.305   4.338
 8541TIP3    H225569   3.449   3.357   4.202
 8542TIP3   OH225570   5.724   1.783   1.688
 8542TIP3    H125571   5.702   1.826   1.771
 8542TIP3    H225572   5.655   1.811   1.628
 8543TIP3   OH225573   4.576   3.545   4.064
 8543TIP3    H125574   4.532   3.628   4.046
 8543TIP3    H225575   4.654   3.570   4.114
 8544TIP3   OH225576   6.215   3.021   1.766
 8544TIP3    H125577   6.298   3.036   1.810
 8544TIP3    H225578   6.149   3.057   1.826
 8545TIP3   OH225579   8.008   7.784   2.170
 8545TIP3    H125580   7.939   7.849   2.186
 8545TIP3    H225581   8.000   7.764   2.077
 8546TIP3   OH225582   7.732   6.206   3.684
 8546TIP3    H125583   7.789   6.140   3.723
 8546TIP3    H225584   7.677   6.157   3.623
 8547TIP3   OH225585   6.736   3.142   3.692
 8547TIP3    H125586   6.792   3.209   3.653
 8547TIP3    H225587   6.714   3.084   3.618
 8548TIP3   OH225588   0.928   0.835   4.435
 8548TIP3    H125589   0.844   0.851   4.392
 8548TIP3    H225590   0.951   0.919   4.475
 8549TIP3   OH225591   5.606   1.742   2.613
 8549TIP3    H125592   5.556   1.691   2.548
 8549TIP3    H225593   5.662   1.799   2.561
 8550TIP3   OH225594   1.736   5.359   0.988
 8550TIP3    H125595   1.759   5.268   1.005
 8550TIP3    H225596   1.641   5.357   0.973
 8551TIP3   OH225597   6.149   4.655   1.484
 8551TIP3    H125598   6.086   4.724   1.464
 8551TIP3    H225599   6.181   4.676   1.572
 8552TIP3   OH225600   6.897   2.739   2.925
 8552TIP3    H125601   6.816   2.688   2.914
 8552TIP3    H225602   6.947   2.691   2.991
 8553TIP3   OH225603   0.744   6.324   3.726
 8553TIP3    H125604   0.796   6.282   3.657
 8553TIP3    H225605   0.702   6.398   3.682
 8554TIP3   OH225606   5.398   2.927   1.982
 8554TIP3    H125607   5.354   2.961   1.904
 8554TIP3    H225608   5.488   2.957   1.973
 8555TIP3   OH225609   5.063   1.182   1.150
 8555TIP3    H125610   4.986   1.171   1.206
 8555TIP3    H225611   5.029   1.221   1.070
 8556TIP3   OH225612   5.066   2.013   4.691
 8556TIP3    H125613   5.155   1.983   4.669
 8556TIP3    H225614   5.035   2.055   4.611
 8557TIP3   OH225615   3.194   3.491   3.494
 8557TIP3    H125616   3.288   3.507   3.484
 8557TIP3    H225617   3.188   3.421   3.559
 8558TIP3   OH225618   2.799   3.386   4.162
 8558TIP3    H125619   2.831   3.458   4.217
 8558TIP3    H225620   2.786   3.313   4.223
 8559TIP3   OH225621   2.739   5.424   0.033
 8559TIP3    H125622   2.717   5.335   0.007
 8559TIP3    H225623   2.777   5.415   0.120
 8560TIP3   OH225624   1.186   7.697   3.745
 8560TIP3    H125625   1.147   7.611   3.754
 8560TIP3    H225626   1.235   7.693   3.663
 8561TIP3   OH225627   2.929   6.998   1.334
 8561TIP3    H125628   2.973   7.064   1.281
 8561TIP3    H225629   2.991   6.977   1.404
 8562TIP3   OH225630   3.179   3.373   2.412
 8562TIP3    H125631   3.173   3.451   2.358
 8562TIP3    H225632   3.207   3.304   2.351
 8563TIP3   OH225633   0.251   6.296   2.397
 8563TIP3    H125634   0.249   6.206   2.364
 8563TIP3    H225635   0.327   6.299   2.454
 8564TIP3   OH225636   7.753   1.309   3.431
 8564TIP3    H125637   7.780   1.317   3.339
 8564TIP3    H225638   7.767   1.217   3.452
 8565TIP3   OH225639   0.727   1.385   3.059
 8565TIP3    H125640   0.771   1.360   2.978
 8565TIP3    H225641   0.634   1.374   3.040
 8566TIP3   OH225642   3.417   5.996   3.635
 8566TIP3    H125643   3.394   6.088   3.632
 8566TIP3    H225644   3.481   5.985   3.564
 8567TIP3   OH225645   1.263   2.872   5.350
 8567TIP3    H125646   1.225   2.812   5.286
 8567TIP3    H225647   1.194   2.935   5.368
 8568TIP3   OH225648   0.661   1.899   5.491
 8568TIP3    H125649   0.663   1.915   5.586
 8568TIP3    H225650   0.606   1.970   5.456
 8569TIP3   OH225651   4.252   5.635   6.503
 8569TIP3    H125652   4.230   5.643   6.596
 8569TIP3    H225653   4.323   5.571   6.501
 8570TIP3   OH225654   5.804   6.676   3.441
 8570TIP3    H125655   5.749   6.753   3.456
 8570TIP3    H225656   5.745   6.601   3.454
 8571TIP3   OH225657   3.511   2.547   0.812
 8571TIP3    H125658   3.603   2.534   0.787
 8571TIP3    H225659   3.478   2.609   0.748
 8572TIP3   OH225660   2.157   5.810   2.987
 8572TIP3    H125661   2.113   5.729   3.012
 8572TIP3    H225662   2.205   5.836   3.065
 8573TIP3   OH225663   2.140   6.053   6.775
 8573TIP3    H125664   2.158   5.998   6.699
 8573TIP3    H225665   2.223   6.096   6.794
 8574TIP3   OH225666   6.015   1.639   6.110
 8574TIP3    H125667   5.959   1.565   6.089
 8574TIP3    H225668   6.073   1.606   6.180
 8575TIP3   OH225669   4.910   7.505   1.005
 8575TIP3    H125670   4.993   7.457   0.998
 8575TIP3    H225671   4.848   7.441   1.038
 8576TIP3   OH225672   5.567   1.067   2.320
 8576TIP3    H125673   5.643   1.046   2.373
 8576TIP3    H225674   5.507   0.994   2.332
 8577TIP3   OH225675   1.987   4.953   3.587
 8577TIP3    H125676   2.041   4.987   3.516
 8577TIP3    H225677   1.999   5.015   3.658
 8578TIP3   OH225678   6.372   4.972   5.896
 8578TIP3    H125679   6.443   5.007   5.842
 8578TIP3    H225680   6.416   4.916   5.960
 8579TIP3   OH225681   1.221   7.304   6.348
 8579TIP3    H125682   1.137   7.262   6.329
 8579TIP3    H225683   1.231   7.295   6.443
 8580TIP3   OH225684   3.652   1.692   5.033
 8580TIP3    H125685   3.703   1.756   4.982
 8580TIP3    H225686   3.599   1.646   4.967
 8581TIP3   OH225687   4.002   6.717   3.097
 8581TIP3    H125688   4.027   6.652   3.163
 8581TIP3    H225689   3.985   6.797   3.147
 8582TIP3   OH225690   2.618   5.580   2.078
 8582TIP3    H125691   2.575   5.663   2.059
 8582TIP3    H225692   2.694   5.603   2.130
 8583TIP3   OH225693   8.168   3.183   5.106
 8583TIP3    H125694   8.245   3.211   5.156
 8583TIP3    H225695   8.105   3.254   5.118
 8584TIP3   OH225696   0.027   2.042   2.093
 8584TIP3    H125697  -0.030   1.969   2.069
 8584TIP3    H225698   0.019   2.103   2.019
 8585TIP3   OH225699   5.984   3.400   4.926
 8585TIP3    H125700   6.012   3.398   5.017
 8585TIP3    H225701   5.962   3.310   4.904
 8586TIP3   OH225702   0.518   3.607   1.653
 8586TIP3    H125703   0.573   3.668   1.605
 8586TIP3    H225704   0.572   3.578   1.726
 8587TIP3   OH225705   3.188   5.032   5.384
 8587TIP3    H125706   3.150   5.074   5.308
 8587TIP3    H225707   3.283   5.045   5.374
 8588TIP3   OH225708   1.252   4.240   3.321
 8588TIP3    H125709   1.159   4.225   3.303
 8588TIP3    H225710   1.292   4.153   3.314
 8589TIP3   OH225711   1.818   5.725   1.319
 8589TIP3    H125712   1.834   5.638   1.284
 8589TIP3    H225713   1.752   5.712   1.387
 8590TIP3   OH225714   0.123   7.239   2.667
 8590TIP3    H125715   0.201   7.236   2.611
 8590TIP3    H225716   0.056   7.279   2.611
 8591TIP3   OH225717   8.215   2.750   3.325
 8591TIP3    H125718   8.185   2.838   3.302
 8591TIP3    H225719   8.166   2.728   3.404
 8592TIP3   OH225720   2.198   3.160   0.886
 8592TIP3    H125721   2.129   3.210   0.842
 8592TIP3    H225722   2.245   3.225   0.939
 8593TIP3   OH225723   1.399   4.704   5.755
 8593TIP3    H125724   1.337   4.661   5.814
 8593TIP3    H225725   1.345   4.745   5.688
 8594TIP3   OH225726   7.663   6.088   2.348
 8594TIP3    H125727   7.705   6.015   2.302
 8594TIP3    H225728   7.658   6.158   2.283
 8595TIP3   OH225729   5.533   2.415   2.364
 8595TIP3    H125730   5.502   2.455   2.445
 8595TIP3    H225731   5.464   2.354   2.339
 8596TIP3   OH225732   2.181   0.725   0.428
 8596TIP3    H125733   2.100   0.753   0.387
 8596TIP3    H225734   2.167   0.632   0.449
 8597TIP3   OH225735   7.091   5.717   1.086
 8597TIP3    H125736   7.135   5.697   1.168
 8597TIP3    H225737   6.998   5.723   1.109
 8598TIP3   OH225738   3.581   4.069   3.655
 8598TIP3    H125739   3.522   4.001   3.689
 8598TIP3    H225740   3.651   4.075   3.719
 8599TIP3   OH225741   7.605   1.229   4.085
 8599TIP3    H125742   7.646   1.182   4.012
 8599TIP3    H225743   7.659   1.308   4.096
 8600TIP3   OH225744   6.964   3.059   6.702
 8600TIP3    H125745   6.876   3.050   6.666
 8600TIP3    H225746   6.973   3.153   6.720
 8601TIP3   OH225747   2.578   4.531   2.341
 8601TIP3    H125748   2.517   4.580   2.287
 8601TIP3    H225749   2.522   4.484   2.403
 8602TIP3   OH225750   1.777   7.318   2.681
 8602TIP3    H125751   1.755   7.355   2.766
 8602TIP3    H225752   1.820   7.236   2.701
 8603TIP3   OH225753   7.715   2.327   4.331
 8603TIP3    H125754   7.744   2.281   4.252
 8603TIP3    H225755   7.727   2.263   4.402
 8604TIP3   OH225756   3.476   2.850   3.262
 8604TIP3    H125757   3.482   2.755   3.265
 8604TIP3    H225758   3.537   2.881   3.329
 8605TIP3   OH225759   2.809   1.022   5.313
 8605TIP3    H125760   2.781   1.110   5.336
 8605TIP3    H225761   2.870   1.034   5.240
 8606TIP3   OH225762   3.223   1.693   3.574
 8606TIP3    H125763   3.254   1.618   3.524
 8606TIP3    H225764   3.171   1.655   3.645
 8607TIP3   OH225765   7.640   6.486   5.845
 8607TIP3    H125766   7.713   6.440   5.885
 8607TIP3    H225767   7.581   6.507   5.917
 8608TIP3   OH225768   2.733   2.338   6.310
 8608TIP3    H125769   2.708   2.246   6.298
 8608TIP3    H225770   2.694   2.383   6.235
 8609TIP3   OH225771   3.287   0.793   2.621
 8609TIP3    H125772   3.361   0.844   2.586
 8609TIP3    H225773   3.213   0.818   2.566
 8610TIP3   OH225774   2.005   3.824   0.655
 8610TIP3    H125775   1.926   3.873   0.680
 8610TIP3    H225776   1.989   3.735   0.685
 8611TIP3   OH225777   1.982   7.615   4.472
 8611TIP3    H125778   1.939   7.594   4.389
 8611TIP3    H225779   1.910   7.632   4.532
 8612TIP3   OH225780   0.534   4.201   5.368
 8612TIP3    H125781   0.554   4.265   5.299
 8612TIP3    H225782   0.604   4.214   5.432
 8613TIP3   OH225783   6.799   1.168   4.519
 8613TIP3    H125784   6.841   1.120   4.447
 8613TIP3    H225785   6.850   1.146   4.596
 8614TIP3   OH225786   4.057   6.524   3.319
 8614TIP3    H125787   4.130   6.463   3.318
 8614TIP3    H225788   4.061   6.567   3.404
 8615TIP3   OH225789   2.137   0.661   4.803
 8615TIP3    H125790   2.194   0.658   4.726
 8615TIP3    H225791   2.056   0.701   4.771
 8616TIP3   OH225792   5.686   0.210   2.990
 8616TIP3    H125793   5.599   0.214   2.950
 8616TIP3    H225794   5.732   0.143   2.940
 8617TIP3   OH225795   3.574   3.248   4.501
 8617TIP3    H125796   3.623   3.280   4.577
 8617TIP3    H225797   3.585   3.153   4.503
 8618TIP3   OH225798   7.744   7.380   1.450
 8618TIP3    H125799   7.754   7.301   1.503
 8618TIP3    H225800   7.817   7.435   1.476
 8619TIP3   OH225801   7.235   7.375   3.678
 8619TIP3    H125802   7.186   7.296   3.657
 8619TIP3    H225803   7.208   7.397   3.767
 8620TIP3   OH225804   3.392   0.458   1.837
 8620TIP3    H125805   3.427   0.537   1.879
 8620TIP3    H225806   3.449   0.443   1.762
 8621TIP3   OH225807   4.053   3.369   4.241
 8621TIP3    H125808   4.073   3.450   4.194
 8621TIP3    H225809   3.958   3.360   4.233
 8622TIP3   OH225810   1.421   6.541   4.608
 8622TIP3    H125811   1.499   6.578   4.568
 8622TIP3    H225812   1.377   6.495   4.536
 8623TIP3   OH225813   2.490   6.435   3.785
 8623TIP3    H125814   2.451   6.457   3.700
 8623TIP3    H225815   2.576   6.478   3.784
 8624TIP3   OH225816   3.967   1.713   6.675
 8624TIP3    H125817   3.993   1.780   6.612
 8624TIP3    H225818   3.998   1.631   6.637
 8625TIP3   OH225819   2.634   2.602   6.447
 8625TIP3    H125820   2.550   2.564   6.473
 8625TIP3    H225821   2.629   2.609   6.351
 8626TIP3   OH225822   3.674   1.733   1.485
 8626TIP3    H125823   3.618   1.657   1.501
 8626TIP3    H225824   3.638   1.802   1.539
 8627TIP3   OH225825   3.859   2.851   2.857
 8627TIP3    H125826   3.813   2.934   2.871
 8627TIP3    H225827   3.818   2.790   2.919
 8628TIP3   OH225828   7.403   3.567   5.155
 8628TIP3    H125829   7.459   3.489   5.159
 8628TIP3    H225830   7.375   3.580   5.245
 8629TIP3   OH225831   1.920   2.008   5.373
 8629TIP3    H125832   1.900   1.979   5.461
 8629TIP3    H225833   1.924   2.104   5.379
 8630TIP3   OH225834   6.379   7.309   4.381
 8630TIP3    H125835   6.385   7.288   4.475
 8630TIP3    H225836   6.330   7.236   4.344
 8631TIP3   OH225837   8.178   1.722   6.096
 8631TIP3    H125838   8.151   1.814   6.092
 8631TIP3    H225839   8.141   1.683   6.017
 8632TIP3   OH225840   2.541   1.615   1.371
 8632TIP3    H125841   2.570   1.542   1.425
 8632TIP3    H225842   2.618   1.671   1.362
 8633TIP3   OH225843   2.316   5.304   2.337
 8633TIP3    H125844   2.379   5.344   2.276
 8633TIP3    H225845   2.329   5.353   2.419
 8634TIP3   OH225846   1.695   4.612   6.162
 8634TIP3    H125847   1.656   4.524   6.157
 8634TIP3    H225848   1.722   4.620   6.254
 8635TIP3   OH225849   5.143   5.918   3.078
 8635TIP3    H125850   5.155   5.844   3.138
 8635TIP3    H225851   5.160   5.995   3.132
 8636TIP3   OH225852   7.598   4.257   2.262
 8636TIP3    H125853   7.647   4.227   2.338
 8636TIP3    H225854   7.644   4.220   2.187
 8637TIP3   OH225855   5.118   2.893   5.199
 8637TIP3    H125856   5.082   2.862   5.282
 8637TIP3    H225857   5.089   2.984   5.192
 8638TIP3   OH225858   3.835   4.285   2.781
 8638TIP3    H125859   3.763   4.348   2.773
 8638TIP3    H225860   3.817   4.220   2.714
 8639TIP3   OH225861   2.743   2.088   3.149
 8639TIP3    H125862   2.792   2.024   3.200
 8639TIP3    H225863   2.762   2.172   3.191
 8640TIP3   OH225864   4.049   6.550   6.412
 8640TIP3    H125865   4.052   6.523   6.321
 8640TIP3    H225866   4.101   6.631   6.415
 8641TIP3   OH225867   2.443   5.381   3.291
 8641TIP3    H125868   2.353   5.389   3.261
 8641TIP3    H225869   2.436   5.366   3.385
 8642TIP3   OH225870   0.344   2.415   3.088
 8642TIP3    H125871   0.364   2.343   3.028
 8642TIP3    H225872   0.387   2.391   3.170
 8643TIP3   OH225873   1.829   1.459   3.479
 8643TIP3    H125874   1.837   1.402   3.403
 8643TIP3    H225875   1.835   1.548   3.443
 8644TIP3   OH225876   3.016   5.172   5.603
 8644TIP3    H125877   3.054   5.151   5.517
 8644TIP3    H225878   3.089   5.161   5.664
 8645TIP3   OH225879   4.474   4.394   0.814
 8645TIP3    H125880   4.397   4.387   0.871
 8645TIP3    H225881   4.504   4.485   0.826
 8646TIP3   OH225882   7.023   0.660   1.226
 8646TIP3    H125883   6.991   0.682   1.139
 8646TIP3    H225884   6.978   0.578   1.248
 8647TIP3   OH225885   3.574   7.796   3.727
 8647TIP3    H125886   3.544   7.763   3.642
 8647TIP3    H225887   3.657   7.839   3.708
 8648TIP3   OH225888   3.897   4.938   5.895
 8648TIP3    H125889   3.919   4.845   5.886
 8648TIP3    H225890   3.982   4.983   5.890
 8649TIP3   OH225891   7.114   1.522   5.621
 8649TIP3    H125892   7.117   1.616   5.604
 8649TIP3    H225893   7.022   1.503   5.635
 8650TIP3   OH225894   2.361   2.876   2.977
 8650TIP3    H125895   2.345   2.866   2.883
 8650TIP3    H225896   2.448   2.916   2.982
 8651TIP3   OH225897   7.965   0.391   3.245
 8651TIP3    H125898   7.882   0.349   3.227
 8651TIP3    H225899   8.031   0.327   3.220
 8652TIP3   OH225900   4.048   0.321   5.375
 8652TIP3    H125901   4.098   0.253   5.331
 8652TIP3    H225902   4.112   0.389   5.395
 8653TIP3   OH225903   1.165   4.206   5.739
 8653TIP3    H125904   1.163   4.283   5.682
 8653TIP3    H225905   1.105   4.144   5.698
 8654TIP3   OH225906   4.410   3.708   4.543
 8654TIP3    H125907   4.398   3.803   4.538
 8654TIP3    H225908   4.443   3.692   4.631
 8655TIP3   OH225909   0.798   5.178   4.699
 8655TIP3    H125910   0.744   5.186   4.778
 8655TIP3    H225911   0.879   5.224   4.722
 8656TIP3   OH225912   6.671   2.744   4.943
 8656TIP3    H125913   6.672   2.663   4.893
 8656TIP3    H225914   6.583   2.748   4.981
 8657TIP3   OH225915   6.895   3.750   3.244
 8657TIP3    H125916   6.945   3.832   3.245
 8657TIP3    H225917   6.863   3.743   3.154
 8658TIP3   OH225918   0.135   5.488   2.533
 8658TIP3    H125919   0.164   5.532   2.613
 8658TIP3    H225920   0.175   5.401   2.538
 8659TIP3   OH225921   2.283   2.836   3.418
 8659TIP3    H125922   2.283   2.748   3.379
 8659TIP3    H225923   2.287   2.895   3.343
 8660TIP3   OH225924   6.392   2.207   2.312
 8660TIP3    H125925   6.362   2.199   2.221
 8660TIP3    H225926   6.312   2.213   2.364
 8661TIP3   OH225927   0.446   4.265   3.366
 8661TIP3    H125928   0.406   4.343   3.404
 8661TIP3    H225929   0.373   4.207   3.346
 8662TIP3   OH225930   4.281   3.237   2.697
 8662TIP3    H125931   4.205   3.270   2.746
 8662TIP3    H225932   4.272   3.142   2.701
 8663TIP3   OH225933   3.795   5.501   5.099
 8663TIP3    H125934   3.805   5.569   5.032
 8663TIP3    H225935   3.708   5.465   5.083
 8664TIP3   OH225936   5.474   6.389   5.764
 8664TIP3    H125937   5.535   6.329   5.721
 8664TIP3    H225938   5.414   6.415   5.695
 8665TIP3   OH225939   0.128   1.175   4.646
 8665TIP3    H125940   0.103   1.165   4.554
 8665TIP3    H225941   0.197   1.242   4.644
 8666TIP3   OH225942   5.213   5.481   0.648
 8666TIP3    H125943   5.285   5.444   0.597
 8666TIP3    H225944   5.166   5.537   0.586
 8667TIP3   OH225945   3.162   7.638   3.565
 8667TIP3    H125946   3.073   7.672   3.572
 8667TIP3    H225947   3.154   7.559   3.512
 8668TIP3   OH225948   7.989   7.349   0.078
 8668TIP3    H125949   7.959   7.439   0.093
 8668TIP3    H225950   8.071   7.359   0.030
 8669TIP3   OH225951   1.463   1.654   6.498
 8669TIP3    H125952   1.537   1.637   6.440
 8669TIP3    H225953   1.424   1.568   6.514
 8670TIP3   OH225954   4.808   4.062   5.152
 8670TIP3    H125955   4.849   4.139   5.113
 8670TIP3    H225956   4.880   3.999   5.162
 8671TIP3   OH225957   2.879   5.691   2.674
 8671TIP3    H125958   2.965   5.733   2.684
 8671TIP3    H225959   2.842   5.731   2.596
 8672TIP3   OH225960   0.435   1.220   6.249
 8672TIP3    H125961   0.469   1.296   6.297
 8672TIP3    H225962   0.500   1.152   6.265
 8673TIP3   OH225963   1.011   7.811   0.727
 8673TIP3    H125964   0.977   7.783   0.812
 8673TIP3    H225965   1.079   7.747   0.707
 8674TIP3   OH225966   1.724   4.410   3.480
 8674TIP3    H125967   1.819   4.418   3.491
 8674TIP3    H225968   1.713   4.356   3.403
 8675TIP3   OH225969   2.410   5.226   0.176
 8675TIP3    H125970   2.420   5.135   0.206
 8675TIP3    H225971   2.358   5.268   0.245
 8676TIP3   OH225972   2.152   6.404   0.767
 8676TIP3    H125973   2.179   6.377   0.855
 8676TIP3    H225974   2.057   6.403   0.769
 8677TIP3   OH225975   3.276   6.642   4.424
 8677TIP3    H125976   3.196   6.692   4.412
 8677TIP3    H225977   3.346   6.705   4.408
 8678TIP3   OH225978   6.715   3.446   1.445
 8678TIP3    H125979   6.690   3.488   1.363
 8678TIP3    H225980   6.735   3.518   1.504
 8679TIP3   OH225981   2.363   3.203   4.036
 8679TIP3    H125982   2.391   3.194   4.127
 8679TIP3    H225983   2.434   3.251   3.994
 8680TIP3   OH225984   6.239   2.600   5.722
 8680TIP3    H125985   6.208   2.509   5.719
 8680TIP3    H225986   6.334   2.591   5.731
 8681TIP3   OH225987   0.198   6.485   2.639
 8681TIP3    H125988   0.200   6.467   2.733
 8681TIP3    H225989   0.199   6.399   2.597
 8682TIP3   OH225990   1.870   2.177   4.165
 8682TIP3    H125991   1.797   2.183   4.227
 8682TIP3    H225992   1.848   2.104   4.108
 8683TIP3   OH225993   2.012   3.134   2.067
 8683TIP3    H125994   1.966   3.218   2.070
 8683TIP3    H225995   2.104   3.157   2.053
 8684TIP3   OH225996   7.125   5.949   1.841
 8684TIP3    H125997   7.067   5.953   1.917
 8684TIP3    H225998   7.081   6.000   1.774
 8685TIP3   OH225999   0.766   5.578   6.307
 8685TIP3    H126000   0.782   5.613   6.219
 8685TIP3    H226001   0.828   5.624   6.363
 8686TIP3   OH226002   4.390   0.273   0.174
 8686TIP3    H126003   4.406   0.353   0.125
 8686TIP3    H226004   4.476   0.230   0.179
 8687TIP3   OH226005   4.481   4.197   3.638
 8687TIP3    H126006   4.557   4.254   3.634
 8687TIP3    H226007   4.415   4.248   3.684
 8688TIP3   OH226008   1.629   3.820   1.924
 8688TIP3    H126009   1.594   3.731   1.931
 8688TIP3    H226010   1.717   3.814   1.962
 8689TIP3   OH226011   6.370   6.416   5.901
 8689TIP3    H126012   6.365   6.372   5.986
 8689TIP3    H226013   6.351   6.508   5.921
 8690TIP3   OH226014   7.006   1.352   3.336
 8690TIP3    H126015   7.056   1.414   3.389
 8690TIP3    H226016   6.920   1.392   3.326
 8691TIP3   OH226017   4.668   7.300   4.693
 8691TIP3    H126018   4.689   7.220   4.644
 8691TIP3    H226019   4.694   7.280   4.783
 8692TIP3   OH226020   6.455   4.187   0.363
 8692TIP3    H126021   6.397   4.262   0.371
 8692TIP3    H226022   6.531   4.210   0.416
 8693TIP3   OH226023   7.930   5.972   6.095
 8693TIP3    H126024   7.955   5.913   6.023
 8693TIP3    H226025   7.836   5.957   6.106
 8694TIP3   OH226026   3.277   7.045   4.941
 8694TIP3    H126027   3.291   7.139   4.943
 8694TIP3    H226028   3.285   7.021   4.848
 8695TIP3   OH226029   1.990   2.998   1.505
 8695TIP3    H126030   2.004   2.918   1.454
 8695TIP3    H226031   2.071   3.008   1.555
 8696TIP3   OH226032   3.852   3.215   1.166
 8696TIP3    H126033   3.924   3.232   1.106
 8696TIP3    H226034   3.889   3.155   1.231
 8697TIP3   OH226035   2.174   4.525   3.784
 8697TIP3    H126036   2.168   4.458   3.716
 8697TIP3    H226037   2.195   4.605   3.736
 8698TIP3   OH226038   5.693   7.180   4.578
 8698TIP3    H126039   5.648   7.110   4.531
 8698TIP3    H226040   5.624   7.243   4.599
 8699TIP3   OH226041   5.286   3.330   1.555
 8699TIP3    H126042   5.200   3.370   1.562
 8699TIP3    H226043   5.331   3.379   1.486
 8700TIP3   OH226044   5.743   6.578   4.129
 8700TIP3    H126045   5.731   6.671   4.110
 8700TIP3    H226046   5.659   6.538   4.107
 8701TIP3   OH226047   1.367   3.514   5.296
 8701TIP3    H126048   1.400   3.529   5.208
 8701TIP3    H226049   1.395   3.424   5.317
 8702TIP3   OH226050   1.829   6.981   3.343
 8702TIP3    H126051   1.775   6.917   3.390
 8702TIP3    H226052   1.788   7.065   3.361
 8703TIP3   OH226053   1.161   4.456   5.615
 8703TIP3    H126054   1.097   4.519   5.647
 8703TIP3    H226055   1.155   4.462   5.520
 8704TIP3   OH226056   0.471   2.005   0.269
 8704TIP3    H126057   0.404   1.995   0.201
 8704TIP3    H226058   0.545   2.047   0.225
 8705TIP3   OH226059   6.993   1.257   2.056
 8705TIP3    H126060   6.971   1.347   2.079
 8705TIP3    H226061   6.956   1.245   1.969
 8706TIP3   OH226062   2.508   2.120   6.635
 8706TIP3    H126063   2.461   2.181   6.577
 8706TIP3    H226064   2.492   2.034   6.597
 8707TIP3   OH226065   2.022   5.877   1.455
 8707TIP3    H126066   1.943   5.825   1.441
 8707TIP3    H226067   1.990   5.967   1.466
 8708TIP3   OH226068   3.786   4.614   1.041
 8708TIP3    H126069   3.829   4.644   0.962
 8708TIP3    H226070   3.698   4.589   1.013
 8709TIP3   OH226071   0.843   1.042   2.362
 8709TIP3    H126072   0.865   0.958   2.322
 8709TIP3    H226073   0.757   1.029   2.401
 8710TIP3   OH226074   6.589   5.483   6.631
 8710TIP3    H126075   6.540   5.477   6.713
 8710TIP3    H226076   6.681   5.478   6.658
 8711TIP3   OH226077   7.038   4.951   2.562
 8711TIP3    H126078   7.112   4.933   2.503
 8711TIP3    H226079   7.048   5.043   2.587
 8712TIP3   OH226080   6.650   2.405   4.300
 8712TIP3    H126081   6.567   2.360   4.314
 8712TIP3    H226082   6.643   2.485   4.353
 8713TIP3   OH226083   4.438   5.692   2.378
 8713TIP3    H126084   4.453   5.760   2.444
 8713TIP3    H226085   4.370   5.728   2.320
 8714TIP3   OH226086   7.095   0.256   2.679
 8714TIP3    H126087   7.023   0.319   2.679
 8714TIP3    H226088   7.059   0.178   2.637
 8715TIP3   OH226089   4.040   5.731   2.580
 8715TIP3    H126090   4.006   5.699   2.496
 8715TIP3    H226091   4.022   5.825   2.577
 8716TIP3   OH226092   3.727   3.299   4.743
 8716TIP3    H126093   3.670   3.311   4.819
 8716TIP3    H226094   3.812   3.275   4.780
 8717TIP3   OH226095   6.361   4.741   0.582
 8717TIP3    H126096   6.348   4.777   0.670
 8717TIP3    H226097   6.273   4.723   0.550
 8718TIP3   OH226098   3.626   3.680   6.650
 8718TIP3    H126099   3.664   3.643   6.570
 8718TIP3    H226100   3.532   3.676   6.637
 8719TIP3   OH226101   3.803   5.575   1.847
 8719TIP3    H126102   3.750   5.547   1.773
 8719TIP3    H226103   3.764   5.658   1.875
 8720TIP3   OH226104   1.164   2.918   6.731
 8720TIP3    H126105   1.226   2.899   6.802
 8720TIP3    H226106   1.171   3.013   6.718
 8721TIP3   OH226107   2.260   2.982   4.718
 8721TIP3    H126108   2.300   3.029   4.645
 8721TIP3    H226109   2.299   2.895   4.715
 8722TIP3   OH226110   5.416   4.752   2.305
 8722TIP3    H126111   5.406   4.657   2.293
 8722TIP3    H226112   5.394   4.789   2.219
 8723TIP3   OH226113   3.403   5.326   1.033
 8723TIP3    H126114   3.465   5.271   1.081
 8723TIP3    H226115   3.327   5.270   1.019
 8724TIP3   OH226116   7.248   0.653   4.586
 8724TIP3    H126117   7.169   0.602   4.569
 8724TIP3    H226118   7.224   0.743   4.563
 8725TIP3   OH226119   3.297   1.637   5.936
 8725TIP3    H126120   3.300   1.631   6.032
 8725TIP3    H226121   3.205   1.625   5.914
 8726TIP3   OH226122   4.134   0.349   5.112
 8726TIP3    H126123   4.177   0.290   5.051
 8726TIP3    H226124   4.040   0.338   5.094
 8727TIP3   OH226125   5.890   2.752   2.149
 8727TIP3    H126126   5.974   2.794   2.133
 8727TIP3    H226127   5.857   2.730   2.062
 8728TIP3   OH226128   5.797   5.651   4.523
 8728TIP3    H126129   5.791   5.730   4.577
 8728TIP3    H226130   5.794   5.683   4.433
 8729TIP3   OH226131   1.783   2.479   2.388
 8729TIP3    H126132   1.792   2.495   2.482
 8729TIP3    H226133   1.873   2.477   2.355
 8730TIP3   OH226134   1.795   4.997   5.228
 8730TIP3    H126135   1.867   5.056   5.252
 8730TIP3    H226136   1.780   5.016   5.135
 8731TIP3   OH226137   8.040   3.918   1.725
 8731TIP3    H126138   8.068   3.829   1.747
 8731TIP3    H226139   8.073   3.932   1.636
 8732TIP3   OH226140   8.146   5.794   3.027
 8732TIP3    H126141   8.226   5.790   2.975
 8732TIP3    H226142   8.168   5.853   3.100
 8733TIP3   OH226143   6.248   3.297   5.659
 8733TIP3    H126144   6.326   3.264   5.703
 8733TIP3    H226145   6.281   3.365   5.599
 8734TIP3   OH226146   6.419   5.953   6.721
 8734TIP3    H126147   6.481   5.885   6.747
 8734TIP3    H226148   6.334   5.910   6.722
 8735TIP3   OH226149   7.131   5.281   0.508
 8735TIP3    H126150   7.151   5.233   0.428
 8735TIP3    H226151   7.217   5.297   0.548
 8736TIP3   OH226152   7.382   3.056   3.839
 8736TIP3    H126153   7.447   3.107   3.791
 8736TIP3    H226154   7.378   2.972   3.793
 8737TIP3   OH226155   0.963   1.763   6.697
 8737TIP3    H126156   0.969   1.849   6.739
 8737TIP3    H226157   0.950   1.782   6.605
 8738TIP3   OH226158   1.413   0.977   5.332
 8738TIP3    H126159   1.344   0.981   5.265
 8738TIP3    H226160   1.365   0.962   5.414
 8739TIP3   OH226161   5.312   0.039   1.556
 8739TIP3    H126162   5.356   0.046   1.471
 8739TIP3    H226163   5.378   0.069   1.618
 8740TIP3   OH226164   7.628   1.780   1.126
 8740TIP3    H126165   7.666   1.858   1.086
 8740TIP3    H226166   7.543   1.771   1.083
 8741TIP3   OH226167   6.923   4.947   1.823
 8741TIP3    H126168   6.838   4.913   1.852
 8741TIP3    H226169   6.959   4.991   1.899
 8742TIP3   OH226170   5.058   2.832   5.474
 8742TIP3    H126171   5.051   2.757   5.532
 8742TIP3    H226172   5.122   2.890   5.516
 8743TIP3   OH226173   0.094   0.756   4.887
 8743TIP3    H126174   0.075   0.847   4.910
 8743TIP3    H226175   0.165   0.762   4.823
 8744TIP3   OH226176   4.781   5.585   2.997
 8744TIP3    H126177   4.846   5.630   2.945
 8744TIP3    H226178   4.697   5.615   2.963
 8745TIP3   OH226179   4.082   3.130   5.289
 8745TIP3    H126180   4.016   3.061   5.286
 8745TIP3    H226181   4.166   3.083   5.289
 8746TIP3   OH226182   0.677   6.227   5.173
 8746TIP3    H126183   0.725   6.215   5.091
 8746TIP3    H226184   0.647   6.318   5.171
 8747TIP3   OH226185   6.451   2.424   1.599
 8747TIP3    H126186   6.492   2.460   1.520
 8747TIP3    H226187   6.430   2.333   1.576
 8748TIP3   OH226188   4.701   5.103   5.039
 8748TIP3    H126189   4.716   5.151   4.957
 8748TIP3    H226190   4.788   5.090   5.076
 8749TIP3   OH226191   6.510   2.681   4.254
 8749TIP3    H126192   6.531   2.656   4.345
 8749TIP3    H226193   6.427   2.727   4.260
 8750TIP3   OH226194   3.217   3.884   3.924
 8750TIP3    H126195   3.243   3.806   3.973
 8750TIP3    H226196   3.124   3.894   3.943
 8751TIP3   OH226197   4.201   1.911   6.313
 8751TIP3    H126198   4.238   1.824   6.295
 8751TIP3    H226199   4.133   1.921   6.246
 8752TIP3   OH226200   8.140   0.921   1.851
 8752TIP3    H126201   8.175   0.908   1.940
 8752TIP3    H226202   8.111   0.834   1.824
 8753TIP3   OH226203   3.012   1.506   0.380
 8753TIP3    H126204   2.993   1.424   0.334
 8753TIP3    H226205   2.926   1.546   0.394
 8754TIP3   OH226206   5.131   5.602   5.155
 8754TIP3    H126207   5.177   5.627   5.235
 8754TIP3    H226208   5.168   5.518   5.131
 8755TIP3   OH226209   1.494   3.294   5.364
 8755TIP3    H126210   1.439   3.239   5.420
 8755TIP3    H226211   1.573   3.309   5.415
 8756TIP3   OH226212   6.663   0.113   0.113
 8756TIP3    H126213   6.742   0.124   0.167
 8756TIP3    H226214   6.678   0.033   0.064
 8757TIP3   OH226215   4.215   2.727   2.482
 8757TIP3    H126216   4.298   2.712   2.528
 8757TIP3    H226217   4.155   2.758   2.549
 8758TIP3   OH226218   5.892   1.620   2.989
 8758TIP3    H126219   5.830   1.652   3.054
 8758TIP3    H226220   5.973   1.603   3.038
 8759TIP3   OH226221   2.226   3.145   5.842
 8759TIP3    H126222   2.280   3.165   5.766
 8759TIP3    H226223   2.178   3.066   5.817
 8760TIP3   OH226224   7.776   2.389   5.060
 8760TIP3    H126225   7.760   2.445   5.137
 8760TIP3    H226226   7.848   2.332   5.087
 8761TIP3   OH226227   4.253   2.230   4.166
 8761TIP3    H126228   4.186   2.215   4.234
 8761TIP3    H226229   4.335   2.239   4.215
 8762TIP3   OH226230   4.288   1.434   4.853
 8762TIP3    H126231   4.241   1.478   4.924
 8762TIP3    H226232   4.224   1.426   4.783
 8763TIP3   OH226233   2.766   4.856   6.656
 8763TIP3    H126234   2.751   4.789   6.723
 8763TIP3    H226235   2.678   4.879   6.626
 8764TIP3   OH226236   6.358   0.700   0.644
 8764TIP3    H126237   6.325   0.790   0.651
 8764TIP3    H226238   6.450   0.710   0.617
 8765TIP3   OH226239   5.843   0.192   5.193
 8765TIP3    H126240   5.784   0.176   5.266
 8765TIP3    H226241   5.876   0.281   5.207
 8766TIP3   OH226242   7.691   7.833   4.504
 8766TIP3    H126243   7.775   7.789   4.492
 8766TIP3    H226244   7.649   7.785   4.576
 8767TIP3   OH226245   2.691   6.308   2.992
 8767TIP3    H126246   2.705   6.403   2.983
 8767TIP3    H226247   2.765   6.279   3.045
 8768TIP3   OH226248   5.227   0.102   3.999
 8768TIP3    H126249   5.251   0.019   4.040
 8768TIP3    H226250   5.309   0.151   3.994
 8769TIP3   OH226251   3.892   3.803   3.321
 8769TIP3    H126252   3.888   3.895   3.296
 8769TIP3    H226253   3.895   3.803   3.417
 8770TIP3   OH226254   5.609   3.140   3.589
 8770TIP3    H126255   5.605   3.208   3.656
 8770TIP3    H226256   5.575   3.182   3.510
 8771TIP3   OH226257   6.220   7.358   5.222
 8771TIP3    H126258   6.229   7.273   5.179
 8771TIP3    H226259   6.125   7.373   5.226
 8772TIP3   OH226260   2.829   1.240   1.618
 8772TIP3    H126261   2.879   1.321   1.626
 8772TIP3    H226262   2.778   1.252   1.537
 8773TIP3   OH226263   3.022   0.198   1.553
 8773TIP3    H126264   3.094   0.253   1.583
 8773TIP3    H226265   3.054   0.108   1.564
 8774TIP3   OH226266   2.842   4.898   5.631
 8774TIP3    H126267   2.757   4.881   5.591
 8774TIP3    H226268   2.842   4.992   5.650
 8775TIP3   OH226269   4.364   0.205   0.886
 8775TIP3    H126270   4.413   0.267   0.831
 8775TIP3    H226271   4.344   0.132   0.828
 8776TIP3   OH226272   6.546   1.974   3.350
 8776TIP3    H126273   6.480   2.011   3.292
 8776TIP3    H226274   6.517   1.884   3.365
 8777TIP3   OH226275   7.533   0.122   4.296
 8777TIP3    H126276   7.586   0.200   4.281
 8777TIP3    H226277   7.591   0.062   4.342
 8778TIP3   OH226278   1.084   1.567   1.942
 8778TIP3    H126279   1.171   1.560   1.904
 8778TIP3    H226280   1.028   1.596   1.870
 8779TIP3   OH226281   1.097   2.637   5.460
 8779TIP3    H126282   1.147   2.657   5.540
 8779TIP3    H226283   1.162   2.600   5.400
 8780TIP3   OH226284   6.559   1.760   3.853
 8780TIP3    H126285   6.540   1.805   3.936
 8780TIP3    H226286   6.559   1.830   3.788
 8781TIP3   OH226287   5.881   2.502   4.909
 8781TIP3    H126288   5.936   2.535   4.838
 8781TIP3    H226289   5.857   2.414   4.880
 8782TIP3   OH226290   7.032   1.617   0.325
 8782TIP3    H126291   7.119   1.586   0.299
 8782TIP3    H226292   7.034   1.711   0.309
 8783TIP3   OH226293   3.206   2.048   5.053
 8783TIP3    H126294   3.179   2.056   4.962
 8783TIP3    H226295   3.297   2.079   5.054
 8784TIP3   OH226296   2.053   4.101   0.090
 8784TIP3    H126297   2.114   4.157   0.042
 8784TIP3    H226298   2.023   4.037   0.027
 8785TIP3   OH226299   3.575   6.352   4.535
 8785TIP3    H126300   3.624   6.348   4.618
 8785TIP3    H226301   3.584   6.264   4.498
 8786TIP3   OH226302   7.387   0.609   4.010
 8786TIP3    H126303   7.409   0.528   3.964
 8786TIP3    H226304   7.471   0.651   4.029
 8787TIP3   OH226305   1.563   7.609   0.541
 8787TIP3    H126306   1.493   7.565   0.492
 8787TIP3    H226307   1.630   7.543   0.553
 8788TIP3   OH226308   2.658   3.639   0.693
 8788TIP3    H126309   2.578   3.644   0.641
 8788TIP3    H226310   2.676   3.730   0.718
 8789TIP3   OH226311   0.975   4.573   5.778
 8789TIP3    H126312   0.897   4.582   5.723
 8789TIP3    H226313   0.946   4.517   5.850
 8790TIP3   OH226314   8.162   3.796   3.790
 8790TIP3    H126315   8.248   3.777   3.751
 8790TIP3    H226316   8.103   3.733   3.749
 8791TIP3   OH226317   0.556   3.917   6.128
 8791TIP3    H126318   0.493   3.979   6.166
 8791TIP3    H226319   0.553   3.935   6.034
 8792TIP3   OH226320   1.803   1.767   0.731
 8792TIP3    H126321   1.716   1.804   0.716
 8792TIP3    H226322   1.863   1.829   0.690
 8793TIP3   OH226323   5.880   0.111   6.238
 8793TIP3    H126324   5.944   0.044   6.264
 8793TIP3    H226325   5.818   0.064   6.183
 8794TIP3   OH226326   2.978   5.598   0.746
 8794TIP3    H126327   3.039   5.646   0.691
 8794TIP3    H226328   3.031   5.527   0.783
 8795TIP3   OH226329   3.945   2.658   2.230
 8795TIP3    H126330   3.870   2.635   2.285
 8795TIP3    H226331   3.918   2.635   2.141
 8796TIP3   OH226332   7.753   2.435   4.576
 8796TIP3    H126333   7.746   2.438   4.481
 8796TIP3    H226334   7.766   2.527   4.602
 8797TIP3   OH226335   5.722   1.089   4.524
 8797TIP3    H126336   5.648   1.076   4.583
 8797TIP3    H226337   5.755   1.000   4.506
 8798TIP3   OH226338   6.450   1.640   1.770
 8798TIP3    H126339   6.371   1.690   1.788
 8798TIP3    H226340   6.419   1.559   1.729
 8799TIP3   OH226341   1.462   6.620   3.546
 8799TIP3    H126342   1.455   6.585   3.635
 8799TIP3    H226343   1.542   6.581   3.511
 8800TIP3   OH226344   5.976   1.780   4.203
 8800TIP3    H126345   6.054   1.812   4.248
 8800TIP3    H226346   5.916   1.854   4.202
 8801TIP3   OH226347   5.377   7.571   2.040
 8801TIP3    H126348   5.421   7.610   2.115
 8801TIP3    H226349   5.381   7.477   2.056
 8802TIP3   OH226350   6.476   6.296   3.709
 8802TIP3    H126351   6.555   6.295   3.762
 8802TIP3    H226352   6.506   6.320   3.621
 8803TIP3   OH226353   0.156   3.509   4.535
 8803TIP3    H126354   0.127   3.429   4.491
 8803TIP3    H226355   0.230   3.540   4.483
 8804TIP3   OH226356   5.260   0.381   1.612
 8804TIP3    H126357   5.331   0.319   1.594
 8804TIP3    H226358   5.254   0.435   1.532
 8805TIP3   OH226359   1.352   1.656   6.105
 8805TIP3    H126360   1.346   1.706   6.024
 8805TIP3    H226361   1.337   1.720   6.174
 8806TIP3   OH226362   7.090   2.553   6.545
 8806TIP3    H126363   6.998   2.558   6.568
 8806TIP3    H226364   7.091   2.557   6.450
 8807TIP3   OH226365   0.555   1.157   6.704
 8807TIP3    H126366   0.589   1.221   6.642
 8807TIP3    H226367   0.621   1.088   6.706
 8808TIP3   OH226368   7.048   1.400   4.291
 8808TIP3    H126369   7.127   1.416   4.343
 8808TIP3    H226370   6.980   1.453   4.333
 8809TIP3   OH226371   1.680   2.945   4.272
 8809TIP3    H126372   1.687   3.036   4.302
 8809TIP3    H226373   1.736   2.896   4.332
 8810TIP3   OH226374   1.379   5.784   5.192
 8810TIP3    H126375   1.457   5.775   5.245
 8810TIP3    H226376   1.309   5.743   5.244
 8811TIP3   OH226377   4.991   2.232   5.235
 8811TIP3    H126378   5.021   2.318   5.263
 8811TIP3    H226379   5.017   2.226   5.143
 8812TIP3   OH226380   6.536   7.634   1.736
 8812TIP3    H126381   6.463   7.572   1.741
 8812TIP3    H226382   6.520   7.683   1.655
 8813TIP3   OH226383   8.176   1.511   0.296
 8813TIP3    H126384   8.231   1.579   0.259
 8813TIP3    H226385   8.107   1.558   0.344
 8814TIP3   OH226386   6.053   4.993   2.749
 8814TIP3    H126387   6.108   4.922   2.782
 8814TIP3    H226388   6.115   5.057   2.715
 8815TIP3   OH226389   6.315   5.910   4.570
 8815TIP3    H126390   6.307   5.974   4.499
 8815TIP3    H226391   6.251   5.842   4.548
 8816TIP3   OH226392   6.264   0.693   3.234
 8816TIP3    H126393   6.237   0.734   3.316
 8816TIP3    H226394   6.256   0.599   3.250
 8817TIP3   OH226395   5.778   0.851   5.777
 8817TIP3    H126396   5.820   0.930   5.743
 8817TIP3    H226397   5.777   0.863   5.872
 8818TIP3   OH226398   0.196   7.552   5.479
 8818TIP3    H126399   0.140   7.615   5.524
 8818TIP3    H226400   0.215   7.593   5.394
 8819TIP3   OH226401   4.379   6.716   1.700
 8819TIP3    H126402   4.349   6.803   1.727
 8819TIP3    H226403   4.303   6.677   1.656
 8820TIP3   OH226404   6.180   0.678   1.501
 8820TIP3    H126405   6.221   0.756   1.539
 8820TIP3    H226406   6.142   0.632   1.576
 8821TIP3   OH226407   5.089   2.061   5.630
 8821TIP3    H126408   5.050   2.147   5.644
 8821TIP3    H226409   5.112   2.030   5.717
 8822TIP3   OH226410   7.105   1.507   6.754
 8822TIP3    H126411   7.192   1.534   6.723
 8822TIP3    H226412   7.118   1.419   6.788
 8823TIP3   OH226413   6.292   4.787   2.139
 8823TIP3    H126414   6.214   4.749   2.179
 8823TIP3    H226415   6.341   4.711   2.107
 8824TIP3   OH226416   3.546   5.265   5.695
 8824TIP3    H126417   3.519   5.343   5.743
 8824TIP3    H226418   3.641   5.261   5.706
 8825TIP3   OH226419   6.673   5.244   2.788
 8825TIP3    H126420   6.616   5.262   2.713
 8825TIP3    H226421   6.737   5.315   2.787
 8826TIP3   OH226422   2.748   5.842   2.471
 8826TIP3    H126423   2.817   5.908   2.482
 8826TIP3    H226424   2.698   5.873   2.395
 8827TIP3   OH226425   1.555   3.536   1.114
 8827TIP3    H126426   1.610   3.609   1.142
 8827TIP3    H226427   1.584   3.462   1.168
 8828TIP3   OH226428   6.878   6.350   3.640
 8828TIP3    H126429   6.929   6.302   3.704
 8828TIP3    H226430   6.942   6.375   3.572
 8829TIP3   OH226431   1.801   6.695   0.697
 8829TIP3    H126432   1.868   6.749   0.655
 8829TIP3    H226433   1.736   6.679   0.629
 8830TIP3   OH226434   1.343   0.267   0.532
 8830TIP3    H126435   1.381   0.226   0.609
 8830TIP3    H226436   1.297   0.344   0.565
 8831TIP3   OH226437   6.743   4.092   4.005
 8831TIP3    H126438   6.818   4.149   4.017
 8831TIP3    H226439   6.681   4.118   4.073
 8832TIP3   OH226440   7.539   2.401   6.471
 8832TIP3    H126441   7.534   2.493   6.448
 8832TIP3    H226442   7.515   2.398   6.564
 8833TIP3   OH226443   3.856   5.167   1.619
 8833TIP3    H126444   3.907   5.248   1.614
 8833TIP3    H226445   3.815   5.159   1.533
 8834TIP3   OH226446   3.500   4.391   4.899
 8834TIP3    H126447   3.441   4.323   4.866
 8834TIP3    H226448   3.474   4.470   4.853
 8835TIP3   OH226449   5.913   2.094   5.706
 8835TIP3    H126450   5.901   2.165   5.643
 8835TIP3    H226451   5.834   2.041   5.697
 8836TIP3   OH226452   5.515   7.302   1.427
 8836TIP3    H126453   5.517   7.279   1.334
 8836TIP3    H226454   5.545   7.392   1.431
 8837TIP3   OH226455   6.562   5.653   1.269
 8837TIP3    H126456   6.467   5.642   1.271
 8837TIP3    H226457   6.595   5.591   1.334
 8838TIP3   OH226458   5.013   5.552   1.238
 8838TIP3    H126459   5.031   5.501   1.158
 8838TIP3    H226460   4.955   5.622   1.208
 8839TIP3   OH226461   7.173   0.263   3.451
 8839TIP3    H126462   7.160   0.212   3.531
 8839TIP3    H226463   7.243   0.218   3.404
 8840TIP3   OH226464   0.665   3.428   2.300
 8840TIP3    H126465   0.744   3.441   2.351
 8840TIP3    H226466   0.617   3.359   2.345
 8841TIP3   OH226467   3.987   6.935   2.639
 8841TIP3    H126468   4.032   6.984   2.708
 8841TIP3    H226469   3.909   6.986   2.620
 8842TIP3   OH226470   3.464   0.010   4.012
 8842TIP3    H126471   3.471   0.105   4.019
 8842TIP3    H226472   3.530  -0.014   3.946
 8843TIP3   OH226473   6.320   7.441   1.642
 8843TIP3    H126474   6.372   7.378   1.690
 8843TIP3    H226475   6.230   7.407   1.646
 8844TIP3   OH226476   7.670   6.594   4.866
 8844TIP3    H126477   7.611   6.591   4.791
 8844TIP3    H226478   7.648   6.677   4.909
 8845TIP3   OH226479   6.916   4.768   0.921
 8845TIP3    H126480   6.872   4.844   0.960
 8845TIP3    H226481   6.984   4.807   0.865
 8846TIP3   OH226482   2.471   2.802   6.624
 8846TIP3    H126483   2.506   2.753   6.550
 8846TIP3    H226484   2.520   2.770   6.699
 8847TIP3   OH226485   2.610   5.421   5.489
 8847TIP3    H126486   2.656   5.495   5.527
 8847TIP3    H226487   2.676   5.352   5.481
 8848TIP3   OH226488   2.202   1.998   4.404
 8848TIP3    H126489   2.166   2.030   4.486
 8848TIP3    H226490   2.184   2.067   4.341
 8849TIP3   OH226491   4.832   6.473   2.834
 8849TIP3    H126492   4.804   6.383   2.819
 8849TIP3    H226493   4.826   6.514   2.748
 8850TIP3   OH226494   2.316   0.913   2.475
 8850TIP3    H126495   2.369   0.990   2.453
 8850TIP3    H226496   2.359   0.876   2.552
 8851TIP3   OH226497   1.576   0.271   2.605
 8851TIP3    H126498   1.544   0.236   2.688
 8851TIP3    H226499   1.626   0.348   2.629
 8852TIP3   OH226500   3.231   0.656   3.967
 8852TIP3    H126501   3.164   0.615   4.021
 8852TIP3    H226502   3.206   0.634   3.877
 8853TIP3   OH226503   0.599   6.111   4.889
 8853TIP3    H126504   0.592   6.183   4.825
 8853TIP3    H226505   0.683   6.070   4.869
 8854TIP3   OH226506   4.977   0.213   5.378
 8854TIP3    H126507   4.920   0.222   5.455
 8854TIP3    H226508   5.020   0.128   5.391
 8855TIP3   OH226509   7.944   3.056   4.347
 8855TIP3    H126510   7.859   3.072   4.306
 8855TIP3    H226511   7.947   3.117   4.420
 8856TIP3   OH226512   6.536   0.281   5.143
 8856TIP3    H126513   6.473   0.223   5.100
 8856TIP3    H226514   6.488   0.314   5.220
 8857TIP3   OH226515   3.645   2.985   5.790
 8857TIP3    H126516   3.592   2.905   5.802
 8857TIP3    H226517   3.595   3.037   5.728
 8858TIP3   OH226518   1.273   2.704   2.987
 8858TIP3    H126519   1.210   2.637   2.960
 8858TIP3    H226520   1.356   2.677   2.947
 8859TIP3   OH226521   3.942   2.796   6.217
 8859TIP3    H126522   3.928   2.783   6.311
 8859TIP3    H226523   4.037   2.804   6.207
 8860TIP3   OH226524   0.692   2.525   5.777
 8860TIP3    H126525   0.633   2.516   5.852
 8860TIP3    H226526   0.635   2.519   5.701
 8861TIP3   OH226527   0.170   1.675   6.093
 8861TIP3    H126528   0.075   1.686   6.097
 8861TIP3    H226529   0.183   1.615   6.019
 8862TIP3   OH226530   5.551   2.759   3.350
 8862TIP3    H126531   5.520   2.753   3.260
 8862TIP3    H226532   5.488   2.817   3.393
 8863TIP3   OH226533   4.309   6.916   1.391
 8863TIP3    H126534   4.344   6.841   1.345
 8863TIP3    H226535   4.214   6.908   1.383
 8864TIP3   OH226536   6.019   7.210   2.050
 8864TIP3    H126537   6.085   7.141   2.061
 8864TIP3    H226538   6.070   7.290   2.044
 8865TIP3   OH226539   4.779   0.799   0.119
 8865TIP3    H126540   4.830   0.756   0.051
 8865TIP3    H226541   4.819   0.771   0.201
 8866TIP3   OH226542   1.879   0.458   5.098
 8866TIP3    H126543   1.881   0.500   5.013
 8866TIP3    H226544   1.874   0.364   5.079
 8867TIP3   OH226545   2.414   6.372   3.132
 8867TIP3    H126546   2.476   6.424   3.081
 8867TIP3    H226547   2.402   6.422   3.213
 8868TIP3   OH226548   6.175   0.621   6.190
 8868TIP3    H126549   6.258   0.591   6.228
 8868TIP3    H226550   6.133   0.671   6.260
 8869TIP3   OH226551   2.190   2.562   1.357
 8869TIP3    H126552   2.149   2.632   1.306
 8869TIP3    H226553   2.188   2.593   1.447
 8870TIP3   OH226554   7.981   4.197   5.164
 8870TIP3    H126555   7.920   4.157   5.103
 8870TIP3    H226556   7.928   4.221   5.240
 8871TIP3   OH226557   3.041   3.557   4.216
 8871TIP3    H126558   3.065   3.562   4.308
 8871TIP3    H226559   3.087   3.480   4.183
 8872TIP3   OH226560   1.087   1.721   2.208
 8872TIP3    H126561   1.086   1.741   2.115
 8872TIP3    H226562   1.033   1.643   2.217
 8873TIP3   OH226563   2.583   6.614   6.518
 8873TIP3    H126564   2.581   6.581   6.608
 8873TIP3    H226565   2.575   6.536   6.463
 8874TIP3   OH226566   0.894   2.709   1.477
 8874TIP3    H126567   0.821   2.649   1.466
 8874TIP3    H226568   0.862   2.792   1.442
 8875TIP3   OH226569   5.179   2.019   0.750
 8875TIP3    H126570   5.119   1.944   0.747
 8875TIP3    H226571   5.259   1.987   0.708
 8876TIP3   OH226572   2.718   3.782   6.407
 8876TIP3    H126573   2.720   3.817   6.317
 8876TIP3    H226574   2.807   3.752   6.422
 8877TIP3   OH226575   7.895   5.002   3.482
 8877TIP3    H126576   7.817   5.047   3.450
 8877TIP3    H226577   7.921   4.944   3.411
 8878TIP3   OH226578   6.359   0.722   4.133
 8878TIP3    H126579   6.420   0.661   4.092
 8878TIP3    H226580   6.277   0.673   4.140
 8879TIP3   OH226581   8.001   7.044   4.092
 8879TIP3    H126582   8.019   6.950   4.096
 8879TIP3    H226583   8.083   7.084   4.063
 8880TIP3   OH226584   0.558   6.892   0.956
 8880TIP3    H126585   0.635   6.949   0.949
 8880TIP3    H226586   0.581   6.827   1.022
 8881TIP3   OH226587   7.561   2.649   3.539
 8881TIP3    H126588   7.576   2.593   3.615
 8881TIP3    H226589   7.483   2.612   3.497
 8882TIP3   OH226590   7.305   2.067   5.718
 8882TIP3    H126591   7.382   2.097   5.670
 8882TIP3    H226592   7.276   1.989   5.671
 8883TIP3   OH226593   3.185   5.972   1.568
 8883TIP3    H126594   3.156   6.056   1.535
 8883TIP3    H226595   3.157   5.908   1.502
 8884TIP3   OH226596   6.459   7.753   4.878
 8884TIP3    H126597   6.420   7.823   4.824
 8884TIP3    H226598   6.474   7.794   4.963
 8885TIP3   OH226599   4.158   6.557   1.632
 8885TIP3    H126600   4.220   6.493   1.597
 8885TIP3    H226601   4.089   6.503   1.671
 8886TIP3   OH226602   7.263   2.449   6.263
 8886TIP3    H126603   7.285   2.542   6.266
 8886TIP3    H226604   7.343   2.407   6.231
 8887TIP3   OH226605   7.694   0.387   4.322
 8887TIP3    H126606   7.769   0.360   4.375
 8887TIP3    H226607   7.634   0.427   4.384
 8888TIP3   OH226608   5.555   0.546   1.471
 8888TIP3    H126609   5.570   0.478   1.405
 8888TIP3    H226610   5.633   0.544   1.526
 8889TIP3   OH226611   4.700   5.300   4.830
 8889TIP3    H126612   4.767   5.268   4.768
 8889TIP3    H226613   4.739   5.378   4.869
 8890TIP3   OH226614   1.325   7.501   4.125
 8890TIP3    H126615   1.234   7.489   4.098
 8890TIP3    H226616   1.364   7.552   4.055
 8891TIP3   OH226617   1.987   0.735   4.083
 8891TIP3    H126618   2.035   0.720   4.164
 8891TIP3    H226619   2.016   0.665   4.024
 8892TIP3   OH226620   3.519   1.583   0.952
 8892TIP3    H126621   3.505   1.565   0.859
 8892TIP3    H226622   3.437   1.559   0.994
 8893TIP3   OH226623   4.789   3.752   4.033
 8893TIP3    H126624   4.736   3.789   3.962
 8893TIP3    H226625   4.827   3.673   3.995
 8894TIP3   OH226626   7.204   0.506   6.238
 8894TIP3    H126627   7.206   0.411   6.252
 8894TIP3    H226628   7.111   0.527   6.235
 8895TIP3   OH226629   7.770   2.839   0.473
 8895TIP3    H126630   7.862   2.864   0.469
 8895TIP3    H226631   7.751   2.831   0.567
 8896TIP3   OH226632   1.392   5.696   2.038
 8896TIP3    H126633   1.440   5.688   2.121
 8896TIP3    H226634   1.406   5.787   2.012
 8897TIP3   OH226635   0.051   2.722   5.991
 8897TIP3    H126636  -0.016   2.764   5.936
 8897TIP3    H226637   0.107   2.675   5.929
 8898TIP3   OH226638   2.977   0.038   0.386
 8898TIP3    H126639   3.015   0.057   0.472
 8898TIP3    H226640   3.052   0.012   0.332
 8899TIP3   OH226641   7.535   1.203   0.814
 8899TIP3    H126642   7.630   1.194   0.807
 8899TIP3    H226643   7.501   1.141   0.749
 8900TIP3   OH226644   6.088   1.466   4.452
 8900TIP3    H126645   6.112   1.543   4.504
 8900TIP3    H226646   5.994   1.458   4.464
 8901TIP3   OH226647   2.681   7.338   5.672
 8901TIP3    H126648   2.698   7.250   5.638
 8901TIP3    H226649   2.757   7.390   5.643
 8902TIP3   OH226650   1.791   5.512   4.204
 8902TIP3    H126651   1.848   5.587   4.187
 8902TIP3    H226652   1.842   5.436   4.179
 8903TIP3   OH226653   2.266   2.116   2.574
 8903TIP3    H126654   2.271   2.023   2.549
 8903TIP3    H226655   2.335   2.158   2.523
 8904TIP3   OH226656   0.615   3.997   0.286
 8904TIP3    H126657   0.692   3.947   0.256
 8904TIP3    H226658   0.599   4.060   0.216
 8905TIP3   OH226659   6.951   0.740   4.761
 8905TIP3    H126660   6.966   0.684   4.685
 8905TIP3    H226661   6.906   0.817   4.727
 8906TIP3   OH226662   3.692   6.074   5.974
 8906TIP3    H126663   3.773   6.124   5.982
 8906TIP3    H226664   3.652   6.079   6.061
 8907TIP3   OH226665   6.645   6.028   6.250
 8907TIP3    H126666   6.623   5.944   6.211
 8907TIP3    H226667   6.739   6.039   6.232
 8908TIP3   OH226668   4.401   5.172   0.820
 8908TIP3    H126669   4.390   5.224   0.900
 8908TIP3    H226670   4.315   5.173   0.778
 8909TIP3   OH226671   2.466   5.379   5.258
 8909TIP3    H126672   2.533   5.402   5.322
 8909TIP3    H226673   2.391   5.434   5.282
 8910TIP3   OH226674   0.032   2.216   1.839
 8910TIP3    H126675   0.004   2.304   1.813
 8910TIP3    H226676  -0.015   2.158   1.779
 8911TIP3   OH226677   0.817   2.724   3.649
 8911TIP3    H126678   0.789   2.646   3.602
 8911TIP3    H226679   0.781   2.797   3.598
 8912TIP3   OH226680   0.465   5.231   5.180
 8912TIP3    H126681   0.429   5.143   5.169
 8912TIP3    H226682   0.420   5.266   5.257
 8913TIP3   OH226683   2.241   7.667   3.098
 8913TIP3    H126684   2.163   7.721   3.087
 8913TIP3    H226685   2.268   7.646   3.009
 8914TIP3   OH226686   2.794   4.747   1.088
 8914TIP3    H126687   2.723   4.769   1.149
 8914TIP3    H226688   2.851   4.689   1.138
 8915TIP3   OH226689   6.858   2.262   3.465
 8915TIP3    H126690   6.781   2.244   3.411
 8915TIP3    H226691   6.835   2.341   3.515
 8916TIP3   OH226692   1.755   3.346   1.557
 8916TIP3    H126693   1.728   3.262   1.594
 8916TIP3    H226694   1.682   3.405   1.577
 8917TIP3   OH226695   1.267   2.848   2.611
 8917TIP3    H126696   1.293   2.767   2.653
 8917TIP3    H226697   1.175   2.835   2.588
 8918TIP3   OH226698   5.015   1.414   0.687
 8918TIP3    H126699   5.057   1.432   0.603
 8918TIP3    H226700   5.011   1.499   0.731
 8919TIP3   OH226701   0.717   5.205   6.470
 8919TIP3    H126702   0.734   5.257   6.549
 8919TIP3    H226703   0.775   5.243   6.403
 8920TIP3   OH226704   2.604   7.220   5.378
 8920TIP3    H126705   2.584   7.127   5.387
 8920TIP3    H226706   2.686   7.222   5.329
 8921TIP3   OH226707   3.115   0.563   5.764
 8921TIP3    H126708   3.119   0.484   5.817
 8921TIP3    H226709   3.026   0.596   5.776
 8922TIP3   OH226710   4.165   2.135   3.136
 8922TIP3    H126711   4.194   2.204   3.195
 8922TIP3    H226712   4.180   2.170   3.048
 8923TIP3   OH226713   6.463   5.752   0.966
 8923TIP3    H126714   6.377   5.732   1.004
 8923TIP3    H226715   6.467   5.847   0.964
 8924TIP3   OH226716   2.716   1.772   5.259
 8924TIP3    H126717   2.792   1.723   5.291
 8924TIP3    H226718   2.753   1.838   5.201
 8925TIP3   OH226719   7.932   3.502   1.597
 8925TIP3    H126720   8.007   3.556   1.573
 8925TIP3    H226721   7.922   3.441   1.524
 8926TIP3   OH226722   1.935   2.901   3.854
 8926TIP3    H126723   1.935   2.888   3.949
 8926TIP3    H226724   2.002   2.969   3.840
 8927TIP3   OH226725   6.871   1.837   5.754
 8927TIP3    H126726   6.868   1.759   5.810
 8927TIP3    H226727   6.786   1.880   5.767
 8928TIP3   OH226728   6.399   3.543   1.742
 8928TIP3    H126729   6.314   3.509   1.771
 8928TIP3    H226730   6.461   3.473   1.759
 8929TIP3   OH226731   1.604   3.948   6.766
 8929TIP3    H126732   1.571   4.038   6.769
 8929TIP3    H226733   1.688   3.954   6.722
 8930TIP3   OH226734   4.902   3.151   0.844
 8930TIP3    H126735   4.912   3.190   0.757
 8930TIP3    H226736   4.819   3.104   0.840
 8931TIP3   OH226737   2.142   3.779   5.542
 8931TIP3    H126738   2.150   3.688   5.571
 8931TIP3    H226739   2.233   3.810   5.536
 8932TIP3   OH226740   4.665   1.769   5.931
 8932TIP3    H126741   4.613   1.718   5.869
 8932TIP3    H226742   4.751   1.727   5.930
 8933TIP3   OH226743   4.886   4.756   4.246
 8933TIP3    H126744   4.973   4.749   4.285
 8933TIP3    H226745   4.828   4.772   4.320
 8934TIP3   OH226746   1.914   2.193   6.307
 8934TIP3    H126747   1.879   2.113   6.346
 8934TIP3    H226748   1.915   2.175   6.213
 8935TIP3   OH226749   0.362   3.080   5.263
 8935TIP3    H126750   0.425   3.056   5.195
 8935TIP3    H226751   0.358   3.004   5.320
 8936TIP3   OH226752   4.365   5.458   2.102
 8936TIP3    H126753   4.410   5.488   2.180
 8936TIP3    H226754   4.273   5.475   2.119
 8937TIP3   OH226755   7.184   0.296   2.262
 8937TIP3    H126756   7.197   0.229   2.329
 8937TIP3    H226757   7.134   0.252   2.193
 8938TIP3   OH226758   1.118   7.069   2.614
 8938TIP3    H126759   1.145   7.161   2.623
 8938TIP3    H226760   1.147   7.027   2.695
 8939TIP3   OH226761   6.177   4.335   4.084
 8939TIP3    H126762   6.204   4.259   4.136
 8939TIP3    H226763   6.130   4.391   4.145
 8940TIP3   OH226764   1.080   5.033   3.484
 8940TIP3    H126765   1.039   5.114   3.452
 8940TIP3    H226766   1.174   5.048   3.477
 8941TIP3   OH226767   0.162   2.506   6.108
 8941TIP3    H126768   0.091   2.559   6.071
 8941TIP3    H226769   0.153   2.421   6.066
 8942TIP3   OH226770   3.943   2.449   0.766
 8942TIP3    H126771   4.018   2.491   0.724
 8942TIP3    H226772   3.980   2.375   0.814
 8943TIP3   OH226773   2.285   6.494   2.900
 8943TIP3    H126774   2.197   6.471   2.871
 8943TIP3    H226775   2.298   6.441   2.979
 8944TIP3   OH226776   6.526   1.972   4.810
 8944TIP3    H126777   6.501   2.027   4.736
 8944TIP3    H226778   6.619   1.992   4.824
 8945TIP3   OH226779   4.090   2.220   3.947
 8945TIP3    H126780   4.085   2.125   3.938
 8945TIP3    H226781   4.150   2.233   4.021
 8946TIP3   OH226782   2.852   0.999   2.265
 8946TIP3    H126783   2.854   0.905   2.287
 8946TIP3    H226784   2.817   1.040   2.344
 8947TIP3   OH226785   2.022   3.545   3.355
 8947TIP3    H126786   1.968   3.497   3.293
 8947TIP3    H226787   1.959   3.592   3.411
 8948TIP3   OH226788   6.472   4.909   2.326
 8948TIP3    H126789   6.484   5.004   2.327
 8948TIP3    H226790   6.416   4.892   2.251
 8949TIP3   OH226791   2.232   4.457   4.088
 8949TIP3    H126792   2.298   4.473   4.155
 8949TIP3    H226793   2.157   4.422   4.136
 8950TIP3   OH226794   5.890   0.382   0.179
 8950TIP3    H126795   5.896   0.355   0.271
 8950TIP3    H226796   5.815   0.441   0.177
 8951TIP3   OH226797   6.801   7.008   2.196
 8951TIP3    H126798   6.838   7.082   2.243
 8951TIP3    H226799   6.877   6.953   2.175
 8952TIP3   OH226800   2.594   1.284   3.354
 8952TIP3    H126801   2.499   1.297   3.343
 8952TIP3    H226802   2.614   1.321   3.440
 8953TIP3   OH226803   4.302   2.858   3.019
 8953TIP3    H126804   4.310   2.770   2.982
 8953TIP3    H226805   4.387   2.876   3.058
 8954TIP3   OH226806   1.239   2.594   1.191
 8954TIP3    H126807   1.144   2.597   1.181
 8954TIP3    H226808   1.273   2.615   1.104
 8955TIP3   OH226809   8.061   0.885   6.584
 8955TIP3    H126810   8.155   0.870   6.593
 8955TIP3    H226811   8.037   0.937   6.661
 8956TIP3   OH226812   5.574   1.500   4.744
 8956TIP3    H126813   5.486   1.532   4.760
 8956TIP3    H226814   5.589   1.517   4.651
 8957TIP3   OH226815   0.979   6.533   3.867
 8957TIP3    H126816   0.981   6.516   3.962
 8957TIP3    H226817   0.906   6.594   3.855
 8958TIP3   OH226818   6.612   0.035   3.759
 8958TIP3    H126819   6.606  -0.053   3.722
 8958TIP3    H226820   6.585   0.025   3.851
 8959TIP3   OH226821   3.374   5.191   3.523
 8959TIP3    H126822   3.428   5.216   3.448
 8959TIP3    H226823   3.430   5.203   3.599
 8960TIP3   OH226824   2.824   4.456   3.428
 8960TIP3    H126825   2.906   4.406   3.428
 8960TIP3    H226826   2.790   4.446   3.339
 8961TIP3   OH226827   1.417   1.095   5.076
 8961TIP3    H126828   1.463   1.090   4.992
 8961TIP3    H226829   1.487   1.095   5.141
 8962TIP3   OH226830   3.764   1.164   1.360
 8962TIP3    H126831   3.720   1.184   1.443
 8962TIP3    H226832   3.735   1.233   1.300
 8963TIP3   OH226833   0.933   7.189   6.253
 8963TIP3    H126834   0.858   7.133   6.234
 8963TIP3    H226835   0.938   7.248   6.177
 8964TIP3   OH226836  -0.002   1.354   1.951
 8964TIP3    H126837   0.051   1.412   1.897
 8964TIP3    H226838   0.015   1.382   2.041
 8965TIP3   OH226839   3.885   2.700   3.728
 8965TIP3    H126840   3.835   2.716   3.648
 8965TIP3    H226841   3.912   2.609   3.722
 8966TIP3   OH226842   2.878   3.415   4.469
 8966TIP3    H126843   2.948   3.358   4.438
 8966TIP3    H226844   2.912   3.454   4.549
 8967TIP3   OH226845   6.452   7.071   6.371
 8967TIP3    H126846   6.394   7.019   6.426
 8967TIP3    H226847   6.464   7.018   6.292
 8968TIP3   OH226848   0.558   0.150   0.896
 8968TIP3    H126849   0.579   0.244   0.903
 8968TIP3    H226850   0.471   0.148   0.855
 8969TIP3   OH226851   4.361   3.363   4.104
 8969TIP3    H126852   4.337   3.346   4.196
 8969TIP3    H226853   4.408   3.446   4.106
 8970TIP3   OH226854   3.122   1.479   4.090
 8970TIP3    H126855   3.161   1.566   4.101
 8970TIP3    H226856   3.090   1.455   4.177
 8971TIP3   OH226857   6.471   3.123   3.182
 8971TIP3    H126858   6.564   3.131   3.204
 8971TIP3    H226859   6.447   3.210   3.150
 8972TIP3   OH226860   4.801   3.856   2.314
 8972TIP3    H126861   4.872   3.792   2.314
 8972TIP3    H226862   4.721   3.803   2.312
 8973TIP3   OH226863   1.463   4.715   3.000
 8973TIP3    H126864   1.449   4.635   2.949
 8973TIP3    H226865   1.505   4.775   2.939
 8974TIP3   OH226866   5.603   3.078   2.348
 8974TIP3    H126867   5.561   3.145   2.294
 8974TIP3    H226868   5.663   3.127   2.405
 8975TIP3   OH226869   0.598   4.784   2.352
 8975TIP3    H126870   0.571   4.875   2.336
 8975TIP3    H226871   0.603   4.744   2.265
 8976TIP3   OH226872   6.051   7.820   4.841
 8976TIP3    H126873   6.055   7.735   4.885
 8976TIP3    H226874   5.957   7.834   4.824
 8977TIP3   OH226875   4.512   0.878   1.104
 8977TIP3    H126876   4.439   0.935   1.079
 8977TIP3    H226877   4.543   0.915   1.187
 8978TIP3   OH226878   5.709   4.431   4.257
 8978TIP3    H126879   5.742   4.356   4.307
 8978TIP3    H226880   5.661   4.392   4.184
 8979TIP3   OH226881   3.328   2.852   5.551
 8979TIP3    H126882   3.403   2.801   5.522
 8979TIP3    H226883   3.264   2.844   5.480
 8980TIP3   OH226884   7.838   2.542   0.742
 8980TIP3    H126885   7.808   2.491   0.667
 8980TIP3    H226886   7.762   2.545   0.800
 8981TIP3   OH226887   1.002   4.564   4.505
 8981TIP3    H126888   1.075   4.624   4.521
 8981TIP3    H226889   0.951   4.566   4.586
 8982TIP3   OH226890   5.797   2.252   4.709
 8982TIP3    H126891   5.758   2.220   4.790
 8982TIP3    H226892   5.723   2.264   4.650
 8983TIP3   OH226893   1.927   5.259   4.156
 8983TIP3    H126894   1.941   5.170   4.189
 8983TIP3    H226895   2.011   5.284   4.118
 8984TIP3   OH226896   3.272   1.518   0.344
 8984TIP3    H126897   3.184   1.538   0.377
 8984TIP3    H226898   3.270   1.424   0.325
 8985TIP3   OH226899   6.151   5.867   1.378
 8985TIP3    H126900   6.070   5.913   1.397
 8985TIP3    H226901   6.213   5.900   1.443
 8986TIP3   OH226902   2.710   4.032   4.588
 8986TIP3    H126903   2.712   4.040   4.683
 8986TIP3    H226904   2.801   4.047   4.561
 8987TIP3   OH226905   5.563   7.628   1.831
 8987TIP3    H126906   5.511   7.636   1.911
 8987TIP3    H226907   5.564   7.717   1.794
 8988TIP3   OH226908   2.687   5.489   6.766
 8988TIP3    H126909   2.762   5.529   6.810
 8988TIP3    H226910   2.726   5.424   6.708
 8989TIP3   OH226911   0.265   1.942   0.057
 8989TIP3    H126912   0.277   1.986  -0.027
 8989TIP3    H226913   0.200   1.874   0.040
 8990TIP3   OH226914   5.384   1.652   0.382
 8990TIP3    H126915   5.436   1.679   0.457
 8990TIP3    H226916   5.448   1.642   0.311
 8991TIP3   OH226917   7.357   5.020   2.998
 8991TIP3    H126918   7.280   4.990   2.950
 8991TIP3    H226919   7.428   5.020   2.933
 8992TIP3   OH226920   5.143   6.450   5.968
 8992TIP3    H126921   5.122   6.452   5.874
 8992TIP3    H226922   5.126   6.539   5.998
 8993TIP3   OH226923   5.742   2.876   2.908
 8993TIP3    H126924   5.709   2.804   2.854
 8993TIP3    H226925   5.802   2.923   2.850
 8994TIP3   OH226926   3.233   1.845   3.913
 8994TIP3    H126927   3.232   1.877   4.004
 8994TIP3    H226928   3.324   1.823   3.896
 8995TIP3   OH226929   2.437   6.696   0.732
 8995TIP3    H126930   2.456   6.779   0.776
 8995TIP3    H226931   2.374   6.720   0.663
 8996TIP3   OH226932   6.881   0.752   2.730
 8996TIP3    H126933   6.901   0.729   2.639
 8996TIP3    H226934   6.937   0.828   2.748
 8997TIP3   OH226935   5.605   5.299   4.325
 8997TIP3    H126936   5.553   5.305   4.406
 8997TIP3    H226937   5.546   5.258   4.262
 8998TIP3   OH226938   3.663   5.520   3.165
 8998TIP3    H126939   3.715   5.481   3.094
 8998TIP3    H226940   3.584   5.466   3.169
 8999TIP3   OH226941   2.608   4.181   4.389
 8999TIP3    H126942   2.610   4.116   4.319
 8999TIP3    H226943   2.628   4.131   4.469
 9000TIP3   OH226944   4.729   1.384   2.225
 9000TIP3    H126945   4.678   1.460   2.196
 9000TIP3    H226946   4.690   1.359   2.309
 9001TIP3   OH226947   8.283   5.271   4.223
 9001TIP3    H126948   8.195   5.250   4.254
 9001TIP3    H226949   8.320   5.326   4.291
 9002TIP3   OH226950   3.638   5.913   3.438
 9002TIP3    H126951   3.703   5.901   3.508
 9002TIP3    H226952   3.604   5.825   3.422
 9003TIP3   OH226953   0.290   0.054   3.794
 9003TIP3    H126954   0.343   0.130   3.820
 9003TIP3    H226955   0.251   0.022   3.875
 9004TIP3   OH226956   1.034   2.788   2.444
 9004TIP3    H126957   0.954   2.790   2.496
 9004TIP3    H226958   1.045   2.877   2.412
 9005TIP3   OH226959   7.246   6.349   6.689
 9005TIP3    H126960   7.288   6.265   6.705
 9005TIP3    H226961   7.154   6.328   6.675
 9006TIP3   OH226962   2.382   4.351   1.412
 9006TIP3    H126963   2.428   4.419   1.461
 9006TIP3    H226964   2.325   4.399   1.352
 9007TIP3   OH226965   5.218   6.384   3.091
 9007TIP3    H126966   5.246   6.445   3.159
 9007TIP3    H226967   5.174   6.440   3.026
 9008TIP3   OH226968   3.205   4.071   4.437
 9008TIP3    H126969   3.235   4.159   4.456
 9008TIP3    H226970   3.109   4.076   4.442
 9009TIP3   OH226971   0.333   0.681   2.659
 9009TIP3    H126972   0.421   0.665   2.694
 9009TIP3    H226973   0.341   0.662   2.565
 9010TIP3   OH226974   0.917   5.296   6.073
 9010TIP3    H126975   0.973   5.369   6.044
 9010TIP3    H226976   0.860   5.279   5.998
 9011TIP3   OH226977   0.592   3.863   4.349
 9011TIP3    H126978   0.671   3.897   4.306
 9011TIP3    H226979   0.550   3.941   4.386
 9012TIP3   OH226980   5.449   4.657   1.490
 9012TIP3    H126981   5.404   4.738   1.466
 9012TIP3    H226982   5.538   4.668   1.455
 9013TIP3   OH226983   2.997   7.110   3.482
 9013TIP3    H126984   2.927   7.114   3.547
 9013TIP3    H226985   3.072   7.154   3.525
 9014TIP3   OH226986   6.104   6.032   5.890
 9014TIP3    H126987   6.108   6.064   5.980
 9014TIP3    H226988   6.159   6.092   5.840
 9015TIP3   OH226989   2.030   3.928   3.856
 9015TIP3    H126990   2.010   3.983   3.780
 9015TIP3    H226991   2.115   3.958   3.886
 9016TIP3   OH226992   3.620   7.135   5.113
 9016TIP3    H126993   3.713   7.137   5.136
 9016TIP3    H226994   3.609   7.052   5.067
 9017TIP3   OH226995   5.821   4.268   4.935
 9017TIP3    H126996   5.843   4.282   5.028
 9017TIP3    H226997   5.880   4.198   4.907
 9018TIP3   OH226998   7.324   3.398   2.249
 9018TIP3    H126999   7.388   3.463   2.220
 9018TIP3    H227000   7.309   3.343   2.172
 9019TIP3   OH227001   5.977   2.910   3.240
 9019TIP3    H127002   5.968   2.958   3.322
 9019TIP3    H227003   6.055   2.947   3.199
 9020TIP3   OH227004   8.044   5.314   0.004
 9020TIP3    H127005   8.093   5.247   0.051
 9020TIP3    H227006   7.953   5.283   0.007
 9021TIP3   OH227007   3.766   7.183   6.324
 9021TIP3    H127008   3.676   7.150   6.314
 9021TIP3    H227009   3.765   7.226   6.409
 9022TIP3   OH227010   1.053   7.453   4.042
 9022TIP3    H127011   0.988   7.401   4.089
 9022TIP3    H227012   1.111   7.389   4.002
 9023TIP3   OH227013   1.796   0.158   5.549
 9023TIP3    H127014   1.828   0.194   5.631
 9023TIP3    H227015   1.856   0.193   5.483
 9024TIP3   OH227016   5.124   1.149   2.174
 9024TIP3    H127017   5.219   1.155   2.179
 9024TIP3    H227018   5.108   1.072   2.118
 9025TIP3   OH227019   4.475   6.684   2.877
 9025TIP3    H127020   4.527   6.648   2.949
 9025TIP3    H227021   4.417   6.613   2.850
 9026TIP3   OH227022   3.789   3.914   1.141
 9026TIP3    H127023   3.865   3.948   1.188
 9026TIP3    H227024   3.734   3.876   1.209
 9027TIP3   OH227025   6.412   4.342   3.228
 9027TIP3    H127026   6.438   4.274   3.166
 9027TIP3    H227027   6.318   4.354   3.211
 9028TIP3   OH227028   0.658   3.542   4.715
 9028TIP3    H127029   0.645   3.606   4.645
 9028TIP3    H227030   0.587   3.479   4.704
 9029TIP3   OH227031   6.090   1.702   4.600
 9029TIP3    H127032   6.159   1.699   4.666
 9029TIP3    H227033   6.011   1.726   4.650
 9030TIP3   OH227034   0.104   3.766   0.397
 9030TIP3    H127035   0.044   3.803   0.332
 9030TIP3    H227036   0.090   3.671   0.392
 9031TIP3   OH227037   7.098   6.103   2.386
 9031TIP3    H127038   7.186   6.085   2.351
 9031TIP3    H227039   7.080   6.029   2.445
 9032TIP3   OH227040   5.978   2.610   0.676
 9032TIP3    H127041   5.892   2.569   0.676
 9032TIP3    H227042   5.970   2.685   0.735
 9033TIP3   OH227043   7.802   6.881   4.739
 9033TIP3    H127044   7.886   6.894   4.695
 9033TIP3    H227045   7.749   6.832   4.677
 9034TIP3   OH227046   7.632   1.964   3.439
 9034TIP3    H127047   7.614   1.949   3.346
 9034TIP3    H227048   7.652   2.058   3.444
 9035TIP3   OH227049   3.756   5.666   2.807
 9035TIP3    H127050   3.838   5.647   2.762
 9035TIP3    H227051   3.744   5.593   2.867
 9036TIP3   OH227052   0.863   6.887   3.051
 9036TIP3    H127053   0.936   6.878   3.113
 9036TIP3    H227054   0.885   6.966   3.000
 9037TIP3   OH227055   1.974   4.436   6.460
 9037TIP3    H127056   2.052   4.453   6.512
 9037TIP3    H227057   1.903   4.432   6.524
 9038TIP3   OH227058   0.551   2.947   3.279
 9038TIP3    H127059   0.557   2.856   3.249
 9038TIP3    H227060   0.460   2.972   3.262
 9039TIP3   OH227061   2.914   0.105   3.774
 9039TIP3    H127062   2.949   0.189   3.742
 9039TIP3    H227063   2.889   0.058   3.694
 9040TIP3   OH227064   6.110   0.017   2.711
 9040TIP3    H127065   6.123  -0.007   2.619
 9040TIP3    H227066   6.096   0.112   2.709
 9041TIP3   OH227067   4.002   5.003   2.010
 9041TIP3    H127068   3.996   4.948   1.932
 9041TIP3    H227069   3.976   4.946   2.082
 9042TIP3   OH227070   1.318   4.661   0.649
 9042TIP3    H127071   1.405   4.670   0.611
 9042TIP3    H227072   1.325   4.588   0.710
 9043TIP3   OH227073   1.920   6.283  -0.014
 9043TIP3    H127074   1.836   6.288   0.032
 9043TIP3    H227075   1.942   6.190  -0.013
 9044TIP3   OH227076   4.836   3.543   2.379
 9044TIP3    H127077   4.810   3.528   2.470
 9044TIP3    H227078   4.906   3.479   2.364
 9045TIP3   OH227079   2.203   6.097   3.317
 9045TIP3    H127080   2.231   6.150   3.391
 9045TIP3    H227081   2.279   6.097   3.258
 9046TIP3   OH227082   5.249   1.198   6.216
 9046TIP3    H127083   5.258   1.291   6.234
 9046TIP3    H227084   5.186   1.167   6.281
 9047TIP3   OH227085   5.471   1.793   5.717
 9047TIP3    H127086   5.468   1.757   5.628
 9047TIP3    H227087   5.398   1.752   5.762
 9048TIP3   OH227088   1.477   4.513   1.753
 9048TIP3    H127089   1.528   4.576   1.803
 9048TIP3    H227090   1.526   4.503   1.671
 9049TIP3   OH227091   0.577   2.258   6.661
 9049TIP3    H127092   0.516   2.317   6.617
 9049TIP3    H227093   0.527   2.223   6.735
 9050TIP3   OH227094   7.368   1.532   6.641
 9050TIP3    H127095   7.444   1.587   6.625
 9050TIP3    H227096   7.397   1.443   6.619
 9051TIP3   OH227097   7.829   1.417   1.730
 9051TIP3    H127098   7.867   1.448   1.648
 9051TIP3    H227099   7.865   1.475   1.797
 9052TIP3   OH227100   8.123   0.553   0.591
 9052TIP3    H127101   8.131   0.487   0.660
 9052TIP3    H227102   8.171   0.628   0.626
 9053TIP3   OH227103   3.644   6.523   3.618
 9053TIP3    H127104   3.564   6.500   3.570
 9053TIP3    H227105   3.623   6.606   3.661
 9054TIP3   OH227106   7.838   4.761   6.455
 9054TIP3    H127107   7.748   4.745   6.427
 9054TIP3    H227108   7.829   4.800   6.542
 9055TIP3   OH227109   4.813   0.593   0.683
 9055TIP3    H127110   4.768   0.675   0.663
 9055TIP3    H227111   4.864   0.613   0.762
 9056TIP3   OH227112   2.269   1.575   3.135
 9056TIP3    H127113   2.336   1.639   3.111
 9056TIP3    H227114   2.260   1.521   3.056
 9057TIP3   OH227115   1.096   4.445   5.344
 9057TIP3    H127116   1.111   4.440   5.249
 9057TIP3    H227117   1.077   4.354   5.369
 9058TIP3   OH227118   3.769   2.706   0.435
 9058TIP3    H127119   3.808   2.782   0.391
 9058TIP3    H227120   3.770   2.637   0.368
 9059TIP3   OH227121   7.006   5.923   3.165
 9059TIP3    H127122   7.078   5.918   3.102
 9059TIP3    H227123   7.049   5.941   3.249
 9060TIP3   OH227124   1.744   4.983   4.718
 9060TIP3    H127125   1.673   5.005   4.657
 9060TIP3    H227126   1.792   4.912   4.674
 9061TIP3   OH227127   7.518   3.990   5.640
 9061TIP3    H127128   7.562   3.922   5.588
 9061TIP3    H227129   7.520   4.068   5.584
 9062TIP3   OH227130   1.854   5.908   0.513
 9062TIP3    H127131   1.879   5.838   0.574
 9062TIP3    H227132   1.808   5.972   0.568
 9063TIP3   OH227133   7.749   2.920   1.062
 9063TIP3    H127134   7.664   2.933   1.106
 9063TIP3    H227135   7.759   2.998   1.008
 9064TIP3   OH227136   5.507   4.652   2.923
 9064TIP3    H127137   5.509   4.673   2.830
 9064TIP3    H227138   5.439   4.709   2.959
 9065TIP3   OH227139   2.294   2.156   0.255
 9065TIP3    H127140   2.386   2.172   0.236
 9065TIP3    H227141   2.246   2.215   0.197
 9066TIP3   OH227142   1.733   5.231   5.464
 9066TIP3    H127143   1.664   5.254   5.401
 9066TIP3    H227144   1.814   5.251   5.419
 9067TIP3   OH227145   5.838   0.742   2.931
 9067TIP3    H127146   5.776   0.673   2.952
 9067TIP3    H227147   5.804   0.781   2.850
 9068TIP3   OH227148   3.397   0.262   0.503
 9068TIP3    H127149   3.383   0.298   0.416
 9068TIP3    H227150   3.377   0.168   0.493
 9069TIP3   OH227151   7.215   6.185   0.731
 9069TIP3    H127152   7.187   6.203   0.641
 9069TIP3    H227153   7.297   6.136   0.721
 9070TIP3   OH227154   4.261   4.318   4.144
 9070TIP3    H127155   4.342   4.344   4.101
 9070TIP3    H227156   4.192   4.367   4.099
 9071TIP3   OH227157   6.241   1.448   4.208
 9071TIP3    H127158   6.215   1.442   4.300
 9071TIP3    H227159   6.307   1.518   4.206
 9072TIP3   OH227160   1.157   5.607   1.463
 9072TIP3    H127161   1.235   5.583   1.512
 9072TIP3    H227162   1.088   5.614   1.529
 9073TIP3   OH227163   3.402   5.016   2.826
 9073TIP3    H127164   3.315   5.048   2.803
 9073TIP3    H227165   3.444   4.999   2.741
 9074TIP3   OH227166   0.677   3.062   0.572
 9074TIP3    H127167   0.703   2.979   0.612
 9074TIP3    H227168   0.594   3.043   0.529
 9075TIP3   OH227169   0.248   3.070   6.721
 9075TIP3    H127170   0.260   2.993   6.777
 9075TIP3    H227171   0.286   3.142   6.770
 9076TIP3   OH227172   7.090   7.705   6.119
 9076TIP3    H127173   7.181   7.722   6.144
 9076TIP3    H227174   7.090   7.613   6.091
 9077TIP3   OH227175   5.812   6.804   4.832
 9077TIP3    H127176   5.815   6.796   4.737
 9077TIP3    H227177   5.870   6.876   4.853
 9078TIP3   OH227178   4.779   4.806   4.491
 9078TIP3    H127179   4.864   4.833   4.524
 9078TIP3    H227180   4.718   4.826   4.562
 9079TIP3   OH227181   6.734   5.874   2.472
 9079TIP3    H127182   6.748   5.919   2.388
 9079TIP3    H227183   6.794   5.799   2.468
 9080TIP3   OH227184   3.266   3.843   6.709
 9080TIP3    H127185   3.257   3.930   6.670
 9080TIP3    H227186   3.294   3.860   6.799
 9081TIP3   OH227187   2.760   4.375   6.095
 9081TIP3    H127188   2.768   4.345   6.185
 9081TIP3    H227189   2.707   4.455   6.101
 9082TIP3   OH227190   6.212   2.603   5.322
 9082TIP3    H127191   6.150   2.612   5.394
 9082TIP3    H227192   6.275   2.538   5.353
 9083TIP3   OH227193   6.652   1.413   3.498
 9083TIP3    H127194   6.716   1.359   3.546
 9083TIP3    H227195   6.578   1.420   3.558
 9084TIP3   OH227196   3.679   1.837   1.024
 9084TIP3    H127197   3.638   1.802   0.945
 9084TIP3    H227198   3.662   1.770   1.091
 9085TIP3   OH227199   3.314   2.710   2.684
 9085TIP3    H127200   3.287   2.781   2.741
 9085TIP3    H227201   3.275   2.731   2.599
 9086TIP3   OH227202   2.922   2.800   0.641
 9086TIP3    H127203   2.981   2.778   0.569
 9086TIP3    H227204   2.866   2.869   0.606
 9087TIP3   OH227205   3.802   0.914   3.452
 9087TIP3    H127206   3.742   0.926   3.525
 9087TIP3    H227207   3.805   0.819   3.438
 9088TIP3   OH227208   4.771   7.440   3.345
 9088TIP3    H127209   4.683   7.476   3.357
 9088TIP3    H227210   4.784   7.441   3.250
 9089TIP3   OH227211   6.042   3.975   5.803
 9089TIP3    H127212   5.947   3.977   5.793
 9089TIP3    H227213   6.076   3.972   5.713
 9090TIP3   OH227214   0.270   3.537   1.494
 9090TIP3    H127215   0.191   3.588   1.507
 9090TIP3    H227216   0.334   3.576   1.554
 9091TIP3   OH227217   3.535   3.398   0.785
 9091TIP3    H127218   3.504   3.439   0.866
 9091TIP3    H227219   3.619   3.359   0.810
 9092TIP3   OH227220   1.725   2.712   5.488
 9092TIP3    H127221   1.793   2.652   5.519
 9092TIP3    H227222   1.716   2.692   5.395
 9093TIP3   OH227223   4.831   4.249   5.704
 9093TIP3    H127224   4.756   4.229   5.758
 9093TIP3    H227225   4.812   4.207   5.620
 9094TIP3   OH227226   0.803   4.587   6.050
 9094TIP3    H127227   0.781   4.632   6.131
 9094TIP3    H227228   0.779   4.496   6.065
 9095TIP3   OH227229   2.283   2.211   1.825
 9095TIP3    H127230   2.272   2.185   1.734
 9095TIP3    H227231   2.353   2.153   1.858
 9096TIP3   OH227232   4.550   0.243   3.056
 9096TIP3    H127233   4.619   0.228   3.121
 9096TIP3    H227234   4.506   0.323   3.086
 9097TIP3   OH227235   8.027   5.112   2.526
 9097TIP3    H127236   8.111   5.155   2.544
 9097TIP3    H227237   8.047   5.050   2.456
 9098TIP3   OH227238   7.952   1.325   3.928
 9098TIP3    H127239   7.921   1.288   3.846
 9098TIP3    H227240   7.927   1.260   3.994
 9099TIP3   OH227241   6.592   0.461   0.423
 9099TIP3    H127242   6.651   0.394   0.390
 9099TIP3    H227243   6.514   0.413   0.450
 9100TIP3   OH227244   7.225   7.146   5.099
 9100TIP3    H127245   7.319   7.149   5.081
 9100TIP3    H227246   7.207   7.227   5.146
 9101TIP3   OH227247   0.852   5.710   6.099
 9101TIP3    H127248   0.852   5.653   6.022
 9101TIP3    H227249   0.794   5.782   6.076
 9102TIP3   OH227250   6.025   2.126   1.409
 9102TIP3    H127251   6.042   2.129   1.503
 9102TIP3    H227252   6.048   2.214   1.377
 9103TIP3   OH227253   6.326   3.863   4.828
 9103TIP3    H127254   6.351   3.774   4.852
 9103TIP3    H227255   6.232   3.867   4.847
 9104TIP3   OH227256   5.938   0.778   6.759
 9104TIP3    H127257   6.017   0.727   6.777
 9104TIP3    H227258   5.956   0.823   6.676
 9105TIP3   OH227259   4.697   2.316   2.138
 9105TIP3    H127260   4.717   2.314   2.044
 9105TIP3    H227261   4.607   2.348   2.142
 9106TIP3   OH227262   6.307   3.905   1.615
 9106TIP3    H127263   6.339   3.956   1.540
 9106TIP3    H227264   6.387   3.876   1.660
 9107TIP3   OH227265   3.729   1.884   6.352
 9107TIP3    H127266   3.820   1.877   6.323
 9107TIP3    H227267   3.731   1.866   6.446
 9108TIP3   OH227268   7.599   1.622   4.466
 9108TIP3    H127269   7.537   1.617   4.539
 9108TIP3    H227270   7.628   1.713   4.466
 9109TIP3   OH227271   7.208   5.134   4.835
 9109TIP3    H127272   7.196   5.045   4.802
 9109TIP3    H227273   7.238   5.122   4.926
 9110TIP3   OH227274   2.166   3.062   1.683
 9110TIP3    H127275   2.249   3.026   1.715
 9110TIP3    H227276   2.192   3.132   1.623
 9111TIP3   OH227277   7.652   0.109   2.621
 9111TIP3    H127278   7.626   0.169   2.692
 9111TIP3    H227279   7.688   0.166   2.554
 9112TIP3   OH227280   5.340   2.027   4.232
 9112TIP3    H127281   5.357   1.938   4.199
 9112TIP3    H227282   5.308   2.075   4.156
 9113TIP3   OH227283   5.819   1.746   3.239
 9113TIP3    H127284   5.873   1.798   3.297
 9113TIP3    H227285   5.746   1.803   3.216
 9114TIP3   OH227286   0.362   1.945   5.751
 9114TIP3    H127287   0.417   1.946   5.829
 9114TIP3    H227288   0.382   1.862   5.709
 9115TIP3   OH227289   3.639   6.475   2.551
 9115TIP3    H127290   3.696   6.477   2.627
 9115TIP3    H227291   3.601   6.563   2.547
 9116TIP3   OH227292   2.814   6.852   6.282
 9116TIP3    H127293   2.839   6.766   6.249
 9116TIP3    H227294   2.718   6.851   6.280
 9117TIP3   OH227295   7.245   3.933   0.740
 9117TIP3    H127296   7.233   4.021   0.704
 9117TIP3    H227297   7.316   3.895   0.688
 9118TIP3   OH227298   8.165   2.902   5.849
 9118TIP3    H127299   8.098   2.921   5.784
 9118TIP3    H227300   8.210   2.985   5.862
 9119TIP3   OH227301   7.058   4.794   2.253
 9119TIP3    H127302   7.022   4.742   2.324
 9119TIP3    H227303   7.124   4.849   2.295
 9120TIP3   OH227304   3.085   1.531   2.577
 9120TIP3    H127305   3.015   1.502   2.635
 9120TIP3    H227306   3.108   1.618   2.609
 9121TIP3   OH227307   2.271   4.988   2.030
 9121TIP3    H127308   2.276   5.021   1.940
 9121TIP3    H227309   2.238   4.898   2.020
 9122TIP3   OH227310   5.465   3.159   0.625
 9122TIP3    H127311   5.525   3.183   0.696
 9122TIP3    H227312   5.507   3.085   0.582
 9123TIP3   OH227313   6.635   3.941   4.338
 9123TIP3    H127314   6.671   3.892   4.264
 9123TIP3    H227315   6.552   3.976   4.305
 9124TIP3   OH227316   0.689   4.359   2.768
 9124TIP3    H127317   0.667   4.330   2.680
 9124TIP3    H227318   0.628   4.311   2.825
 9125TIP3   OH227319   2.170   0.226   6.228
 9125TIP3    H127320   2.117   0.149   6.248
 9125TIP3    H227321   2.259   0.200   6.252
 9126TIP3   OH227322   3.473   5.945   5.349
 9126TIP3    H127323   3.445   5.918   5.436
 9126TIP3    H227324   3.553   5.896   5.333
 9127TIP3   OH227325   5.930   1.862   2.281
 9127TIP3    H127326   5.866   1.902   2.340
 9127TIP3    H227327   6.007   1.918   2.288
 9128TIP3   OH227328   1.479   0.460   2.921
 9128TIP3    H127329   1.469   0.481   2.828
 9128TIP3    H227330   1.469   0.543   2.966
 9129TIP3   OH227331   1.750   0.447   4.822
 9129TIP3    H127332   1.752   0.542   4.811
 9129TIP3    H227333   1.832   0.417   4.783
 9130TIP3   OH227334   4.241   6.149   1.327
 9130TIP3    H127335   4.232   6.071   1.381
 9130TIP3    H227336   4.205   6.124   1.242
 9131TIP3   OH227337   0.311   7.294   1.185
 9131TIP3    H127338   0.302   7.331   1.097
 9131TIP3    H227339   0.221   7.270   1.211
 9132TIP3   OH227340   0.905   6.995   1.426
 9132TIP3    H127341   0.943   6.940   1.494
 9132TIP3    H227342   0.905   7.083   1.464
 9133TIP3   OH227343   7.857   4.266   4.176
 9133TIP3    H127344   7.782   4.311   4.214
 9133TIP3    H227345   7.916   4.336   4.149
 9134TIP3   OH227346   6.583   4.044   5.280
 9134TIP3    H127347   6.566   4.019   5.189
 9134TIP3    H227348   6.503   4.022   5.327
 9135TIP3   OH227349   4.744   2.874   5.533
 9135TIP3    H127350   4.741   2.783   5.564
 9135TIP3    H227351   4.759   2.867   5.439
 9136TIP3   OH227352   3.612   1.891   3.236
 9136TIP3    H127353   3.604   1.977   3.196
 9136TIP3    H227354   3.612   1.907   3.330
 9137TIP3   OH227355   5.606   3.596   3.783
 9137TIP3    H127356   5.555   3.613   3.703
 9137TIP3    H227357   5.653   3.678   3.798
 9138TIP3   OH227358   2.423   2.328   5.102
 9138TIP3    H127359   2.423   2.382   5.181
 9138TIP3    H227360   2.487   2.370   5.044
 9139TIP3   OH227361   0.895   5.715   5.363
 9139TIP3    H127362   0.824   5.662   5.326
 9139TIP3    H227363   0.851   5.792   5.398
 9140TIP3   OH227364   1.637   1.957   4.069
 9140TIP3    H127365   1.600   1.889   4.125
 9140TIP3    H227366   1.585   2.035   4.087
 9141TIP3   OH227367   3.085   0.694   6.711
 9141TIP3    H127368   2.996   0.729   6.706
 9141TIP3    H227369   3.141   0.771   6.719
 9142TIP3   OH227370   6.965   2.611   6.033
 9142TIP3    H127371   7.018   2.579   6.106
 9142TIP3    H227372   7.029   2.641   5.968
 9143TIP3   OH227373   1.450   7.415   6.270
 9143TIP3    H127374   1.383   7.361   6.313
 9143TIP3    H227375   1.428   7.409   6.177
 9144TIP3   OH227376   2.830   1.897   3.324
 9144TIP3    H127377   2.793   1.855   3.402
 9144TIP3    H227378   2.924   1.879   3.331
 9145TIP3   OH227379   6.830   7.311   5.657
 9145TIP3    H127380   6.914   7.327   5.700
 9145TIP3    H227381   6.836   7.222   5.624
 9146TIP3   OH227382   6.623   6.905   3.739
 9146TIP3    H127383   6.634   6.933   3.830
 9146TIP3    H227384   6.641   6.811   3.740
 9147TIP3   OH227385   5.466   0.899   1.239
 9147TIP3    H127386   5.472   0.876   1.331
 9147TIP3    H227387   5.383   0.947   1.232
 9148TIP3   OH227388   4.400   6.970   0.332
 9148TIP3    H127389   4.479   7.020   0.314
 9148TIP3    H227390   4.430   6.897   0.386
 9149TIP3   OH227391   8.184   3.124   0.489
 9149TIP3    H127392   8.202   3.036   0.456
 9149TIP3    H227393   8.246   3.135   0.561
 9150TIP3   OH227394   7.618   0.248   3.875
 9150TIP3    H127395   7.660   0.233   3.791
 9150TIP3    H227396   7.530   0.278   3.853
 9151TIP3   OH227397   7.102   4.453   4.509
 9151TIP3    H127398   7.126   4.527   4.455
 9151TIP3    H227399   7.186   4.417   4.539
 9152TIP3   OH227400   3.629   0.216   6.041
 9152TIP3    H127401   3.622   0.306   6.074
 9152TIP3    H227402   3.722   0.205   6.020
 9153TIP3   OH227403   3.218   7.152   6.435
 9153TIP3    H127404   3.207   7.245   6.418
 9153TIP3    H227405   3.148   7.110   6.385
 9154TIP3   OH227406   6.133   1.330   6.190
 9154TIP3    H127407   6.154   1.410   6.237
 9154TIP3    H227408   6.048   1.349   6.149
 9155TIP3   OH227409   8.112   1.437   2.804
 9155TIP3    H127410   8.129   1.346   2.827
 9155TIP3    H227411   8.023   1.454   2.836
 9156TIP3   OH227412   1.349   1.422   3.341
 9156TIP3    H127413   1.285   1.353   3.355
 9156TIP3    H227414   1.303   1.487   3.287
 9157TIP3   OH227415   0.036   4.235   2.766
 9157TIP3    H127416   0.100   4.288   2.813
 9157TIP3    H227417   0.080   4.208   2.686
 9158TIP3   OH227418   3.164   3.294   2.893
 9158TIP3    H127419   3.243   3.296   2.840
 9158TIP3    H227420   3.192   3.324   2.980
 9159TIP3   OH227421   3.988   6.971   4.353
 9159TIP3    H127422   4.071   6.926   4.369
 9159TIP3    H227423   3.972   7.021   4.433
 9160TIP3   OH227424   2.678   1.312   5.114
 9160TIP3    H127425   2.589   1.336   5.140
 9160TIP3    H227426   2.721   1.288   5.196
 9161TIP3   OH227427   5.385   3.851   0.169
 9161TIP3    H127428   5.315   3.892   0.220
 9161TIP3    H227429   5.395   3.906   0.092
 9162TIP3   OH227430   5.195   3.799   5.402
 9162TIP3    H127431   5.108   3.764   5.381
 9162TIP3    H227432   5.236   3.731   5.455
 9163TIP3   OH227433   6.531   4.519   4.868
 9163TIP3    H127434   6.512   4.427   4.886
 9163TIP3    H227435   6.524   4.562   4.953
 9164TIP3   OH227436   3.942   0.694   6.740
 9164TIP3    H127437   3.878   0.765   6.735
 9164TIP3    H227438   3.948   0.660   6.651
 9165TIP3   OH227439   3.371   0.046   5.116
 9165TIP3    H127440   3.330   0.064   5.032
 9165TIP3    H227441   3.446   0.106   5.121
 9166TIP3   OH227442   5.870   4.989   0.786
 9166TIP3    H127443   5.949   5.027   0.748
 9166TIP3    H227444   5.877   4.895   0.766
 9167TIP3   OH227445   1.870   3.614   2.327
 9167TIP3    H127446   1.930   3.684   2.303
 9167TIP3    H227447   1.905   3.579   2.409
 9168TIP3   OH227448   6.249   4.249   2.102
 9168TIP3    H127449   6.235   4.324   2.045
 9168TIP3    H227450   6.294   4.185   2.047
 9169TIP3   OH227451   3.919   5.556   3.361
 9169TIP3    H127452   3.914   5.623   3.292
 9169TIP3    H227453   3.850   5.494   3.339
 9170TIP3   OH227454   2.985   6.762   5.909
 9170TIP3    H127455   2.982   6.731   5.999
 9170TIP3    H227456   2.940   6.694   5.859
 9171TIP3   OH227457   0.226   6.525   1.059
 9171TIP3    H127458   0.321   6.532   1.053
 9171TIP3    H227459   0.193   6.598   1.007
 9172TIP3   OH227460   6.749   2.080   0.016
 9172TIP3    H127461   6.678   2.023  -0.015
 9172TIP3    H227462   6.740   2.080   0.111
 9173TIP3   OH227463   2.014   7.592   3.386
 9173TIP3    H127464   1.923   7.622   3.378
 9173TIP3    H227465   2.066   7.669   3.367
 9174TIP3   OH227466   0.733   3.261   3.494
 9174TIP3    H127467   0.654   3.316   3.501
 9174TIP3    H227468   0.764   3.253   3.584
 9175TIP3   OH227469   7.733   0.113   1.266
 9175TIP3    H127470   7.670   0.170   1.310
 9175TIP3    H227471   7.681   0.062   1.204
 9176TIP3   OH227472   5.325   1.223   2.566
 9176TIP3    H127473   5.404   1.276   2.559
 9176TIP3    H227474   5.258   1.284   2.599
 9177TIP3   OH227475   3.414   1.290   1.189
 9177TIP3    H127476   3.370   1.327   1.112
 9177TIP3    H227477   3.381   1.201   1.195
 9178TIP3   OH227478   2.446   2.640   4.413
 9178TIP3    H127479   2.531   2.596   4.410
 9178TIP3    H227480   2.391   2.593   4.350
 9179TIP3   OH227481   5.649   5.095   0.648
 9179TIP3    H127482   5.684   5.108   0.560
 9179TIP3    H227483   5.723   5.059   0.698
 9180TIP3   OH227484   5.460   4.868   6.273
 9180TIP3    H127485   5.370   4.861   6.239
 9180TIP3    H227486   5.454   4.934   6.342
 9181TIP3   OH227487   4.447   0.937   5.603
 9181TIP3    H127488   4.433   0.895   5.688
 9181TIP3    H227489   4.542   0.940   5.593
 9182TIP3   OH227490   7.782   6.767   1.507
 9182TIP3    H127491   7.808   6.719   1.429
 9182TIP3    H227492   7.737   6.844   1.473
 9183TIP3   OH227493   4.114   3.829   3.789
 9183TIP3    H127494   4.115   3.760   3.856
 9183TIP3    H227495   4.180   3.802   3.725
 9184TIP3   OH227496   0.836   6.020   3.005
 9184TIP3    H127497   0.841   6.005   2.911
 9184TIP3    H227498   0.915   6.070   3.025
 9185TIP3   OH227499   2.316   6.359   4.546
 9185TIP3    H127500   2.334   6.265   4.558
 9185TIP3    H227501   2.398   6.395   4.514
 9186TIP3   OH227502   6.327   3.341   4.995
 9186TIP3    H127503   6.261   3.323   5.062
 9186TIP3    H227504   6.329   3.436   4.988
 9187TIP3   OH227505   4.982   3.989   0.024
 9187TIP3    H127506   5.036   4.068   0.023
 9187TIP3    H227507   4.893   4.021   0.032
 9188TIP3   OH227508   5.641   7.644   3.890
 9188TIP3    H127509   5.616   7.615   3.802
 9188TIP3    H227510   5.560   7.672   3.931
 9189TIP3   OH227511   1.272   4.010   4.540
 9189TIP3    H127512   1.304   4.068   4.609
 9189TIP3    H227513   1.348   3.992   4.486
 9190TIP3   OH227514   1.051   1.164   4.422
 9190TIP3    H127515   1.060   1.182   4.516
 9190TIP3    H227516   0.982   1.224   4.393
 9191TIP3   OH227517   3.286   2.187   0.331
 9191TIP3    H127518   3.258   2.166   0.420
 9191TIP3    H227519   3.350   2.257   0.341
 9192TIP3   OH227520   6.385   1.631   5.145
 9192TIP3    H127521   6.424   1.551   5.180
 9192TIP3    H227522   6.445   1.658   5.075
 9193TIP3   OH227523   1.696   4.747   0.170
 9193TIP3    H127524   1.732   4.828   0.134
 9193TIP3    H227525   1.737   4.677   0.119
 9194TIP3   OH227526   3.288   3.861   3.602
 9194TIP3    H127527   3.260   3.803   3.673
 9194TIP3    H227528   3.383   3.852   3.600
 9195TIP3   OH227529   7.025   4.706   5.938
 9195TIP3    H127530   7.072   4.694   5.856
 9195TIP3    H227531   6.978   4.623   5.951
 9196TIP3   OH227532   2.376   6.987   4.093
 9196TIP3    H127533   2.294   7.013   4.135
 9196TIP3    H227534   2.431   7.065   4.097
 9197TIP3   OH227535   2.890   0.278   1.005
 9197TIP3    H127536   2.888   0.370   0.978
 9197TIP3    H227537   2.826   0.235   0.949
 9198TIP3   OH227538   5.263   7.701   4.143
 9198TIP3    H127539   5.346   7.743   4.122
 9198TIP3    H227540   5.228   7.673   4.058
 9199TIP3   OH227541   4.030   3.303   0.915
 9199TIP3    H127542   4.053   3.232   0.974
 9199TIP3    H227543   4.114   3.343   0.893
 9200TIP3   OH227544   8.140   0.372   0.218
 9200TIP3    H127545   8.231   0.341   0.216
 9200TIP3    H227546   8.144   0.453   0.268
 9201TIP3   OH227547   5.069   1.532   0.040
 9201TIP3    H127548   5.039   1.573  -0.041
 9201TIP3    H227549   5.004   1.559   0.106
 9202TIP3   OH227550   4.993   1.694   2.269
 9202TIP3    H127551   4.993   1.638   2.192
 9202TIP3    H227552   4.978   1.634   2.342
 9203TIP3   OH227553   3.537   0.876   6.194
 9203TIP3    H127554   3.452   0.834   6.206
 9203TIP3    H227555   3.577   0.875   6.281
 9204TIP3   OH227556   6.938   2.262   6.746
 9204TIP3    H127557   6.941   2.348   6.786
 9204TIP3    H227558   7.003   2.266   6.676
 9205TIP3   OH227559   0.532   1.026   2.925
 9205TIP3    H127560   0.599   0.995   2.987
 9205TIP3    H227561   0.461   0.963   2.934
 9206TIP3   OH227562   2.674   3.971   2.632
 9206TIP3    H127563   2.604   3.976   2.567
 9206TIP3    H227564   2.745   4.023   2.594
 9207TIP3   OH227565   2.642   4.800   4.338
 9207TIP3    H127566   2.631   4.799   4.243
 9207TIP3    H227567   2.584   4.869   4.368
 9208TIP3   OH227568   3.366   0.223   6.356
 9208TIP3    H127569   3.374   0.134   6.322
 9208TIP3    H227570   3.273   0.231   6.379
 9209TIP3   OH227571   8.142   3.114   1.542
 9209TIP3    H127572   8.178   3.154   1.462
 9209TIP3    H227573   8.161   3.178   1.611
 9210TIP3   OH227574   7.399   4.707   4.803
 9210TIP3    H127575   7.324   4.649   4.787
 9210TIP3    H227576   7.416   4.749   4.719
 9211TIP3   OH227577   2.373   0.850   3.877
 9211TIP3    H127578   2.459   0.888   3.857
 9211TIP3    H227579   2.377   0.829   3.971
 9212TIP3   OH227580   7.848   1.119   5.163
 9212TIP3    H127581   7.874   1.058   5.231
 9212TIP3    H227582   7.763   1.153   5.194
 9213TIP3   OH227583   7.314   2.558   0.860
 9213TIP3    H127584   7.321   2.586   0.951
 9213TIP3    H227585   7.404   2.535   0.835
 9214TIP3   OH227586   0.542   1.623   4.104
 9214TIP3    H127587   0.458   1.584   4.080
 9214TIP3    H227588   0.548   1.702   4.050
 9215TIP3   OH227589   0.713   0.787   1.968
 9215TIP3    H127590   0.636   0.804   2.023
 9215TIP3    H227591   0.677   0.770   1.881
 9216TIP3   OH227592   0.848   7.196   2.884
 9216TIP3    H127593   0.870   7.265   2.822
 9216TIP3    H227594   0.890   7.223   2.966
 9217TIP3   OH227595   5.361   0.568   3.811
 9217TIP3    H127596   5.384   0.538   3.723
 9217TIP3    H227597   5.338   0.488   3.859
 9218TIP3   OH227598   4.737   7.084   5.746
 9218TIP3    H127599   4.754   7.178   5.748
 9218TIP3    H227600   4.642   7.077   5.733
 9219TIP3   OH227601   0.022   2.012   1.215
 9219TIP3    H127602  -0.015   2.021   1.127
 9219TIP3    H227603   0.097   2.071   1.216
 9220TIP3   OH227604   3.729   6.616   5.733
 9220TIP3    H127605   3.667   6.606   5.805
 9220TIP3    H227606   3.744   6.527   5.701
 9221TIP3   OH227607   5.959   1.944   2.974
 9221TIP3    H127608   6.008   1.874   3.017
 9221TIP3    H227609   5.969   2.019   3.033
 9222TIP3   OH227610   2.358   4.437   2.869
 9222TIP3    H127611   2.320   4.411   2.953
 9222TIP3    H227612   2.330   4.528   2.857
 9223TIP3   OH227613   2.284   0.468   6.605
 9223TIP3    H127614   2.207   0.417   6.579
 9223TIP3    H227615   2.258   0.559   6.589
 9224TIP3   OH227616   2.546   5.165   1.031
 9224TIP3    H127617   2.581   5.150   0.943
 9224TIP3    H227618   2.562   5.258   1.047
 9225TIP3   OH227619   3.671   7.531   3.275
 9225TIP3    H127620   3.760   7.498   3.259
 9225TIP3    H227621   3.638   7.477   3.346
 9226TIP3   OH227622   5.349   0.893   2.770
 9226TIP3    H127623   5.328   0.964   2.831
 9226TIP3    H227624   5.270   0.883   2.717
 9227TIP3   OH227625   2.523   6.883   6.067
 9227TIP3    H127626   2.491   6.833   6.142
 9227TIP3    H227627   2.549   6.968   6.104
 9228TIP3   OH227628   6.687   7.096   5.923
 9228TIP3    H127629   6.731   7.170   5.880
 9228TIP3    H227630   6.700   7.023   5.864
 9229TIP3   OH227631   6.601   4.595   6.594
 9229TIP3    H127632   6.650   4.676   6.607
 9229TIP3    H227633   6.511   4.624   6.580
 9230TIP3   OH227634   4.672   1.479   1.074
 9230TIP3    H127635   4.665   1.385   1.060
 9230TIP3    H227636   4.660   1.517   0.987
 9231TIP3   OH227637   0.533   4.208   5.071
 9231TIP3    H127638   0.552   4.281   5.130
 9231TIP3    H227639   0.585   4.226   4.993
 9232TIP3   OH227640   0.606   1.189   2.247
 9232TIP3    H127641   0.611   1.261   2.310
 9232TIP3    H227642   0.642   1.225   2.166
 9233TIP3   OH227643   2.530   2.289   2.153
 9233TIP3    H127644   2.606   2.346   2.164
 9233TIP3    H227645   2.464   2.343   2.111
 9234TIP3   OH227646   5.211   4.003   4.581
 9234TIP3    H127647   5.259   4.086   4.585
 9234TIP3    H227648   5.122   4.025   4.605
 9235TIP3   OH227649   3.645   1.067   0.516
 9235TIP3    H127650   3.597   0.993   0.553
 9235TIP3    H227651   3.716   1.027   0.467
 9236TIP3   OH227652   4.213   1.764   0.562
 9236TIP3    H127653   4.119   1.754   0.575
 9236TIP3    H227654   4.250   1.768   0.650
 9237TIP3   OH227655   2.878   2.575   2.671
 9237TIP3    H127656   2.923   2.660   2.672
 9237TIP3    H227657   2.785   2.597   2.669
 9238TIP3   OH227658   6.670   4.404   5.824
 9238TIP3    H127659   6.604   4.336   5.809
 9238TIP3    H227660   6.754   4.359   5.816
 9239TIP3   OH227661   2.074   6.169   5.241
 9239TIP3    H127662   2.089   6.244   5.298
 9239TIP3    H227663   2.131   6.183   5.166
 9240TIP3   OH227664   4.825   6.037   2.153
 9240TIP3    H127665   4.853   5.966   2.211
 9240TIP3    H227666   4.741   6.008   2.118
 9241TIP3   OH227667   4.074   4.641   0.545
 9241TIP3    H127668   4.146   4.680   0.496
 9241TIP3    H227669   4.106   4.554   0.568
 9242TIP3   OH227670   7.733   4.988   5.801
 9242TIP3    H127671   7.726   4.997   5.896
 9242TIP3    H227672   7.739   4.893   5.787
 9243TIP3   OH227673   6.639   2.300   0.825
 9243TIP3    H127674   6.549   2.309   0.794
 9243TIP3    H227675   6.665   2.212   0.796
 9244TIP3   OH227676   4.647   0.129   5.711
 9244TIP3    H127677   4.621   0.114   5.620
 9244TIP3    H227678   4.619   0.049   5.757
 9245TIP3   OH227679   6.324   5.776   4.216
 9245TIP3    H127680   6.266   5.836   4.264
 9245TIP3    H227681   6.308   5.691   4.257
 9246TIP3   OH227682   7.955   7.033   0.765
 9246TIP3    H127683   7.866   7.069   0.758
 9246TIP3    H227684   8.002   7.097   0.818
 9247TIP3   OH227685   1.724   0.996   0.810
 9247TIP3    H127686   1.750   1.085   0.834
 9247TIP3    H227687   1.806   0.951   0.790
 9248TIP3   OH227688   7.866   1.182   2.699
 9248TIP3    H127689   7.957   1.162   2.720
 9248TIP3    H227690   7.842   1.121   2.629
 9249TIP3   OH227691   8.070   2.699   0.659
 9249TIP3    H127692   7.996   2.650   0.694
 9249TIP3    H227693   8.030   2.767   0.605
 9250TIP3   OH227694   2.063   7.146   1.593
 9250TIP3    H127695   2.143   7.196   1.575
 9250TIP3    H227696   2.007   7.207   1.642
 9251TIP3   OH227697   2.782   0.645   3.380
 9251TIP3    H127698   2.735   0.722   3.411
 9251TIP3    H227699   2.747   0.573   3.432
 9252TIP3   OH227700   3.186   4.573   6.736
 9252TIP3    H127701   3.213   4.481   6.733
 9252TIP3    H227702   3.137   4.586   6.654
 9253TIP3   OH227703   7.179   5.119   1.525
 9253TIP3    H127704   7.143   5.043   1.480
 9253TIP3    H227705   7.250   5.083   1.579
 9254TIP3   OH227706   1.614   1.690   3.008
 9254TIP3    H127707   1.676   1.755   2.974
 9254TIP3    H227708   1.630   1.688   3.102
 9255TIP3   OH227709   3.434   7.034   5.440
 9255TIP3    H127710   3.513   6.999   5.481
 9255TIP3    H227711   3.418   6.977   5.365
 9256TIP3   OH227712   5.677   2.117   5.491
 9256TIP3    H127713   5.698   2.023   5.494
 9256TIP3    H227714   5.583   2.120   5.476
 9257TIP3   OH227715   4.818   4.402   2.294
 9257TIP3    H127716   4.852   4.429   2.209
 9257TIP3    H227717   4.723   4.393   2.281
 9258TIP3   OH227718   0.338   4.543   3.144
 9258TIP3    H127719   0.346   4.633   3.175
 9258TIP3    H227720   0.413   4.497   3.182
 9259TIP3   OH227721   0.035   0.954   1.338
 9259TIP3    H127722  -0.054   0.978   1.313
 9259TIP3    H227723   0.070   1.034   1.379
 9260TIP3   OH227724   0.480   2.198   2.944
 9260TIP3    H127725   0.558   2.181   2.998
 9260TIP3    H227726   0.491   2.141   2.868
 9261TIP3   OH227727   1.491   6.429   1.471
 9261TIP3    H127728   1.459   6.504   1.522
 9261TIP3    H227729   1.475   6.353   1.527
 9262TIP3   OH227730   2.843   2.276   3.535
 9262TIP3    H127731   2.812   2.204   3.590
 9262TIP3    H227732   2.841   2.352   3.593
 9263TIP3   OH227733   2.104   7.316   2.814
 9263TIP3    H127734   2.106   7.232   2.859
 9263TIP3    H227735   2.124   7.295   2.723
 9264TIP3   OH227736   2.381   3.562   6.144
 9264TIP3    H127737   2.398   3.645   6.189
 9264TIP3    H227738   2.371   3.586   6.052
 9265TIP3   OH227739   1.829   4.292   2.208
 9265TIP3    H127740   1.896   4.229   2.182
 9265TIP3    H227741   1.747   4.244   2.200
 9266TIP3   OH227742   3.177   0.085   5.315
 9266TIP3    H127743   3.202   0.061   5.404
 9266TIP3    H227744   3.256   0.071   5.263
 9267TIP3   OH227745   1.002   0.394   5.068
 9267TIP3    H127746   1.084   0.386   5.116
 9267TIP3    H227747   0.975   0.485   5.080
 9268TIP3   OH227748   0.808   3.901   3.837
 9268TIP3    H127749   0.782   3.832   3.898
 9268TIP3    H227750   0.726   3.941   3.809
 9269TIP3   OH227751   5.251   5.936   5.297
 9269TIP3    H127752   5.283   5.997   5.363
 9269TIP3    H227753   5.157   5.928   5.314
 9270TIP3   OH227754   7.269   6.784   6.463
 9270TIP3    H127755   7.335   6.782   6.532
 9270TIP3    H227756   7.235   6.695   6.459
 9271TIP3   OH227757   6.082   4.114   5.234
 9271TIP3    H127758   6.130   4.060   5.298
 9271TIP3    H227759   6.066   4.055   5.160
 9272TIP3   OH227760   0.598   5.162   3.755
 9272TIP3    H127761   0.643   5.243   3.731
 9272TIP3    H227762   0.505   5.182   3.743
 9273TIP3   OH227763   5.205   6.604   5.042
 9273TIP3    H127764   5.210   6.697   5.064
 9273TIP3    H227765   5.184   6.561   5.125
 9274TIP3   OH227766   4.862   2.363   0.657
 9274TIP3    H127767   4.924   2.339   0.726
 9274TIP3    H227768   4.798   2.291   0.656
 9275TIP3   OH227769   5.607   7.092   3.754
 9275TIP3    H127770   5.630   7.164   3.696
 9275TIP3    H227771   5.612   7.014   3.699
 9276TIP3   OH227772   6.878   2.748   0.118
 9276TIP3    H127773   6.860   2.751   0.024
 9276TIP3    H227774   6.957   2.694   0.125
 9277TIP3   OH227775   6.895   3.046   3.379
 9277TIP3    H127776   6.823   2.997   3.419
 9277TIP3    H227777   6.860   3.075   3.295
 9278TIP3   OH227778   4.100   3.691   4.439
 9278TIP3    H127779   4.186   3.682   4.481
 9278TIP3    H227780   4.051   3.749   4.498
 9279TIP3   OH227781   6.333   3.542   5.534
 9279TIP3    H127782   6.373   3.625   5.561
 9279TIP3    H227783   6.251   3.568   5.491
 9280TIP3   OH227784   0.819   0.023   2.565
 9280TIP3    H127785   0.889  -0.035   2.533
 9280TIP3    H227786   0.826   0.101   2.510
 9281TIP3   OH227787   4.540   0.619   0.870
 9281TIP3    H127788   4.611   0.586   0.926
 9281TIP3    H227789   4.465   0.629   0.928
 9282TIP3   OH227790   4.164   2.184  -0.001
 9282TIP3    H127791   4.126   2.254  -0.054
 9282TIP3    H227792   4.193   2.228   0.079
 9283TIP3   OH227793   5.946   3.134   0.299
 9283TIP3    H127794   5.952   3.228   0.316
 9283TIP3    H227795   5.863   3.124   0.252
 9284TIP3   OH227796   4.703   3.575   4.966
 9284TIP3    H127797   4.763   3.578   5.041
 9284TIP3    H227798   4.733   3.501   4.914
 9285TIP3   OH227799   1.929   7.503   3.660
 9285TIP3    H127800   1.943   7.408   3.665
 9285TIP3    H227801   1.835   7.513   3.652
 9286TIP3   OH227802   2.789   5.851   1.326
 9286TIP3    H127803   2.759   5.775   1.276
 9286TIP3    H227804   2.840   5.813   1.398
 9287TIP3   OH227805   5.718   0.831   4.440
 9287TIP3    H127806   5.630   0.794   4.440
 9287TIP3    H227807   5.771   0.768   4.490
 9288TIP3   OH227808   3.491   0.582   5.342
 9288TIP3    H127809   3.414   0.565   5.396
 9288TIP3    H227810   3.542   0.500   5.347
 9289TIP3   OH227811   3.322   6.058   2.472
 9289TIP3    H127812   3.375   6.137   2.479
 9289TIP3    H227813   3.248   6.073   2.531
 9290TIP3   OH227814   6.629   3.832   1.977
 9290TIP3    H127815   6.597   3.812   1.889
 9290TIP3    H227816   6.570   3.784   2.035
 9291TIP3   OH227817   3.471   4.053   1.824
 9291TIP3    H127818   3.453   4.069   1.917
 9291TIP3    H227819   3.389   4.019   1.789
 9292TIP3   OH227820   3.426   2.271   2.784
 9292TIP3    H127821   3.377   2.202   2.828
 9292TIP3    H227822   3.372   2.349   2.795
 9293TIP3   OH227823   4.275   3.947   4.533
 9293TIP3    H127824   4.364   3.978   4.514
 9293TIP3    H227825   4.227   3.960   4.451
 9294TIP3   OH227826   2.459   7.501   3.707
 9294TIP3    H127827   2.390   7.500   3.773
 9294TIP3    H227828   2.540   7.489   3.758
 9295TIP3   OH227829   0.060   2.026   0.263
 9295TIP3    H127830  -0.035   2.016   0.251
 9295TIP3    H227831   0.098   1.997   0.181
 9296TIP3   OH227832   2.901   3.974   4.877
 9296TIP3    H127833   2.975   3.997   4.821
 9296TIP3    H227834   2.879   3.885   4.851
 9297TIP3   OH227835   7.119   3.065   3.903
 9297TIP3    H127836   7.214   3.056   3.910
 9297TIP3    H227837   7.085   3.019   3.979
 9298TIP3   OH227838   5.372   5.865   1.849
 9298TIP3    H127839   5.428   5.937   1.876
 9298TIP3    H227840   5.332   5.896   1.767
 9299TIP3   OH227841   0.835   5.285   5.748
 9299TIP3    H127842   0.846   5.331   5.665
 9299TIP3    H227843   0.925   5.266   5.776
 9300TIP3   OH227844   1.659   3.401   3.675
 9300TIP3    H127845   1.694   3.366   3.593
 9300TIP3    H227846   1.569   3.424   3.655
 9301TIP3   OH227847   0.839   7.482   4.325
 9301TIP3    H127848   0.798   7.553   4.375
 9301TIP3    H227849   0.793   7.482   4.241
 9302TIP3   OH227850   1.518   6.459   0.393
 9302TIP3    H127851   1.473   6.493   0.470
 9302TIP3    H227852   1.465   6.488   0.319
 9303TIP3   OH227853   7.348   6.119   3.757
 9303TIP3    H127854   7.419   6.137   3.695
 9303TIP3    H227855   7.387   6.134   3.843
 9304TIP3   OH227856   2.031   4.969   2.680
 9304TIP3    H127857   1.938   4.978   2.699
 9304TIP3    H227858   2.034   4.916   2.600
 9305TIP3   OH227859   8.150   7.475   3.717
 9305TIP3    H127860   8.203   7.395   3.712
 9305TIP3    H227861   8.102   7.477   3.634
 9306TIP3   OH227862   7.343   7.623   4.162
 9306TIP3    H127863   7.358   7.529   4.172
 9306TIP3    H227864   7.430   7.660   4.149
 9307TIP3   OH227865   6.460   5.285   2.632
 9307TIP3    H127866   6.378   5.324   2.601
 9307TIP3    H227867   6.441   5.191   2.637
 9308TIP3   OH227868   3.630   5.730   6.493
 9308TIP3    H127869   3.561   5.792   6.469
 9308TIP3    H227870   3.709   5.784   6.500
 9309TIP3   OH227871   7.902   6.238   3.373
 9309TIP3    H127872   7.811   6.212   3.358
 9309TIP3    H227873   7.900   6.333   3.375
 9310TIP3   OH227874   2.565   2.151   0.442
 9310TIP3    H127875   2.481   2.190   0.418
 9310TIP3    H227876   2.596   2.205   0.515
 9311TIP3   OH227877   1.001   2.033   3.329
 9311TIP3    H127878   1.039   2.093   3.393
 9311TIP3    H227879   0.958   1.966   3.381
 9312TIP3   OH227880   6.138   0.667   5.292
 9312TIP3    H127881   6.150   0.739   5.231
 9312TIP3    H227882   6.213   0.672   5.351
 9313TIP3   OH227883   6.716   4.953   3.181
 9313TIP3    H127884   6.738   4.999   3.262
 9313TIP3    H227885   6.701   5.022   3.117
 9314TIP3   OH227886   1.428   6.310   1.973
 9314TIP3    H127887   1.442   6.405   1.970
 9314TIP3    H227888   1.501   6.277   2.025
 9315TIP3   OH227889   0.847   0.432   2.627
 9315TIP3    H127890   0.863   0.516   2.585
 9315TIP3    H227891   0.926   0.415   2.679
 9316TIP3   OH227892   0.306   5.276   4.349
 9316TIP3    H127893   0.369   5.275   4.421
 9316TIP3    H227894   0.223   5.253   4.391
 9317TIP3   OH227895   2.945   7.079   6.338
 9317TIP3    H127896   2.890   7.001   6.328
 9317TIP3    H227897   2.904   7.128   6.410
 9318TIP3   OH227898   3.312   4.632   1.041
 9318TIP3    H127899   3.241   4.685   1.004
 9318TIP3    H227900   3.358   4.692   1.100
 9319TIP3   OH227901   6.371   5.573   2.819
 9319TIP3    H127902   6.317   5.607   2.747
 9319TIP3    H227903   6.456   5.557   2.779
 9320TIP3   OH227904   6.621   7.350   1.362
 9320TIP3    H127905   6.553   7.417   1.366
 9320TIP3    H227906   6.660   7.360   1.275
 9321TIP3   OH227907   1.212   6.435   5.432
 9321TIP3    H127908   1.290   6.391   5.400
 9321TIP3    H227909   1.150   6.430   5.359
 9322TIP3   OH227910   7.835   5.677   2.924
 9322TIP3    H127911   7.769   5.709   2.986
 9322TIP3    H227912   7.904   5.640   2.979
 9323TIP3   OH227913   4.973   0.333   0.129
 9323TIP3    H127914   5.034   0.395   0.089
 9323TIP3    H227915   5.030   0.264   0.165
 9324TIP3   OH227916   1.371   4.015   3.552
 9324TIP3    H127917   1.457   3.999   3.591
 9324TIP3    H227918   1.333   4.086   3.606
 9325TIP3   OH227919   6.608   3.948   0.106
 9325TIP3    H127920   6.512   3.947   0.106
 9325TIP3    H227921   6.631   4.038   0.082
 9326TIP3   OH227922   7.753   4.526   6.260
 9326TIP3    H127923   7.818   4.522   6.330
 9326TIP3    H227924   7.672   4.495   6.301
 9327TIP3   OH227925   2.590   0.364   2.007
 9327TIP3    H127926   2.604   0.419   1.930
 9327TIP3    H227927   2.639   0.284   1.990
 9328TIP3   OH227928   0.420   7.327   3.357
 9328TIP3    H127929   0.349   7.263   3.355
 9328TIP3    H227930   0.422   7.364   3.268
 9329TIP3   OH227931   3.401   0.955   6.511
 9329TIP3    H127932   3.306   0.946   6.517
 9329TIP3    H227933   3.415   1.042   6.474
 9330TIP3   OH227934   0.915   2.264   2.537
 9330TIP3    H127935   0.836   2.260   2.590
 9330TIP3    H227936   0.942   2.356   2.541
 9331TIP3   OH227937   4.258   2.219   5.552
 9331TIP3    H127938   4.335   2.199   5.499
 9331TIP3    H227939   4.294   2.255   5.633
 9332TIP3   OH227940   0.114   7.326   5.651
 9332TIP3    H127941   0.102   7.240   5.611
 9332TIP3    H227942   0.179   7.369   5.595
 9333TIP3   OH227943   7.363   1.044   2.659
 9333TIP3    H127944   7.454   1.033   2.633
 9333TIP3    H227945   7.316   1.059   2.577
 9334TIP3   OH227946   3.108   7.596   2.150
 9334TIP3    H127947   3.141   7.520   2.197
 9334TIP3    H227948   3.071   7.652   2.218
 9335TIP3   OH227949   8.178   5.141   2.948
 9335TIP3    H127950   8.229   5.081   3.002
 9335TIP3    H227951   8.107   5.087   2.913
 9336TIP3   OH227952   6.016   7.182   6.205
 9336TIP3    H127953   6.001   7.171   6.299
 9336TIP3    H227954   5.928   7.177   6.166
 9337TIP3   OH227955   5.385   1.266   0.318
 9337TIP3    H127956   5.470   1.276   0.362
 9337TIP3    H227957   5.382   1.173   0.293
 9338TIP3   OH227958   3.886   2.632   2.640
 9338TIP3    H127959   3.812   2.616   2.698
 9338TIP3    H227960   3.936   2.701   2.684
 9339TIP3   OH227961   6.806   1.291   6.044
 9339TIP3    H127962   6.796   1.270   5.951
 9339TIP3    H227963   6.900   1.293   6.059
 9340TIP3   OH227964   0.044   2.353   3.145
 9340TIP3    H127965   0.019   2.341   3.236
 9340TIP3    H227966  -0.037   2.339   3.096
 9341TIP3   OH227967   6.489   6.936   3.225
 9341TIP3    H127968   6.429   6.996   3.269
 9341TIP3    H227969   6.449   6.849   3.236
 9342TIP3   OH227970   2.427   2.134   5.916
 9342TIP3    H127971   2.390   2.120   5.829
 9342TIP3    H227972   2.351   2.155   5.971
 9343TIP3   OH227973   2.929   0.774   5.372
 9343TIP3    H127974   3.012   0.791   5.415
 9343TIP3    H227975   2.899   0.860   5.343
 9344TIP3   OH227976   0.040   0.928   6.264
 9344TIP3    H127977   0.134   0.947   6.266
 9344TIP3    H227978   0.034   0.833   6.278
 9345TIP3   OH227979   3.620   5.144   1.101
 9345TIP3    H127980   3.563   5.084   1.149
 9345TIP3    H227981   3.605   5.122   1.009
 9346TIP3   OH227982   5.104   0.005   1.381
 9346TIP3    H127983   5.148   0.037   1.460
 9346TIP3    H227984   5.011   0.024   1.397
 9347TIP3   OH227985   6.758   5.427   4.722
 9347TIP3    H127986   6.823   5.494   4.742
 9347TIP3    H227987   6.674   5.471   4.733
 9348TIP3   OH227988   5.011   6.447   6.290
 9348TIP3    H127989   5.097   6.479   6.265
 9348TIP3    H227990   4.950   6.513   6.257
 9349TIP3   OH227991   3.841   6.016   2.160
 9349TIP3    H127992   3.927   6.055   2.150
 9349TIP3    H227993   3.780   6.090   2.159
 9350TIP3   OH227994   7.073   0.414   4.805
 9350TIP3    H127995   7.093   0.341   4.747
 9350TIP3    H227996   7.072   0.491   4.748
 9351TIP3   OH227997   5.786   5.891   4.655
 9351TIP3    H127998   5.859   5.950   4.675
 9351TIP3    H227999   5.708   5.939   4.681
 9352TIP3   OH228000   6.919   0.599   5.181
 9352TIP3    H128001   7.006   0.560   5.175
 9352TIP3    H228002   6.866   0.532   5.223
 9353TIP3   OH228003   6.109   4.523   6.540
 9353TIP3    H128004   6.148   4.610   6.525
 9353TIP3    H228005   6.184   4.466   6.554
 9354TIP3   OH228006   5.960   5.886   3.482
 9354TIP3    H128007   5.917   5.884   3.397
 9354TIP3    H228008   5.909   5.949   3.533
 9355TIP3   OH228009   7.683   1.357   2.099
 9355TIP3    H128010   7.676   1.298   2.024
 9355TIP3    H228011   7.675   1.445   2.061
 9356TIP3   OH228012   1.735   2.420   5.649
 9356TIP3    H128013   1.686   2.497   5.676
 9356TIP3    H228014   1.801   2.453   5.588
 9357TIP3   OH228015   0.876   7.162   5.867
 9357TIP3    H128016   0.847   7.210   5.789
 9357TIP3    H228017   0.796   7.125   5.904
 9358TIP3   OH228018   5.054   4.451   4.503
 9358TIP3    H128019   5.120   4.434   4.436
 9358TIP3    H228020   5.081   4.533   4.543
 9359TIP3   OH228021   0.956   3.259   2.921
 9359TIP3    H128022   1.023   3.293   2.979
 9359TIP3    H228023   0.984   3.286   2.833
 9360TIP3   OH228024   2.737   0.134   0.845
 9360TIP3    H128025   2.736   0.206   0.781
 9360TIP3    H228026   2.653   0.090   0.833
 9361TIP3   OH228027   5.174   5.137   2.528
 9361TIP3    H128028   5.226   5.062   2.498
 9361TIP3    H228029   5.106   5.098   2.584
 9362TIP3   OH228030   4.684   2.856   2.138
 9362TIP3    H128031   4.591   2.878   2.145
 9362TIP3    H228032   4.707   2.879   2.048
 9363TIP3   OH228033   1.777   3.695   1.419
 9363TIP3    H128034   1.846   3.705   1.486
 9363TIP3    H228035   1.779   3.603   1.396
 9364TIP3   OH228036   6.020   2.689   5.094
 9364TIP3    H128037   6.104   2.659   5.127
 9364TIP3    H228038   5.981   2.613   5.051
 9365TIP3   OH228039   3.180   4.273   1.987
 9365TIP3    H128040   3.135   4.201   1.942
 9365TIP3    H228041   3.112   4.340   1.998
 9366TIP3   OH228042   3.014   6.318   2.508
 9366TIP3    H128043   3.082   6.371   2.466
 9366TIP3    H228044   3.056   6.283   2.587
 9367TIP3   OH228045   3.936   2.372   6.562
 9367TIP3    H128046   3.841   2.367   6.573
 9367TIP3    H228047   3.948   2.435   6.491
 9368TIP3   OH228048   3.274   5.325   1.600
 9368TIP3    H128049   3.360   5.336   1.559
 9368TIP3    H228050   3.248   5.413   1.626
 9369TIP3   OH228051   4.303   4.818   5.075
 9369TIP3    H128052   4.355   4.758   5.022
 9369TIP3    H228053   4.217   4.818   5.033
 9370TIP3   OH228054   6.311   4.553   3.036
 9370TIP3    H128055   6.240   4.604   3.076
 9370TIP3    H228056   6.390   4.582   3.083
 9371TIP3   OH228057   7.205   6.713   1.971
 9371TIP3    H128058   7.133   6.775   1.987
 9371TIP3    H228059   7.264   6.761   1.914
 9372TIP3   OH228060   7.836   3.471   0.385
 9372TIP3    H128061   7.756   3.441   0.343
 9372TIP3    H228062   7.883   3.518   0.317
 9373TIP3   OH228063   4.624   2.774   4.573
 9373TIP3    H128064   4.707   2.767   4.619
 9373TIP3    H228065   4.609   2.686   4.537
 9374TIP3   OH228066   2.757   1.787   3.007
 9374TIP3    H128067   2.785   1.865   2.959
 9374TIP3    H228068   2.765   1.812   3.099
 9375TIP3   OH228069   2.854   0.568   0.476
 9375TIP3    H128070   2.887   0.587   0.563
 9375TIP3    H228071   2.800   0.490   0.487
 9376TIP3   OH228072   7.238   2.635   5.908
 9376TIP3    H128073   7.233   2.728   5.886
 9376TIP3    H228074   7.310   2.630   5.971
 9377TIP3   OH228075   7.889   1.104   4.077
 9377TIP3    H128076   7.894   1.119   4.171
 9377TIP3    H228077   7.919   1.014   4.066
 9378TIP3   OH228078   0.421   2.981   0.536
 9378TIP3    H128079   0.360   2.917   0.500
 9378TIP3    H228080   0.375   3.064   0.531
 9379TIP3   OH228081   7.627   0.958   3.612
 9379TIP3    H128082   7.545   0.977   3.567
 9379TIP3    H228083   7.693   0.960   3.544
 9380TIP3   OH228084   7.729   6.253   1.916
 9380TIP3    H128085   7.671   6.325   1.889
 9380TIP3    H228086   7.785   6.238   1.840
 9381TIP3   OH228087   7.383   0.677   2.257
 9381TIP3    H128088   7.348   0.766   2.246
 9381TIP3    H228089   7.468   0.690   2.299
 9382TIP3   OH228090   4.118   0.849   0.586
 9382TIP3    H128091   4.046   0.834   0.648
 9382TIP3    H228092   4.169   0.768   0.589
 9383TIP3   OH228093   3.948   6.944   3.267
 9383TIP3    H128094   3.891   7.022   3.266
 9383TIP3    H228095   3.982   6.940   3.356
 9384TIP3   OH228096   5.119   6.942   2.986
 9384TIP3    H128097   5.133   6.847   2.981
 9384TIP3    H228098   5.043   6.958   2.930
 9385TIP3   OH228099   3.164   4.700   4.850
 9385TIP3    H128100   3.245   4.670   4.809
 9385TIP3    H228101   3.098   4.691   4.781
 9386TIP3   OH228102   3.370   5.660   3.754
 9386TIP3    H128103   3.330   5.573   3.752
 9386TIP3    H228104   3.454   5.647   3.798
 9387TIP3   OH228105   6.398   1.313   1.061
 9387TIP3    H128106   6.437   1.228   1.040
 9387TIP3    H228107   6.396   1.315   1.156
 9388TIP3   OH228108   5.946   1.730   5.861
 9388TIP3    H128109   5.977   1.688   5.941
 9388TIP3    H228110   5.866   1.777   5.888
 9389TIP3   OH228111   3.906   0.635   6.475
 9389TIP3    H128112   3.980   0.652   6.416
 9389TIP3    H228113   3.845   0.708   6.459
 9390TIP3   OH228114   1.395   6.688   5.250
 9390TIP3    H128115   1.389   6.781   5.274
 9390TIP3    H228116   1.305   6.657   5.258
 9391TIP3   OH228117   1.073   1.940   3.651
 9391TIP3    H128118   1.002   1.889   3.612
 9391TIP3    H228119   1.145   1.932   3.588
 9392TIP3   OH228120   0.219   3.242   4.684
 9392TIP3    H128121   0.164   3.245   4.605
 9392TIP3    H228122   0.217   3.150   4.711
 9393TIP3   OH228123   0.113   0.325   1.477
 9393TIP3    H128124   0.123   0.417   1.501
 9393TIP3    H228125   0.198   0.286   1.496
 9394TIP3   OH228126   3.569   3.865   3.455
 9394TIP3    H128127   3.585   3.954   3.485
 9394TIP3    H228128   3.527   3.875   3.370
 9395TIP3   OH228129   2.092   5.099   1.768
 9395TIP3    H128130   2.106   5.083   1.674
 9395TIP3    H228131   2.058   5.016   1.802
 9396TIP3   OH228132   6.603   4.601   0.565
 9396TIP3    H128133   6.518   4.647   0.561
 9396TIP3    H228134   6.595   4.543   0.641
 9397TIP3   OH228135   6.104   1.928   4.427
 9397TIP3    H128136   6.087   1.842   4.464
 9397TIP3    H228137   6.049   1.988   4.477
 9398TIP3   OH228138   7.447   5.456   1.199
 9398TIP3    H128139   7.453   5.509   1.279
 9398TIP3    H228140   7.530   5.469   1.155
 9399TIP3   OH228141   1.890   3.825   2.000
 9399TIP3    H128142   1.887   3.733   1.973
 9399TIP3    H228143   1.940   3.825   2.081
 9400TIP3   OH228144   1.819   1.387   3.738
 9400TIP3    H128145   1.797   1.423   3.653
 9400TIP3    H228146   1.789   1.296   3.734
 9401TIP3   OH228147   3.150   5.326   6.127
 9401TIP3    H128148   3.224   5.266   6.141
 9401TIP3    H228149   3.190   5.404   6.088
 9402TIP3   OH228150   5.945   6.570   4.340
 9402TIP3    H128151   5.955   6.656   4.299
 9402TIP3    H228152   5.949   6.509   4.267
 9403TIP3   OH228153   0.379   4.932   1.596
 9403TIP3    H128154   0.360   4.841   1.620
 9403TIP3    H228155   0.310   4.955   1.533
 9404TIP3   OH228156   0.720   5.088   5.252
 9404TIP3    H128157   0.708   5.143   5.330
 9404TIP3    H228158   0.632   5.077   5.216
 9405TIP3   OH228159   1.303   4.413   4.492
 9405TIP3    H128160   1.331   4.423   4.583
 9405TIP3    H228161   1.305   4.501   4.456
 9406TIP3   OH228162   2.565   5.621   2.434
 9406TIP3    H128163   2.609   5.537   2.426
 9406TIP3    H228164   2.606   5.663   2.509
 9407TIP3   OH228165   2.935   5.762   2.143
 9407TIP3    H128166   2.974   5.849   2.153
 9407TIP3    H228167   3.003   5.710   2.099
 9408TIP3   OH228168   7.061   3.332   6.473
 9408TIP3    H128169   7.150   3.299   6.468
 9408TIP3    H228170   7.071   3.425   6.496
 9409TIP3   OH228171   0.503   2.920   4.103
 9409TIP3    H128172   0.589   2.905   4.065
 9409TIP3    H228173   0.492   2.849   4.166
 9410TIP3   OH228174   2.202   0.490   4.540
 9410TIP3    H128175   2.260   0.414   4.538
 9410TIP3    H228176   2.260   0.564   4.517
 9411TIP3   OH228177   5.826   3.928   6.186
 9411TIP3    H128178   5.814   3.969   6.100
 9411TIP3    H228179   5.737   3.917   6.220
 9412TIP3   OH228180   7.885   3.117   0.525
 9412TIP3    H128181   7.979   3.122   0.509
 9412TIP3    H228182   7.845   3.118   0.438
 9413TIP3   OH228183   7.516   0.865   5.123
 9413TIP3    H128184   7.421   0.867   5.113
 9413TIP3    H228185   7.532   0.911   5.205
 9414TIP3   OH228186   2.163   5.774   1.188
 9414TIP3    H128187   2.093   5.761   1.123
 9414TIP3    H228188   2.125   5.837   1.250
 9415TIP3   OH228189   5.036   4.255   2.418
 9415TIP3    H128190   4.976   4.310   2.367
 9415TIP3    H228191   4.979   4.193   2.463
 9416TIP3   OH228192   0.794   4.313   1.927
 9416TIP3    H128193   0.824   4.229   1.962
 9416TIP3    H228194   0.765   4.293   1.838
 9417TIP3   OH228195   2.418   2.835   0.420
 9417TIP3    H128196   2.351   2.855   0.355
 9417TIP3    H228197   2.370   2.801   0.495
 9418TIP3   OH228198   8.076   6.537   2.323
 9418TIP3    H128199   8.041   6.579   2.244
 9418TIP3    H228200   8.151   6.487   2.291
 9419TIP3   OH228201   3.528   0.440   6.316
 9419TIP3    H128202   3.468   0.368   6.339
 9419TIP3    H228203   3.540   0.488   6.398
 9420TIP3   OH228204   6.000   7.580   4.985
 9420TIP3    H128205   6.012   7.605   5.076
 9420TIP3    H228206   5.978   7.487   4.988
 9421TIP3   OH228207   7.858   6.841   2.786
 9421TIP3    H128208   7.765   6.834   2.766
 9421TIP3    H228209   7.900   6.777   2.728
 9422TIP3   OH228210   1.299   6.337   0.958
 9422TIP3    H128211   1.312   6.352   1.051
 9422TIP3    H228212   1.291   6.424   0.920
 9423TIP3   OH228213   6.546   5.927   1.306
 9423TIP3    H128214   6.574   5.838   1.288
 9423TIP3    H228215   6.614   5.964   1.362
 9424TIP3   OH228216   4.108   1.927   0.896
 9424TIP3    H128217   4.149   1.981   0.829
 9424TIP3    H228218   4.127   1.973   0.978
 9425TIP3   OH228219   2.343   0.430   5.682
 9425TIP3    H128220   2.428   0.414   5.724
 9425TIP3    H228221   2.279   0.399   5.746
 9426TIP3   OH228222   3.448   2.090   3.653
 9426TIP3    H128223   3.446   2.089   3.749
 9426TIP3    H228224   3.499   2.013   3.630
 9427TIP3   OH228225   5.597   5.507   3.697
 9427TIP3    H128226   5.688   5.481   3.712
 9427TIP3    H228227   5.555   5.494   3.782
 9428TIP3   OH228228   0.852   0.562   4.634
 9428TIP3    H128229   0.900   0.631   4.679
 9428TIP3    H228230   0.830   0.499   4.702
 9429TIP3   OH228231   6.345   5.961   2.592
 9429TIP3    H128232   6.310   6.041   2.553
 9429TIP3    H228233   6.424   5.990   2.638
 9430TIP3   OH228234   6.501   1.480   1.450
 9430TIP3    H128235   6.416   1.519   1.428
 9430TIP3    H228236   6.481   1.387   1.464
 9431TIP3   OH228237   1.544   2.189   4.193
 9431TIP3    H128238   1.550   2.155   4.282
 9431TIP3    H228239   1.535   2.284   4.204
 9432TIP3   OH228240   6.152   5.633   3.010
 9432TIP3    H128241   6.135   5.715   3.057
 9432TIP3    H228242   6.239   5.645   2.972
 9433TIP3   OH228243   5.135   3.335   6.329
 9433TIP3    H128244   5.072   3.275   6.370
 9433TIP3    H228245   5.140   3.409   6.390
 9434TIP3   OH228246   1.565   6.399   4.289
 9434TIP3    H128247   1.478   6.427   4.259
 9434TIP3    H228248   1.623   6.422   4.216
 9435TIP3   OH228249   2.947   7.148   2.312
 9435TIP3    H128250   2.944   7.198   2.230
 9435TIP3    H228251   2.906   7.064   2.289
 9436TIP3   OH228252   2.118   4.298   6.707
 9436TIP3    H128253   2.108   4.345   6.789
 9436TIP3    H228254   2.146   4.210   6.732
 9437TIP3   OH228255   1.511   7.622   5.452
 9437TIP3    H128256   1.552   7.705   5.431
 9437TIP3    H228257   1.430   7.622   5.401
 9438TIP3   OH228258   2.950   5.671   4.009
 9438TIP3    H128259   2.979   5.719   4.087
 9438TIP3    H228260   3.016   5.690   3.943
 9439TIP3   OH228261   6.714   2.180   4.872
 9439TIP3    H128262   6.797   2.140   4.849
 9439TIP3    H228263   6.735   2.239   4.944
 9440TIP3   OH228264   6.894   4.561   4.312
 9440TIP3    H128265   6.946   4.496   4.358
 9440TIP3    H228266   6.827   4.587   4.376
 9441TIP3   OH228267   6.866   1.383   0.050
 9441TIP3    H128268   6.837   1.322   0.117
 9441TIP3    H228269   6.936   1.433   0.092
 9442TIP3   OH228270   5.156   7.568   1.546
 9442TIP3    H128271   5.177   7.583   1.638
 9442TIP3    H228272   5.082   7.626   1.528
 9443TIP3   OH228273   6.265   6.145   1.653
 9443TIP3    H128274   6.329   6.191   1.708
 9443TIP3    H228275   6.195   6.208   1.639
 9444TIP3   OH228276   4.135   0.479   0.050
 9444TIP3    H128277   4.224   0.447   0.034
 9444TIP3    H228278   4.147   0.559   0.101
 9445TIP3   OH228279   6.922   7.098   3.379
 9445TIP3    H128280   6.879   7.025   3.334
 9445TIP3    H228281   6.850   7.149   3.416
 9446TIP3   OH228282   4.979   4.143   3.172
 9446TIP3    H128283   4.888   4.138   3.202
 9446TIP3    H228284   5.023   4.197   3.238
 9447TIP3   OH228285   0.340   3.590   4.781
 9447TIP3    H128286   0.305   3.516   4.732
 9447TIP3    H228287   0.405   3.630   4.723
 9448TIP3   OH228288   3.466   5.562   1.962
 9448TIP3    H128289   3.524   5.637   1.951
 9448TIP3    H228290   3.468   5.517   1.878
 9449TIP3   OH228291   4.672   3.881   6.666
 9449TIP3    H128292   4.649   3.819   6.735
 9449TIP3    H228293   4.730   3.832   6.607
 9450TIP3   OH228294   4.126   3.761   1.821
 9450TIP3    H128295   4.171   3.769   1.905
 9450TIP3    H228296   4.120   3.851   1.788
 9451TIP3   OH228297   6.804   3.352   6.335
 9451TIP3    H128298   6.867   3.339   6.405
 9451TIP3    H228299   6.752   3.271   6.334
 9452TIP3   OH228300   6.221   2.290   0.109
 9452TIP3    H128301   6.287   2.313   0.044
 9452TIP3    H228302   6.224   2.194   0.113
 9453TIP3   OH228303   1.711   0.875   2.606
 9453TIP3    H128304   1.767   0.835   2.539
 9453TIP3    H228305   1.702   0.808   2.673
 9454TIP3   OH228306   2.865   5.367   5.728
 9454TIP3    H128307   2.901   5.296   5.673
 9454TIP3    H228308   2.888   5.341   5.818
 9455TIP3   OH228309   3.880   6.446   1.664
 9455TIP3    H128310   3.810   6.504   1.632
 9455TIP3    H228311   3.905   6.395   1.588
 9456TIP3   OH228312   5.715   4.303   0.904
 9456TIP3    H128313   5.679   4.214   0.906
 9456TIP3    H228314   5.713   4.327   0.811
 9457TIP3   OH228315   5.939   6.751   5.126
 9457TIP3    H128316   5.866   6.786   5.075
 9457TIP3    H228317   5.966   6.673   5.078
 9458TIP3   OH228318   6.502   7.298   3.090
 9458TIP3    H128319   6.475   7.373   3.143
 9458TIP3    H228320   6.427   7.280   3.034
 9459TIP3   OH228321   0.345   0.894   4.890
 9459TIP3    H128322   0.265   0.943   4.906
 9459TIP3    H228323   0.409   0.931   4.950
 9460TIP3   OH228324   6.735   2.429   3.121
 9460TIP3    H128325   6.716   2.425   3.215
 9460TIP3    H228326   6.755   2.521   3.104
 9461TIP3   OH228327   7.279   1.539   3.431
 9461TIP3    H128328   7.290   1.553   3.337
 9461TIP3    H228329   7.326   1.612   3.471
 9462TIP3   OH228330   4.881   4.467   6.626
 9462TIP3    H128331   4.904   4.551   6.586
 9462TIP3    H228332   4.877   4.487   6.720
 9463TIP3   OH228333   5.681   1.574   6.531
 9463TIP3    H128334   5.598   1.545   6.569
 9463TIP3    H228335   5.745   1.562   6.601
 9464TIP3   OH228336   7.297   6.230   0.037
 9464TIP3    H128337   7.222   6.289   0.042
 9464TIP3    H228338   7.370   6.286   0.009
 9465TIP3   OH228339   3.378   4.892   3.225
 9465TIP3    H128340   3.299   4.838   3.221
 9465TIP3    H228341   3.427   4.856   3.299
 9466TIP3   OH228342   4.978   7.031   6.646
 9466TIP3    H128343   5.055   6.978   6.624
 9466TIP3    H228344   4.969   7.023   6.741
 9467TIP3   OH228345   4.583   5.968   2.057
 9467TIP3    H128346   4.548   6.034   1.997
 9467TIP3    H228347   4.582   5.886   2.006
 9468TIP3   OH228348   2.308   7.249   3.051
 9468TIP3    H128349   2.248   7.187   3.009
 9468TIP3    H228350   2.253   7.297   3.112
 9469TIP3   OH228351   7.584   4.067   2.894
 9469TIP3    H128352   7.507   4.067   2.836
 9469TIP3    H228353   7.659   4.068   2.834
 9470TIP3   OH228354   6.203   5.336   2.569
 9470TIP3    H128355   6.123   5.385   2.548
 9470TIP3    H228356   6.190   5.306   2.658
 9471TIP3   OH228357   4.025   2.407   5.683
 9471TIP3    H128358   4.093   2.450   5.631
 9471TIP3    H228359   3.975   2.357   5.619
 9472TIP3   OH228360   2.852   4.425   4.618
 9472TIP3    H128361   2.894   4.508   4.642
 9472TIP3    H228362   2.808   4.396   4.698
 9473TIP3   OH228363   5.269   7.172   1.252
 9473TIP3    H128364   5.321   7.243   1.288
 9473TIP3    H228365   5.181   7.208   1.243
 9474TIP3   OH228366   5.197   1.152   3.537
 9474TIP3    H128367   5.233   1.068   3.564
 9474TIP3    H228368   5.113   1.159   3.583
 9475TIP3   OH228369   6.578   2.656   0.761
 9475TIP3    H128370   6.586   2.722   0.830
 9475TIP3    H228371   6.657   2.603   0.770
 9476TIP3   OH228372   7.037   7.144   5.786
 9476TIP3    H128373   7.013   7.059   5.822
 9476TIP3    H228374   7.103   7.125   5.720
 9477TIP3   OH228375   7.290   0.322   5.564
 9477TIP3    H128376   7.259   0.242   5.520
 9477TIP3    H228377   7.256   0.394   5.511
 9478TIP3   OH228378   1.796   0.565   5.565
 9478TIP3    H128379   1.705   0.556   5.535
 9478TIP3    H228380   1.849   0.545   5.489
 9479TIP3   OH228381   7.419   1.529   5.352
 9479TIP3    H128382   7.399   1.472   5.426
 9479TIP3    H228383   7.339   1.529   5.299
 9480TIP3   OH228384   3.054   5.359   3.557
 9480TIP3    H128385   3.140   5.400   3.556
 9480TIP3    H228386   3.040   5.331   3.467
 9481TIP3   OH228387   3.326   3.453   4.608
 9481TIP3    H128388   3.261   3.455   4.679
 9481TIP3    H228389   3.349   3.360   4.599
 9482TIP3   OH228390   2.073   0.698   4.360
 9482TIP3    H128391   2.110   0.757   4.427
 9482TIP3    H228392   2.082   0.611   4.398
 9483TIP3   OH228393   3.448   0.144   1.866
 9483TIP3    H128394   3.389   0.171   1.796
 9483TIP3    H228395   3.468   0.225   1.913
 9484TIP3   OH228396   4.742   3.286   5.677
 9484TIP3    H128397   4.689   3.343   5.733
 9484TIP3    H228398   4.694   3.284   5.594
 9485TIP3   OH228399   1.519   3.661   6.425
 9485TIP3    H128400   1.594   3.659   6.365
 9485TIP3    H228401   1.493   3.753   6.427
 9486TIP3   OH228402   6.338   7.141   5.050
 9486TIP3    H128403   6.337   7.077   5.121
 9486TIP3    H228404   6.354   7.088   4.971
 9487TIP3   OH228405   1.742   1.294   0.901
 9487TIP3    H128406   1.649   1.311   0.913
 9487TIP3    H228407   1.772   1.364   0.844
 9488TIP3   OH228408   5.830   0.507   0.677
 9488TIP3    H128409   5.792   0.591   0.653
 9488TIP3    H228410   5.757   0.457   0.714
 9489TIP3   OH228411   4.714   2.238   4.893
 9489TIP3    H128412   4.789   2.250   4.952
 9489TIP3    H228413   4.647   2.199   4.948
 9490TIP3   OH228414   0.851   7.076   3.405
 9490TIP3    H128415   0.862   7.094   3.498
 9490TIP3    H228416   0.763   7.040   3.397
 9491TIP3   OH228417   7.805   1.105   0.790
 9491TIP3    H128418   7.785   1.011   0.783
 9491TIP3    H228419   7.866   1.111   0.863
 9492TIP3   OH228420   2.009   0.068   3.881
 9492TIP3    H128421   1.943   0.008   3.845
 9492TIP3    H228422   1.963   0.115   3.950
 9493TIP3   OH228423   7.454   1.446   1.121
 9493TIP3    H128424   7.460   1.356   1.154
 9493TIP3    H228425   7.381   1.484   1.169
 9494TIP3   OH228426   1.755   0.176   6.127
 9494TIP3    H128427   1.800   0.259   6.112
 9494TIP3    H228428   1.662   0.199   6.128
 9495TIP3   OH228429   3.347   6.817   1.574
 9495TIP3    H128430   3.386   6.870   1.505
 9495TIP3    H228431   3.351   6.873   1.652
 9496TIP3   OH228432   7.911   3.681   4.725
 9496TIP3    H128433   7.950   3.594   4.730
 9496TIP3    H228434   7.882   3.689   4.635
 9497TIP3   OH228435   3.814   6.883   5.059
 9497TIP3    H128436   3.856   6.875   4.973
 9497TIP3    H228437   3.728   6.843   5.047
 9498TIP3   OH228438   3.659   7.674   0.505
 9498TIP3    H128439   3.707   7.751   0.475
 9498TIP3    H228440   3.663   7.613   0.431
 9499TIP3   OH228441   6.890   7.655   5.222
 9499TIP3    H128442   6.895   7.560   5.220
 9499TIP3    H228443   6.821   7.677   5.159
 9500TIP3   OH228444   2.722   5.312   0.289
 9500TIP3    H128445   2.633   5.315   0.325
 9500TIP3    H228446   2.746   5.219   0.293
 9501TIP3   OH228447   0.105   7.293   3.687
 9501TIP3    H128448   0.164   7.250   3.748
 9501TIP3    H228449   0.159   7.361   3.646
 9502TIP3   OH228450   6.517   3.935   6.732
 9502TIP3    H128451   6.494   3.843   6.724
 9502TIP3    H228452   6.445   3.974   6.782
 9503TIP3   OH228453   3.099   6.027   4.868
 9503TIP3    H128454   3.140   6.107   4.835
 9503TIP3    H228455   3.006   6.049   4.877
 9504TIP3   OH228456   2.462   2.938   5.920
 9504TIP3    H128457   2.545   2.946   5.966
 9504TIP3    H228458   2.473   2.988   5.840
 9505TIP3   OH228459   0.642   2.739   1.974
 9505TIP3    H128460   0.672   2.685   2.046
 9505TIP3    H228461   0.553   2.764   1.997
 9506TIP3   OH228462   4.739   2.103   4.656
 9506TIP3    H128463   4.797   2.148   4.595
 9506TIP3    H228464   4.730   2.163   4.730
 9507TIP3   OH228465   4.080   0.526   1.971
 9507TIP3    H128466   4.124   0.448   1.938
 9507TIP3    H228467   4.070   0.511   2.065
 9508TIP3   OH228468   4.997   0.464   1.648
 9508TIP3    H128469   5.090   0.444   1.641
 9508TIP3    H228470   4.993   0.559   1.656
 9509TIP3   OH228471   5.410   3.174   5.941
 9509TIP3    H128472   5.477   3.242   5.944
 9509TIP3    H228473   5.438   3.116   5.870
 9510TIP3   OH228474   3.690   2.848   5.086
 9510TIP3    H128475   3.668   2.761   5.053
 9510TIP3    H228476   3.607   2.895   5.087
 9511TIP3   OH228477   4.994   5.821   2.650
 9511TIP3    H128478   4.969   5.855   2.736
 9511TIP3    H228479   4.911   5.803   2.606
 9512TIP3   OH228480   2.591   2.854   2.718
 9512TIP3    H128481   2.509   2.871   2.672
 9512TIP3    H228482   2.643   2.934   2.705
 9513TIP3   OH228483   5.607   4.033   6.655
 9513TIP3    H128484   5.631   4.125   6.654
 9513TIP3    H228485   5.684   3.988   6.690
 9514TIP3   OH228486   1.419   6.241   0.720
 9514TIP3    H128487   1.362   6.266   0.793
 9514TIP3    H228488   1.507   6.263   0.751
 9515TIP3   OH228489   1.342   1.931   2.220
 9515TIP3    H128490   1.258   1.957   2.258
 9515TIP3    H228491   1.331   1.944   2.125
 9516TIP3   OH228492   7.662   3.336   2.195
 9516TIP3    H128493   7.700   3.389   2.124
 9516TIP3    H228494   7.601   3.277   2.150
 9517TIP3   OH228495   3.323   0.185   5.577
 9517TIP3    H128496   3.397   0.190   5.637
 9517TIP3    H228497   3.307   0.275   5.550
 9518TIP3   OH228498   1.627   2.381   0.048
 9518TIP3    H128499   1.649   2.443   0.118
 9518TIP3    H228500   1.684   2.406  -0.025
 9519TIP3   OH228501   1.235   6.111   4.781
 9519TIP3    H128502   1.274   6.026   4.800
 9519TIP3    H228503   1.221   6.110   4.686
 9520TIP3   OH228504   6.540   5.585   4.791
 9520TIP3    H128505   6.565   5.598   4.883
 9520TIP3    H228506   6.495   5.666   4.767
 9521TIP3   OH228507   7.245   4.409   3.246
 9521TIP3    H128508   7.308   4.481   3.236
 9521TIP3    H228509   7.294   4.339   3.288
 9522TIP3   OH228510   3.735   4.596   3.147
 9522TIP3    H128511   3.743   4.500   3.150
 9522TIP3    H228512   3.824   4.626   3.125
 9523TIP3   OH228513   7.472   0.689   0.446
 9523TIP3    H128514   7.504   0.777   0.466
 9523TIP3    H228515   7.531   0.631   0.494
 9524TIP3   OH228516   4.698   5.949   1.725
 9524TIP3    H128517   4.782   5.914   1.697
 9524TIP3    H228518   4.700   5.943   1.821
 9525TIP3   OH228519   3.362   0.902   3.893
 9525TIP3    H128520   3.455   0.877   3.894
 9525TIP3    H228521   3.358   0.974   3.830
 9526TIP3   OH228522   7.235   4.354   3.838
 9526TIP3    H128523   7.283   4.351   3.920
 9526TIP3    H228524   7.177   4.278   3.841
 9527TIP3   OH228525   0.945   4.855   0.567
 9527TIP3    H128526   0.970   4.947   0.567
 9527TIP3    H228527   0.876   4.849   0.501
 9528TIP3   OH228528   5.361   3.085   4.445
 9528TIP3    H128529   5.303   3.031   4.391
 9528TIP3    H228530   5.331   3.174   4.430
 9529TIP3   OH228531   6.547   4.674   5.966
 9529TIP3    H128532   6.589   4.688   5.881
 9529TIP3    H228533   6.607   4.712   6.030
 9530TIP3   OH228534   3.463   4.349   2.041
 9530TIP3    H128535   3.434   4.439   2.029
 9530TIP3    H228536   3.389   4.296   2.009
 9531TIP3   OH228537   5.489   5.404   6.609
 9531TIP3    H128538   5.464   5.422   6.700
 9531TIP3    H228539   5.580   5.431   6.603
 9532TIP3   OH228540   2.297   4.321   0.908
 9532TIP3    H128541   2.322   4.411   0.888
 9532TIP3    H228542   2.367   4.268   0.869
 9533TIP3   OH228543   4.193   7.801   1.529
 9533TIP3    H128544   4.214   7.775   1.618
 9533TIP3    H228545   4.195   7.719   1.479
 9534TIP3   OH228546   6.121   0.926   2.628
 9534TIP3    H128547   6.122   1.022   2.629
 9534TIP3    H228548   6.211   0.900   2.648
 9535TIP3   OH228549   4.467   1.205   2.243
 9535TIP3    H128550   4.380   1.187   2.280
 9535TIP3    H228551   4.485   1.296   2.268
 9536TIP3   OH228552   4.160   5.106   4.003
 9536TIP3    H128553   4.216   5.032   4.029
 9536TIP3    H228554   4.162   5.104   3.908
 9537TIP3   OH228555   0.037   6.456   2.232
 9537TIP3    H128556   0.073   6.544   2.221
 9537TIP3    H228557   0.091   6.416   2.300
 9538TIP3   OH228558   8.227   6.280   1.450
 9538TIP3    H128559   8.262   6.311   1.367
 9538TIP3    H228560   8.252   6.188   1.454
 9539TIP3   OH228561   2.978   1.941   6.758
 9539TIP3    H128562   2.959   1.863   6.705
 9539TIP3    H228563   2.893   1.966   6.795
 9540TIP3   OH228564   5.681   1.589   5.270
 9540TIP3    H128565   5.734   1.525   5.224
 9540TIP3    H228566   5.651   1.649   5.202
 9541TIP3   OH228567   4.015   0.060   4.685
 9541TIP3    H128568   3.935   0.049   4.736
 9541TIP3    H228569   3.987   0.108   4.607
 9542TIP3   OH228570   2.963   4.379   5.004
 9542TIP3    H128571   2.913   4.459   4.985
 9542TIP3    H228572   3.029   4.374   4.936
 9543TIP3   OH228573   2.110   5.292   2.597
 9543TIP3    H128574   2.106   5.375   2.548
 9543TIP3    H228575   2.074   5.227   2.536
 9544TIP3   OH228576   3.698   5.793   6.122
 9544TIP3    H128577   3.752   5.832   6.053
 9544TIP3    H228578   3.735   5.706   6.135
 9545TIP3   OH228579   1.505   4.189   0.944
 9545TIP3    H128580   1.540   4.181   0.855
 9545TIP3    H228581   1.564   4.137   0.997
 9546TIP3   OH228582   5.682   0.739   0.633
 9546TIP3    H128583   5.590   0.754   0.652
 9546TIP3    H228584   5.729   0.807   0.681
 9547TIP3   OH228585   0.881   5.260   3.381
 9547TIP3    H128586   0.919   5.291   3.299
 9547TIP3    H228587   0.801   5.214   3.354
 9548TIP3   OH228588   3.997   7.464   2.662
 9548TIP3    H128589   4.047   7.522   2.720
 9548TIP3    H228590   4.054   7.450   2.587
 9549TIP3   OH228591   7.324   7.790   6.325
 9549TIP3    H128592   7.405   7.751   6.293
 9549TIP3    H228593   7.312   7.867   6.270
 9550TIP3   OH228594   1.216   4.372   0.257
 9550TIP3    H128595   1.283   4.440   0.263
 9550TIP3    H228596   1.197   4.350   0.348
 9551TIP3   OH228597   3.054   0.329   5.314
 9551TIP3    H128598   3.031   0.332   5.222
 9551TIP3    H228599   3.096   0.244   5.326
 9552TIP3   OH228600   6.028   0.363   6.231
 9552TIP3    H128601   6.015   0.406   6.146
 9552TIP3    H228602   5.955   0.303   6.239
 9553TIP3   OH228603   4.255   1.650   6.289
 9553TIP3    H128604   4.275   1.605   6.207
 9553TIP3    H228605   4.171   1.613   6.316
 9554TIP3   OH228606   5.241   6.242   5.731
 9554TIP3    H128607   5.285   6.326   5.717
 9554TIP3    H228608   5.233   6.234   5.826
 9555TIP3   OH228609   2.657   1.548   1.655
 9555TIP3    H128610   2.687   1.484   1.719
 9555TIP3    H228611   2.733   1.567   1.601
 9556TIP3   OH228612   1.805   4.415   5.676
 9556TIP3    H128613   1.799   4.486   5.613
 9556TIP3    H228614   1.729   4.426   5.733
 9557TIP3   OH228615   5.127   3.065   1.454
 9557TIP3    H128616   5.181   3.143   1.443
 9557TIP3    H228617   5.125   3.024   1.368
 9558TIP3   OH228618   6.458   4.726   1.059
 9558TIP3    H128619   6.414   4.781   0.994
 9558TIP3    H228620   6.537   4.775   1.082
 9559TIP3   OH228621   0.145   4.657   0.033
 9559TIP3    H128622   0.239   4.669   0.019
 9559TIP3    H228623   0.115   4.611  -0.045
 9560TIP3   OH228624   6.074   7.042   1.320
 9560TIP3    H128625   6.023   6.961   1.313
 9560TIP3    H228626   6.009   7.110   1.338
 9561TIP3   OH228627   0.488   3.746   4.589
 9561TIP3    H128628   0.512   3.782   4.503
 9561TIP3    H228629   0.486   3.823   4.647
 9562TIP3   OH228630   2.410   1.315   3.715
 9562TIP3    H128631   2.400   1.359   3.631
 9562TIP3    H228632   2.326   1.328   3.759
 9563TIP3   OH228633   3.540   6.032   3.087
 9563TIP3    H128634   3.466   5.995   3.135
 9563TIP3    H228635   3.591   5.956   3.059
 9564TIP3   OH228636   0.724   5.566   3.920
 9564TIP3    H128637   0.741   5.486   3.971
 9564TIP3    H228638   0.644   5.601   3.957
 9565TIP3   OH228639   3.066   7.535   1.300
 9565TIP3    H128640   3.004   7.464   1.319
 9565TIP3    H228641   3.021   7.614   1.329
 9566TIP3   OH228642   1.302   2.523   5.970
 9566TIP3    H128643   1.263   2.441   5.998
 9566TIP3    H228644   1.264   2.589   6.028
 9567TIP3   OH228645   3.309   4.326   5.539
 9567TIP3    H128646   3.317   4.358   5.628
 9567TIP3    H228647   3.391   4.281   5.521
 9568TIP3   OH228648   2.265   6.661   2.639
 9568TIP3    H128649   2.309   6.626   2.562
 9568TIP3    H228650   2.336   6.692   2.695
 9569TIP3   OH228651   4.936   0.533   5.955
 9569TIP3    H128652   4.933   0.593   6.029
 9569TIP3    H228653   4.844   0.514   5.936
 9570TIP3   OH228654   6.952   5.303   4.553
 9570TIP3    H128655   6.874   5.332   4.600
 9570TIP3    H228656   6.992   5.384   4.521
 9571TIP3   OH228657   7.397   4.898   0.035
 9571TIP3    H128658   7.307   4.883   0.063
 9571TIP3    H228659   7.432   4.958   0.101
 9572TIP3   OH228660   7.847   4.973   6.678
 9572TIP3    H128661   7.775   5.033   6.695
 9572TIP3    H228662   7.889   5.007   6.599
 9573TIP3   OH228663   2.274   3.530   4.820
 9573TIP3    H128664   2.273   3.441   4.785
 9573TIP3    H228665   2.324   3.523   4.901
 9574TIP3   OH228666   3.262   5.519   5.959
 9574TIP3    H128667   3.199   5.567   5.905
 9574TIP3    H228668   3.318   5.587   5.997
 9575TIP3   OH228669   0.269   1.524   4.469
 9575TIP3    H128670   0.361   1.499   4.483
 9575TIP3    H228671   0.274   1.598   4.409
 9576TIP3   OH228672   6.412   7.411   0.223
 9576TIP3    H128673   6.342   7.391   0.161
 9576TIP3    H228674   6.492   7.376   0.182
 9577TIP3   OH228675   2.825   3.923   0.157
 9577TIP3    H128676   2.808   3.829   0.153
 9577TIP3    H228677   2.869   3.943   0.075
 9578TIP3   OH228678   4.217   3.258   3.876
 9578TIP3    H128679   4.154   3.200   3.918
 9578TIP3    H228680   4.273   3.288   3.948
 9579TIP3   OH228681   5.157   5.680   6.662
 9579TIP3    H128682   5.122   5.716   6.744
 9579TIP3    H228683   5.118   5.593   6.656
 9580TIP3   OH228684   8.274   1.701   6.518
 9580TIP3    H128685   8.236   1.651   6.591
 9580TIP3    H228686   8.327   1.769   6.560
 9581TIP3   OH228687   2.883   0.267   0.226
 9581TIP3    H128688   2.892   0.215   0.306
 9581TIP3    H228689   2.892   0.203   0.155
 9582TIP3   OH228690   7.073   1.243   2.658
 9582TIP3    H128691   7.111   1.290   2.733
 9582TIP3    H228692   6.991   1.288   2.641
 9583TIP3   OH228693   0.088   7.094   1.491
 9583TIP3    H128694   0.176   7.119   1.519
 9583TIP3    H228695   0.076   7.007   1.527
 9584TIP3   OH228696   2.459   5.756   1.217
 9584TIP3    H128697   2.373   5.779   1.181
 9584TIP3    H228698   2.450   5.769   1.311
 9585TIP3   OH228699   7.675   2.615   3.072
 9585TIP3    H128700   7.589   2.635   3.108
 9585TIP3    H228701   7.666   2.632   2.978
 9586TIP3   OH228702   5.833   2.603   0.338
 9586TIP3    H128703   5.810   2.611   0.246
 9586TIP3    H228704   5.928   2.620   0.340
 9587TIP3   OH228705   3.101   7.047   0.370
 9587TIP3    H128706   3.076   6.973   0.314
 9587TIP3    H228707   3.035   7.049   0.438
 9588TIP3   OH228708   2.403   2.936   1.692
 9588TIP3    H128709   2.459   2.860   1.708
 9588TIP3    H228710   2.439   3.004   1.748
 9589TIP3   OH228711   0.495   5.545   3.198
 9589TIP3    H128712   0.563   5.499   3.247
 9589TIP3    H228713   0.533   5.559   3.111
 9590TIP3   OH228714   4.406   4.885   5.317
 9590TIP3    H128715   4.457   4.964   5.334
 9590TIP3    H228716   4.416   4.870   5.223
 9591TIP3   OH228717   1.659   1.372   6.579
 9591TIP3    H128718   1.674   1.278   6.592
 9591TIP3    H228719   1.571   1.377   6.540
 9592TIP3   OH228720   1.968   4.636   3.530
 9592TIP3    H128721   1.972   4.544   3.557
 9592TIP3    H228722   2.052   4.652   3.486
 9593TIP3   OH228723   2.722   5.022   5.241
 9593TIP3    H128724   2.729   5.055   5.151
 9593TIP3    H228725   2.708   4.928   5.230
 9594TIP3   OH228726   3.801   0.548   4.707
 9594TIP3    H128727   3.884   0.547   4.660
 9594TIP3    H228728   3.801   0.632   4.754
 9595TIP3   OH228729   6.919   5.096   6.633
 9595TIP3    H128730   7.011   5.091   6.659
 9595TIP3    H228731   6.873   5.040   6.697
 9596TIP3   OH228732   2.618   3.253   6.546
 9596TIP3    H128733   2.668   3.237   6.466
 9596TIP3    H228734   2.628   3.348   6.561
 9597TIP3   OH228735   5.799   4.049   0.545
 9597TIP3    H128736   5.761   4.065   0.458
 9597TIP3    H228737   5.755   4.113   0.602
 9598TIP3   OH228738   6.123   5.019   5.846
 9598TIP3    H128739   6.213   4.994   5.867
 9598TIP3    H228740   6.097   4.961   5.775
 9599TIP3   OH228741   3.764   0.661   2.340
 9599TIP3    H128742   3.723   0.631   2.260
 9599TIP3    H228743   3.808   0.584   2.376
 9600TIP3   OH228744   3.852   6.227   0.448
 9600TIP3    H128745   3.930   6.281   0.439
 9600TIP3    H228746   3.861   6.186   0.535
 9601TIP3   OH228747   8.021   4.084   0.638
 9601TIP3    H128748   8.103   4.050   0.602
 9601TIP3    H228749   8.048   4.141   0.709
 9602TIP3   OH228750   7.843   1.018   0.208
 9602TIP3    H128751   7.918   1.019   0.268
 9602TIP3    H228752   7.846   1.103   0.164
 9603TIP3   OH228753   6.968   6.092   5.872
 9603TIP3    H128754   7.007   6.170   5.834
 9603TIP3    H228755   6.878   6.117   5.891
 9604TIP3   OH228756   7.121   3.904   1.145
 9604TIP3    H128757   7.192   3.858   1.100
 9604TIP3    H228758   7.074   3.951   1.075
 9605TIP3   OH228759   1.658   5.127   2.664
 9605TIP3    H128760   1.659   5.205   2.718
 9605TIP3    H228761   1.565   5.106   2.653
 9606TIP3   OH228762   1.586   0.329   6.699
 9606TIP3    H128763   1.597   0.273   6.776
 9606TIP3    H228764   1.510   0.383   6.719
 9607TIP3   OH228765   5.675   2.195   0.331
 9607TIP3    H128766   5.733   2.180   0.406
 9607TIP3    H228767   5.731   2.181   0.255
 9608TIP3   OH228768   5.737   1.714   3.579
 9608TIP3    H128769   5.774   1.792   3.538
 9608TIP3    H228770   5.811   1.654   3.587
 9609TIP3   OH228771   3.387   1.696   1.191
 9609TIP3    H128772   3.384   1.751   1.269
 9609TIP3    H228773   3.474   1.655   1.194
 9610TIP3   OH228774   3.705   0.120   1.746
 9610TIP3    H128775   3.697   0.212   1.721
 9610TIP3    H228776   3.616   0.092   1.766
 9611TIP3   OH228777   6.363   3.354   1.040
 9611TIP3    H128778   6.358   3.370   1.134
 9611TIP3    H228779   6.367   3.441   1.000
 9612TIP3   OH228780   7.819   0.580   4.151
 9612TIP3    H128781   7.749   0.645   4.155
 9612TIP3    H228782   7.787   0.507   4.205
 9613TIP3   OH228783   4.230   4.817   1.249
 9613TIP3    H128784   4.207   4.904   1.216
 9613TIP3    H228785   4.217   4.758   1.175
 9614TIP3   OH228786   5.560   0.443   2.000
 9614TIP3    H128787   5.617   0.520   1.991
 9614TIP3    H228788   5.477   0.471   1.963
 9615TIP3   OH228789   5.452   2.691   4.822
 9615TIP3    H128790   5.500   2.717   4.902
 9615TIP3    H228791   5.455   2.769   4.767
 9616TIP3   OH228792   0.898   6.671   2.845
 9616TIP3    H128793   0.937   6.588   2.874
 9616TIP3    H228794   0.906   6.729   2.921
 9617TIP3   OH228795   0.876   3.825   2.600
 9617TIP3    H128796   0.961   3.791   2.629
 9617TIP3    H228797   0.826   3.836   2.680
 9618TIP3   OH228798   7.428   7.397   5.249
 9618TIP3    H128799   7.435   7.358   5.336
 9618TIP3    H228800   7.336   7.423   5.241
 9619TIP3   OH228801   7.035   2.738   1.537
 9619TIP3    H128802   7.025   2.801   1.608
 9619TIP3    H228803   6.968   2.671   1.554
 9620TIP3   OH228804   4.137   3.998   3.080
 9620TIP3    H128805   4.108   4.040   2.999
 9620TIP3    H228806   4.066   4.014   3.142
 9621TIP3   OH228807   2.912   1.225   2.521
 9621TIP3    H128808   2.984   1.213   2.459
 9621TIP3    H228809   2.954   1.232   2.607
 9622TIP3   OH228810   4.540   5.452   5.717
 9622TIP3    H128811   4.597   5.514   5.762
 9622TIP3    H228812   4.576   5.447   5.629
 9623TIP3   OH228813   0.462   2.497   5.983
 9623TIP3    H128814   0.400   2.438   5.940
 9623TIP3    H228815   0.408   2.569   6.015
 9624TIP3   OH228816   7.638   7.444   5.067
 9624TIP3    H128817   7.720   7.394   5.069
 9624TIP3    H228818   7.586   7.410   5.139
 9625TIP3   OH228819   1.327   1.519   1.810
 9625TIP3    H128820   1.416   1.552   1.801
 9625TIP3    H228821   1.290   1.524   1.722
 9626TIP3   OH228822   6.673   2.455   1.744
 9626TIP3    H128823   6.726   2.376   1.744
 9626TIP3    H228824   6.607   2.440   1.676
 9627TIP3   OH228825   0.699   5.574   5.253
 9627TIP3    H128826   0.619   5.624   5.270
 9627TIP3    H228827   0.674   5.513   5.183
 9628TIP3   OH228828   6.321   2.817   3.351
 9628TIP3    H128829   6.337   2.910   3.369
 9628TIP3    H228830   6.269   2.817   3.271
 9629TIP3   OH228831   0.966   1.868   4.405
 9629TIP3    H128832   0.989   1.874   4.312
 9629TIP3    H228833   1.020   1.798   4.439
 9630TIP3   OH228834   0.372   2.773   2.004
 9630TIP3    H128835   0.285   2.781   1.966
 9630TIP3    H228836   0.357   2.743   2.094
 9631TIP3   OH228837   7.438   5.631   5.505
 9631TIP3    H128838   7.403   5.704   5.454
 9631TIP3    H228839   7.412   5.650   5.595
 9632TIP3   OH228840   5.185   1.415   0.466
 9632TIP3    H128841   5.267   1.366   0.460
 9632TIP3    H228842   5.171   1.450   0.378
 9633TIP3   OH228843   7.263   1.615   3.150
 9633TIP3    H128844   7.207   1.661   3.088
 9633TIP3    H228845   7.240   1.523   3.140
 9634TIP3   OH228846   1.706   2.995   5.499
 9634TIP3    H128847   1.647   2.984   5.425
 9634TIP3    H228848   1.723   2.905   5.529
 9635TIP3   OH228849   7.247   4.971   2.346
 9635TIP3    H128850   7.295   5.054   2.342
 9635TIP3    H228851   7.311   4.909   2.380
 9636TIP3   OH228852   0.064   0.706   0.062
 9636TIP3    H128853   0.075   0.686   0.155
 9636TIP3    H228854   0.056   0.621   0.020
 9637TIP3   OH228855   5.938   4.605   3.953
 9637TIP3    H128856   5.947   4.543   4.025
 9637TIP3    H228857   5.894   4.681   3.991
 9638TIP3   OH228858   7.871   6.547   1.013
 9638TIP3    H128859   7.828   6.478   1.063
 9638TIP3    H228860   7.861   6.521   0.921
 9639TIP3   OH228861   4.655   1.208   0.159
 9639TIP3    H128862   4.660   1.145   0.231
 9639TIP3    H228863   4.572   1.191   0.116
 9640TIP3   OH228864   2.918   3.096   6.616
 9640TIP3    H128865   2.952   3.161   6.554
 9640TIP3    H228866   2.894   3.147   6.693
 9641TIP3   OH228867   4.056   7.687   3.913
 9641TIP3    H128868   4.117   7.652   3.848
 9641TIP3    H228869   4.023   7.768   3.873
 9642TIP3   OH228870   0.065   1.766   1.902
 9642TIP3    H128871   0.110   1.819   1.836
 9642TIP3    H228872   0.136   1.729   1.955
 9643TIP3   OH228873   6.076   5.283   0.347
 9643TIP3    H128874   6.084   5.321   0.435
 9643TIP3    H228875   6.159   5.236   0.334
 9644TIP3   OH228876   6.373   1.548   0.316
 9644TIP3    H128877   6.402   1.557   0.406
 9644TIP3    H228878   6.281   1.576   0.317
 9645TIP3   OH228879   0.789   7.203   1.221
 9645TIP3    H128880   0.752   7.157   1.146
 9645TIP3    H228881   0.864   7.150   1.248
 9646TIP3   OH228882   3.756   4.164   6.423
 9646TIP3    H128883   3.742   4.256   6.401
 9646TIP3    H228884   3.719   4.154   6.511
 9647TIP3   OH228885   0.407   1.170   2.534
 9647TIP3    H128886   0.323   1.180   2.579
 9647TIP3    H228887   0.470   1.211   2.593
 9648TIP3   OH228888   0.381   7.302   5.364
 9648TIP3    H128889   0.404   7.274   5.275
 9648TIP3    H228890   0.346   7.390   5.352
 9649TIP3   OH228891   6.387   5.838   5.621
 9649TIP3    H128892   6.451   5.892   5.666
 9649TIP3    H228893   6.437   5.765   5.585
 9650TIP3   OH228894   3.752   1.350   2.509
 9650TIP3    H128895   3.817   1.365   2.578
 9650TIP3    H228896   3.709   1.269   2.534
 9651TIP3   OH228897   2.911   6.837   3.468
 9651TIP3    H128898   2.966   6.784   3.525
 9651TIP3    H228899   2.962   6.916   3.452
 9652TIP3   OH228900   3.859   0.796   5.227
 9652TIP3    H128901   3.801   0.869   5.203
 9652TIP3    H228902   3.809   0.718   5.208
 9653TIP3   OH228903   4.382   2.944   2.703
 9653TIP3    H128904   4.409   2.853   2.695
 9653TIP3    H228905   4.454   2.994   2.663
 9654TIP3   OH228906   8.012   2.777   2.207
 9654TIP3    H128907   7.985   2.816   2.290
 9654TIP3    H228908   8.100   2.812   2.191
 9655TIP3   OH228909   7.662   0.458   5.808
 9655TIP3    H128910   7.707   0.540   5.833
 9655TIP3    H228911   7.707   0.391   5.859
 9656TIP3   OH228912   2.118   3.316   6.108
 9656TIP3    H128913   2.046   3.326   6.046
 9656TIP3    H228914   2.082   3.345   6.192
 9657TIP3   OH228915   2.516   4.213   2.218
 9657TIP3    H128916   2.606   4.189   2.194
 9657TIP3    H228917   2.497   4.159   2.294
 9658TIP3   OH228918   5.692   2.946   5.502
 9658TIP3    H128919   5.689   2.896   5.583
 9658TIP3    H228920   5.723   2.884   5.436
 9659TIP3   OH228921   3.540   3.573   3.776
 9659TIP3    H128922   3.622   3.534   3.806
 9659TIP3    H228923   3.543   3.565   3.681
 9660TIP3   OH228924   7.606   2.952   4.995
 9660TIP3    H128925   7.599   2.943   4.900
 9660TIP3    H228926   7.525   2.912   5.029
 9661TIP3   OH228927   1.616   1.900   5.703
 9661TIP3    H128928   1.610   1.881   5.797
 9661TIP3    H228929   1.544   1.849   5.665
 9662TIP3   OH228930   6.094   4.143   1.065
 9662TIP3    H128931   6.057   4.111   0.983
 9662TIP3    H228932   6.039   4.103   1.133
 9663TIP3   OH228933   8.038   4.653   2.738
 9663TIP3    H128934   7.962   4.698   2.700
 9663TIP3    H228935   8.017   4.644   2.831
 9664TIP3   OH228936   7.847   4.832   3.885
 9664TIP3    H128937   7.883   4.743   3.896
 9664TIP3    H228938   7.753   4.822   3.901
 9665TIP3   OH228939   7.804   6.442   2.690
 9665TIP3    H128940   7.722   6.433   2.641
 9665TIP3    H228941   7.854   6.508   2.642
 9666TIP3   OH228942   6.886   7.140   4.920
 9666TIP3    H128943   6.913   7.083   4.992
 9666TIP3    H228944   6.967   7.164   4.876
 9667TIP3   OH228945   6.719   5.114   4.738
 9667TIP3    H128946   6.723   5.208   4.757
 9667TIP3    H228947   6.628   5.097   4.718
 9668TIP3   OH228948   8.111   2.629   3.840
 9668TIP3    H128949   8.143   2.606   3.927
 9668TIP3    H228950   8.090   2.722   3.845
 9669TIP3   OH228951   3.269   0.023   6.706
 9669TIP3    H128952   3.297   0.114   6.712
 9669TIP3    H228953   3.180   0.028   6.672
 9670TIP3   OH228954   5.489   3.464   4.984
 9670TIP3    H128955   5.477   3.482   5.077
 9670TIP3    H228956   5.518   3.373   4.981
 9671TIP3   OH228957   6.048   3.076   5.236
 9671TIP3    H128958   5.974   3.047   5.183
 9671TIP3    H228959   6.098   2.996   5.253
 9672TIP3   OH228960   3.286   0.733   0.780
 9672TIP3    H128961   3.284   0.647   0.737
 9672TIP3    H228962   3.218   0.784   0.736
 9673TIP3   OH228963   6.040   3.257   2.162
 9673TIP3    H128964   5.977   3.228   2.095
 9673TIP3    H228965   6.008   3.218   2.243
 9674TIP3   OH228966   2.532   1.088   6.254
 9674TIP3    H128967   2.501   1.173   6.221
 9674TIP3    H228968   2.476   1.024   6.210
 9675TIP3   OH228969   2.256   4.552   0.167
 9675TIP3    H128970   2.182   4.493   0.152
 9675TIP3    H228971   2.243   4.623   0.103
 9676TIP3   OH228972   3.060   6.005   5.400
 9676TIP3    H128973   3.062   5.986   5.306
 9676TIP3    H228974   3.083   5.922   5.442
 9677TIP3   OH228975   1.114   6.218   1.296
 9677TIP3    H128976   1.076   6.157   1.232
 9677TIP3    H228977   1.052   6.291   1.298
 9678TIP3   OH228978   7.580   1.045   1.498
 9678TIP3    H128979   7.651   1.095   1.538
 9678TIP3    H228980   7.590   0.956   1.533
 9679TIP3   OH228981   2.676   2.623   1.048
 9679TIP3    H128982   2.624   2.702   1.034
 9679TIP3    H228983   2.635   2.557   0.992
 9680TIP3   OH228984   7.527   0.650   5.638
 9680TIP3    H128985   7.605   0.597   5.622
 9680TIP3    H228986   7.482   0.651   5.554
 9681TIP3   OH228987   7.558   5.003   0.723
 9681TIP3    H128988   7.650   5.027   0.736
 9681TIP3    H228989   7.560   4.946   0.646
 9682TIP3   OH228990   7.482   2.275   5.567
 9682TIP3    H128991   7.521   2.285   5.653
 9682TIP3    H228992   7.548   2.308   5.506
 9683TIP3   OH228993   5.381   3.492   3.937
 9683TIP3    H128994   5.414   3.561   3.995
 9683TIP3    H228995   5.457   3.466   3.885
 9684TIP3   OH228996   7.068   6.850   6.627
 9684TIP3    H128997   7.086   6.923   6.686
 9684TIP3    H228998   7.140   6.851   6.564
 9685TIP3   OH228999   6.674   1.730   2.665
 9685TIP3    H129000   6.706   1.820   2.662
 9685TIP3    H229001   6.612   1.729   2.738
 9686TIP3   OH229002   1.295   3.664   1.917
 9686TIP3    H129003   1.220   3.694   1.969
 9686TIP3    H229004   1.309   3.734   1.854
 9687TIP3   OH229005   1.240   0.274   0.835
 9687TIP3    H129006   1.231   0.363   0.802
 9687TIP3    H229007   1.324   0.274   0.881
 9688TIP3   OH229008   7.386   1.927   5.342
 9688TIP3    H129009   7.292   1.946   5.352
 9688TIP3    H229010   7.389   1.863   5.271
 9689TIP3   OH229011   6.109   0.141   5.354
 9689TIP3    H129012   6.018   0.119   5.338
 9689TIP3    H229013   6.123   0.222   5.304
 9690TIP3   OH229014   0.902   7.745   0.973
 9690TIP3    H129015   0.924   7.810   1.040
 9690TIP3    H229016   0.809   7.727   0.987
 9691TIP3   OH229017   0.478   7.491   1.287
 9691TIP3    H129018   0.453   7.581   1.307
 9691TIP3    H229019   0.395   7.444   1.279
 9692TIP3   OH229020   4.566   2.065   3.883
 9692TIP3    H129021   4.480   2.107   3.892
 9692TIP3    H229022   4.565   2.028   3.795
 9693TIP3   OH229023   7.542   6.413   6.104
 9693TIP3    H129024   7.515   6.322   6.095
 9693TIP3    H229025   7.629   6.409   6.143
 9694TIP3   OH229026   1.731   4.075   3.770
 9694TIP3    H129027   1.696   4.163   3.756
 9694TIP3    H229028   1.753   4.073   3.864
 9695TIP3   OH229029   5.605   4.517   0.132
 9695TIP3    H129030   5.515   4.530   0.163
 9695TIP3    H229031   5.614   4.579   0.060
 9696TIP3   OH229032   6.741   7.507   0.871
 9696TIP3    H129033   6.699   7.436   0.822
 9696TIP3    H229034   6.731   7.584   0.815
 9697TIP3   OH229035   3.883   2.372   2.962
 9697TIP3    H129036   3.940   2.334   2.895
 9697TIP3    H229037   3.830   2.436   2.915
 9698TIP3   OH229038   3.456   1.167   5.888
 9698TIP3    H129039   3.490   1.189   5.974
 9698TIP3    H229040   3.483   1.076   5.874
 9699TIP3   OH229041   1.578   1.660   1.358
 9699TIP3    H129042   1.544   1.597   1.422
 9699TIP3    H229043   1.606   1.734   1.412
 9700TIP3   OH229044   3.821   5.322   5.744
 9700TIP3    H129045   3.842   5.280   5.827
 9700TIP3    H229046   3.873   5.275   5.679
 9701TIP3   OH229047   2.660   0.496   2.257
 9701TIP3    H129048   2.618   0.581   2.266
 9701TIP3    H229049   2.589   0.436   2.231
 9702TIP3   OH229050   3.485   4.028   5.764
 9702TIP3    H129051   3.565   4.016   5.815
 9702TIP3    H229052   3.506   4.099   5.703
 9703TIP3   OH229053   4.432   2.770   0.694
 9703TIP3    H129054   4.394   2.752   0.780
 9703TIP3    H229055   4.359   2.805   0.643
 9704TIP3   OH229056   7.800   5.012   4.476
 9704TIP3    H129057   7.832   4.950   4.541
 9704TIP3    H229058   7.838   5.096   4.501
 9705TIP3   OH229059   0.067   3.290   6.342
 9705TIP3    H129060   0.042   3.363   6.286
 9705TIP3    H229061   0.007   3.219   6.317
 9706TIP3   OH229062   6.687   6.146   3.891
 9706TIP3    H129063   6.705   6.110   3.805
 9706TIP3    H229064   6.766   6.129   3.942
 9707TIP3   OH229065   4.640   7.447   3.852
 9707TIP3    H129066   4.617   7.411   3.938
 9707TIP3    H229067   4.556   7.469   3.812
 9708TIP3   OH229068   8.191   6.168   3.633
 9708TIP3    H129069   8.139   6.172   3.714
 9708TIP3    H229070   8.220   6.258   3.619
 9709TIP3   OH229071   5.056   2.422   0.434
 9709TIP3    H129072   5.055   2.514   0.461
 9709TIP3    H229073   4.970   2.389   0.461
 9710TIP3   OH229074   3.188   7.586   3.054
 9710TIP3    H129075   3.157   7.673   3.028
 9710TIP3    H229076   3.108   7.535   3.067
 9711TIP3   OH229077   5.291   3.745   2.744
 9711TIP3    H129078   5.292   3.655   2.711
 9711TIP3    H229079   5.285   3.800   2.666
 9712TIP3   OH229080   2.474   5.287   6.378
 9712TIP3    H129081   2.407   5.219   6.370
 9712TIP3    H229082   2.483   5.301   6.473
 9713TIP3   OH229083   0.034   6.415   1.210
 9713TIP3    H129084   0.113   6.435   1.161
 9713TIP3    H229085  -0.038   6.437   1.150
 9714TIP3   OH229086   5.651   6.563   0.323
 9714TIP3    H129087   5.604   6.566   0.407
 9714TIP3    H229088   5.721   6.499   0.337
 9715TIP3   OH229089   3.878   5.661   2.356
 9715TIP3    H129090   3.939   5.618   2.295
 9715TIP3    H229091   3.793   5.653   2.314
 9716TIP3   OH229092   4.820   0.069   2.396
 9716TIP3    H129093   4.906   0.111   2.403
 9716TIP3    H229094   4.819   0.032   2.307
 9717TIP3   OH229095   2.716   5.355   2.455
 9717TIP3    H129096   2.702   5.320   2.367
 9717TIP3    H229097   2.657   5.305   2.511
 9718TIP3   OH229098   7.790   0.389   6.233
 9718TIP3    H129099   7.881   0.418   6.240
 9718TIP3    H229100   7.779   0.324   6.302
 9719TIP3   OH229101   0.600   4.716   2.061
 9719TIP3    H129102   0.667   4.766   2.014
 9719TIP3    H229103   0.624   4.625   2.046
 9720TIP3   OH229104   4.398   4.624   0.932
 9720TIP3    H129105   4.307   4.602   0.954
 9720TIP3    H229106   4.429   4.674   1.007
 9721TIP3   OH229107   7.015   7.468   3.286
 9721TIP3    H129108   7.083   7.453   3.352
 9721TIP3    H229109   7.025   7.560   3.263
 9722TIP3   OH229110   5.438   6.849   3.164
 9722TIP3    H129111   5.376   6.922   3.173
 9722TIP3    H229112   5.467   6.853   3.073
 9723TIP3   OH229113   6.046   3.997   2.094
 9723TIP3    H129114   6.095   3.984   2.013
 9723TIP3    H229115   6.113   4.007   2.162
 9724TIP3   OH229116   0.837   7.646   0.578
 9724TIP3    H129117   0.907   7.690   0.625
 9724TIP3    H229118   0.880   7.572   0.534
 9725TIP3   OH229119   8.054   6.618   0.189
 9725TIP3    H129120   8.077   6.679   0.119
 9725TIP3    H229121   8.079   6.664   0.270
 9726TIP3   OH229122   4.591   3.930   0.191
 9726TIP3    H129123   4.501   3.961   0.179
 9726TIP3    H229124   4.641   3.973   0.122
 9727TIP3   OH229125   3.332   6.908   6.486
 9727TIP3    H129126   3.306   7.000   6.477
 9727TIP3    H229127   3.250   6.861   6.501
 9728TIP3   OH229128   5.538   5.043   2.712
 9728TIP3    H129129   5.479   5.033   2.637
 9728TIP3    H229130   5.487   5.094   2.775
 9729TIP3   OH229131   0.598   7.367   3.055
 9729TIP3    H129132   0.599   7.460   3.076
 9729TIP3    H229133   0.666   7.329   3.110
 9730TIP3   OH229134   5.848   4.022   4.617
 9730TIP3    H129135   5.757   4.018   4.645
 9730TIP3    H229136   5.873   3.931   4.602
 9731TIP3   OH229137   7.821   0.442   3.892
 9731TIP3    H129138   7.841   0.458   3.984
 9731TIP3    H229139   7.740   0.390   3.894
 9732TIP3   OH229140   3.875   3.930   4.223
 9732TIP3    H129141   3.967   3.955   4.236
 9732TIP3    H229142   3.830   3.965   4.300
 9733TIP3   OH229143   6.076   6.534   5.034
 9733TIP3    H129144   6.141   6.603   5.022
 9733TIP3    H229145   6.075   6.516   5.128
 9734TIP3   OH229146   1.856   1.701   1.699
 9734TIP3    H129147   1.856   1.691   1.603
 9734TIP3    H229148   1.947   1.686   1.724
 9735TIP3   OH229149   2.689   6.936   0.539
 9735TIP3    H129150   2.643   7.019   0.530
 9735TIP3    H229151   2.620   6.870   0.540
 9736TIP3   OH229152   0.457   1.472   2.102
 9736TIP3    H129153   0.473   1.420   2.023
 9736TIP3    H229154   0.421   1.409   2.165
 9737TIP3   OH229155   3.581   0.265   3.950
 9737TIP3    H129156   3.655   0.251   4.010
 9737TIP3    H229157   3.599   0.349   3.908
 9738TIP3   OH229158   7.783   3.178   3.997
 9738TIP3    H129159   7.806   3.085   4.004
 9738TIP3    H229160   7.705   3.188   4.052
 9739TIP3   OH229161   8.202   6.005   2.803
 9739TIP3    H129162   8.211   6.004   2.898
 9739TIP3    H229163   8.280   5.960   2.770
 9740TIP3   OH229164   5.809   7.765   0.414
 9740TIP3    H129165   5.797   7.705   0.488
 9740TIP3    H229166   5.863   7.716   0.352
 9741TIP3   OH229167   2.661   4.148   2.914
 9741TIP3    H129168   2.586   4.146   2.974
 9741TIP3    H229169   2.655   4.066   2.866
 9742TIP3   OH229170   4.112   2.227   1.668
 9742TIP3    H129171   4.115   2.306   1.721
 9742TIP3    H229172   4.042   2.174   1.708
 9743TIP3   OH229173   0.529   0.793   3.609
 9743TIP3    H129174   0.588   0.737   3.661
 9743TIP3    H229175   0.562   0.881   3.623
 9744TIP3   OH229176   0.321   5.749   1.632
 9744TIP3    H129177   0.362   5.770   1.548
 9744TIP3    H229178   0.244   5.696   1.609
 9745TIP3   OH229179   7.004   5.507   5.505
 9745TIP3    H129180   6.978   5.599   5.501
 9745TIP3    H229181   7.011   5.480   5.414
 9746TIP3   OH229182   1.558   3.280   2.023
 9746TIP3    H129183   1.518   3.366   2.036
 9746TIP3    H229184   1.647   3.289   2.057
 9747TIP3   OH229185   7.097   3.445   6.194
 9747TIP3    H129186   7.062   3.518   6.142
 9747TIP3    H229187   7.021   3.412   6.242
 9748TIP3   OH229188   3.506   1.826   4.255
 9748TIP3    H129189   3.562   1.823   4.332
 9748TIP3    H229190   3.553   1.774   4.189
 9749TIP3   OH229191   3.645   5.867   2.037
 9749TIP3    H129192   3.700   5.938   2.070
 9749TIP3    H229193   3.598   5.906   1.963
 9750TIP3   OH229194   6.250   5.409   3.618
 9750TIP3    H129195   6.287   5.463   3.548
 9750TIP3    H229196   6.170   5.455   3.644
 9751TIP3   OH229197   6.747   6.032   3.094
 9751TIP3    H129198   6.843   6.038   3.098
 9751TIP3    H229199   6.730   5.952   3.045
 9752TIP3   OH229200   4.281   7.613   5.878
 9752TIP3    H129201   4.314   7.700   5.855
 9752TIP3    H229202   4.224   7.628   5.953
 9753TIP3   OH229203   1.676   4.590   4.345
 9753TIP3    H129204   1.739   4.662   4.350
 9753TIP3    H229205   1.591   4.633   4.353
 9754TIP3   OH229206   2.354   1.601   2.420
 9754TIP3    H129207   2.266   1.566   2.403
 9754TIP3    H229208   2.394   1.606   2.334
 9755TIP3   OH229209   1.082   7.785   4.918
 9755TIP3    H129210   1.150   7.720   4.933
 9755TIP3    H229211   1.083   7.839   4.997
 9756TIP3   OH229212   8.181   4.398   6.484
 9756TIP3    H129213   8.171   4.458   6.558
 9756TIP3    H229214   8.147   4.447   6.409
 9757TIP3   OH229215   4.699   6.419   5.656
 9757TIP3    H129216   4.723   6.441   5.566
 9757TIP3    H229217   4.746   6.483   5.710
 9758TIP3   OH229218   7.292   4.712   1.175
 9758TIP3    H129219   7.263   4.802   1.163
 9758TIP3    H229220   7.212   4.660   1.167
 9759TIP3   OH229221   4.880   5.966   5.136
 9759TIP3    H129222   4.915   5.976   5.225
 9759TIP3    H229223   4.877   6.056   5.102
 9760TIP3   OH229224   0.299   4.582   2.385
 9760TIP3    H129225   0.372   4.545   2.335
 9760TIP3    H229226   0.320   4.675   2.393
 9761TIP3   OH229227   7.629   1.115   4.838
 9761TIP3    H129228   7.535   1.102   4.827
 9761TIP3    H229229   7.638   1.144   4.929
 9762TIP3   OH229230   6.267   1.332   1.580
 9762TIP3    H129231   6.277   1.254   1.634
 9762TIP3    H229232   6.205   1.307   1.512
 9763TIP3   OH229233   4.850   0.594   1.975
 9763TIP3    H129234   4.783   0.588   1.907
 9763TIP3    H229235   4.843   0.512   2.023
 9764TIP3   OH229236   5.378   3.340   1.278
 9764TIP3    H129237   5.447   3.279   1.250
 9764TIP3    H229238   5.315   3.338   1.206
 9765TIP3   OH229239   0.035   3.029   4.604
 9765TIP3    H129240   0.108   3.008   4.546
 9765TIP3    H229241   0.030   2.954   4.664
 9766TIP3   OH229242   7.281   4.292   2.805
 9766TIP3    H129243   7.237   4.373   2.832
 9766TIP3    H229244   7.229   4.222   2.845
 9767TIP3   OH229245   3.753   7.313   3.716
 9767TIP3    H129246   3.675   7.365   3.737
 9767TIP3    H229247   3.718   7.235   3.673
 9768TIP3   OH229248   1.353   5.462   3.670
 9768TIP3    H129249   1.356   5.520   3.746
 9768TIP3    H229250   1.444   5.436   3.655
 9769TIP3   OH229251   3.900   5.224   2.985
 9769TIP3    H129252   3.975   5.218   3.045
 9769TIP3    H229253   3.895   5.138   2.944
 9770TIP3   OH229254   5.032   3.342   3.047
 9770TIP3    H129255   4.957   3.329   2.989
 9770TIP3    H229256   4.994   3.336   3.135
 9771TIP3   OH229257   5.348   1.459   3.743
 9771TIP3    H129258   5.358   1.364   3.742
 9771TIP3    H229259   5.354   1.484   3.650
 9772TIP3   OH229260   6.283   6.222   6.732
 9772TIP3    H129261   6.199   6.176   6.734
 9772TIP3    H229262   6.344   6.157   6.698
 9773TIP3   OH229263   5.669   5.253   4.626
 9773TIP3    H129264   5.677   5.287   4.715
 9773TIP3    H229265   5.737   5.299   4.577
 9774TIP3   OH229266   1.572   7.461   2.411
 9774TIP3    H129267   1.520   7.411   2.348
 9774TIP3    H229268   1.543   7.429   2.496
 9775TIP3   OH229269   2.059   0.380   3.417
 9775TIP3    H129270   1.979   0.347   3.457
 9775TIP3    H229271   2.082   0.315   3.351
 9776TIP3   OH229272   2.770   6.332   5.842
 9776TIP3    H129273   2.683   6.366   5.819
 9776TIP3    H229274   2.775   6.248   5.796
 9777TIP3   OH229275   7.373   2.225   4.465
 9777TIP3    H129276   7.411   2.227   4.377
 9777TIP3    H229277   7.442   2.259   4.521
 9778TIP3   OH229278   4.333   0.554   1.675
 9778TIP3    H129279   4.262   0.597   1.627
 9778TIP3    H229280   4.301   0.550   1.765
 9779TIP3   OH229281   0.875   7.398   2.561
 9779TIP3    H129282   0.908   7.427   2.646
 9779TIP3    H229283   0.835   7.476   2.523
 9780TIP3   OH229284   8.169   2.784   6.522
 9780TIP3    H129285   8.261   2.809   6.517
 9780TIP3    H229286   8.147   2.794   6.615
 9781TIP3   OH229287   4.154   4.705   3.287
 9781TIP3    H129288   4.181   4.772   3.349
 9781TIP3    H229289   4.147   4.625   3.339
 9782TIP3   OH229290   4.598   0.714   4.455
 9782TIP3    H129291   4.664   0.695   4.522
 9782TIP3    H229292   4.649   0.733   4.376
 9783TIP3   OH229293   3.651   6.263   4.781
 9783TIP3    H129294   3.566   6.276   4.823
 9783TIP3    H229295   3.645   6.175   4.743
 9784TIP3   OH229296   6.901   3.013   1.466
 9784TIP3    H129297   6.892   3.005   1.371
 9784TIP3    H229298   6.978   3.069   1.477
 9785TIP3   OH229299   8.299   4.903   6.147
 9785TIP3    H129300   8.204   4.912   6.148
 9785TIP3    H229301   8.328   4.967   6.082
 9786TIP3   OH229302   4.353   0.829   5.844
 9786TIP3    H129303   4.410   0.870   5.910
 9786TIP3    H229304   4.364   0.735   5.859
 9787TIP3   OH229305   7.442   1.051   5.586
 9787TIP3    H129306   7.397   1.119   5.636
 9787TIP3    H229307   7.520   1.031   5.638
 9788TIP3   OH229308   6.352   7.058   5.723
 9788TIP3    H129309   6.338   7.049   5.817
 9788TIP3    H229310   6.381   6.971   5.695
 9789TIP3   OH229311   2.815   6.251   3.620
 9789TIP3    H129312   2.785   6.334   3.657
 9789TIP3    H229313   2.910   6.261   3.615
 9790TIP3   OH229314   2.716   2.523   1.923
 9790TIP3    H129315   2.738   2.435   1.952
 9790TIP3    H229316   2.621   2.521   1.910
 9791TIP3   OH229317   7.930   2.631   0.005
 9791TIP3    H129318   7.880   2.661  -0.071
 9791TIP3    H229319   7.870   2.640   0.078
 9792TIP3   OH229320   1.694   3.287   6.741
 9792TIP3    H129321   1.770   3.321   6.692
 9792TIP3    H229322   1.720   3.199   6.767
 9793TIP3   OH229323   2.160   5.317   4.021
 9793TIP3    H129324   2.158   5.412   4.021
 9793TIP3    H229325   2.211   5.294   3.943
 9794TIP3   OH229326   7.204   6.436   5.995
 9794TIP3    H129327   7.283   6.402   5.954
 9794TIP3    H229328   7.236   6.482   6.073
 9795TIP3   OH229329   7.812   1.401   4.872
 9795TIP3    H129330   7.899   1.425   4.901
 9795TIP3    H229331   7.797   1.315   4.911
 9796TIP3   OH229332   7.645   6.905   0.496
 9796TIP3    H129333   7.643   6.835   0.431
 9796TIP3    H229334   7.637   6.859   0.580
 9797TIP3   OH229335   6.349   5.493   3.975
 9797TIP3    H129336   6.410   5.566   3.962
 9797TIP3    H229337   6.377   5.427   3.911
 9798TIP3   OH229338   0.038   2.634   0.080
 9798TIP3    H129339   0.000   2.722   0.075
 9798TIP3    H229340  -0.032   2.580   0.119
 9799TIP3   OH229341   3.816   0.711   2.973
 9799TIP3    H129342   3.854   0.798   2.960
 9799TIP3    H229343   3.876   0.668   3.035
 9800TIP3   OH229344   1.254   6.865   2.792
 9800TIP3    H129345   1.258   6.801   2.863
 9800TIP3    H229346   1.287   6.818   2.715
 9801TIP3   OH229347   4.674   4.439   0.639
 9801TIP3    H129348   4.671   4.533   0.655
 9801TIP3    H229349   4.638   4.400   0.719
 9802TIP3   OH229350   4.571   3.301   0.711
 9802TIP3    H129351   4.480   3.292   0.682
 9802TIP3    H229352   4.592   3.393   0.695
 9803TIP3   OH229353   2.238   7.403   6.393
 9803TIP3    H129354   2.254   7.494   6.418
 9803TIP3    H229355   2.142   7.394   6.396
 9804TIP3   OH229356   4.716   1.494   0.810
 9804TIP3    H129357   4.780   1.565   0.806
 9804TIP3    H229358   4.713   1.459   0.721
 9805TIP3   OH229359   3.977   4.407   5.089
 9805TIP3    H129360   4.059   4.432   5.048
 9805TIP3    H229361   3.911   4.465   5.050
 9806TIP3   OH229362   4.518   2.601   3.715
 9806TIP3    H129363   4.523   2.582   3.809
 9806TIP3    H229364   4.604   2.638   3.694
 9807TIP3   OH229365   2.462   3.100   3.383
 9807TIP3    H129366   2.383   3.100   3.328
 9807TIP3    H229367   2.518   3.033   3.344
 9808TIP3   OH229368   4.693   0.825   2.538
 9808TIP3    H129369   4.741   0.875   2.471
 9808TIP3    H229370   4.646   0.891   2.588
 9809TIP3   OH229371   1.122   4.817   1.954
 9809TIP3    H129372   1.091   4.851   1.870
 9809TIP3    H229373   1.189   4.753   1.930
 9810TIP3   OH229374   2.241   3.822   4.758
 9810TIP3    H129375   2.267   3.856   4.843
 9810TIP3    H229376   2.257   3.727   4.763
 9811TIP3   OH229377   7.280   1.661   4.367
 9811TIP3    H129378   7.333   1.740   4.353
 9811TIP3    H229379   7.191   1.695   4.379
 9812TIP3   OH229380   5.486   2.204   1.102
 9812TIP3    H129381   5.515   2.113   1.097
 9812TIP3    H229382   5.540   2.242   1.172
 9813TIP3   OH229383   4.739   6.821   0.042
 9813TIP3    H129384   4.742   6.760   0.115
 9813TIP3    H229385   4.807   6.790  -0.018
 9814TIP3   OH229386   4.018   4.966   4.962
 9814TIP3    H129387   3.973   5.033   4.912
 9814TIP3    H229388   4.087   4.934   4.903
 9815TIP3   OH229389   4.411   2.048   0.945
 9815TIP3    H129390   4.501   2.049   0.913
 9815TIP3    H229391   4.409   1.977   1.009
 9816TIP3   OH229392   6.904   4.829   0.034
 9816TIP3    H129393   6.861   4.746   0.014
 9816TIP3    H229394   6.835   4.884   0.070
 9817TIP3   OH229395   0.347   0.170   5.237
 9817TIP3    H129396   0.363   0.160   5.331
 9817TIP3    H229397   0.432   0.153   5.197
 9818TIP3   OH229398   5.084   3.364   2.363
 9818TIP3    H129399   5.121   3.427   2.425
 9818TIP3    H229400   5.053   3.292   2.418
 9819TIP3   OH229401   1.439   4.558   0.298
 9819TIP3    H129402   1.477   4.475   0.325
 9819TIP3    H229403   1.466   4.620   0.366
 9820TIP3   OH229404   5.174   1.136   4.427
 9820TIP3    H129405   5.243   1.130   4.360
 9820TIP3    H229406   5.179   1.226   4.458
 9821TIP3   OH229407   0.830   1.330   3.696
 9821TIP3    H129408   0.912   1.332   3.744
 9821TIP3    H229409   0.783   1.409   3.725
 9822TIP3   OH229410   3.491   1.790   6.166
 9822TIP3    H129411   3.567   1.791   6.223
 9822TIP3    H229412   3.435   1.721   6.201
 9823TIP3   OH229413   7.129   5.030   4.381
 9823TIP3    H129414   7.070   5.042   4.455
 9823TIP3    H229415   7.159   4.939   4.389
 9824TIP3   OH229416   5.985   3.123   4.829
 9824TIP3    H129417   5.890   3.117   4.816
 9824TIP3    H229418   6.020   3.141   4.742
 9825TIP3   OH229419   4.045   5.595   0.836
 9825TIP3    H129420   4.002   5.581   0.752
 9825TIP3    H229421   3.988   5.656   0.883
 9826TIP3   OH229422   6.025   6.459   5.325
 9826TIP3    H129423   6.040   6.472   5.419
 9826TIP3    H229424   6.094   6.398   5.298
 9827TIP3   OH229425   2.040   3.336   5.476
 9827TIP3    H129426   2.056   3.337   5.382
 9827TIP3    H229427   2.089   3.260   5.508
 9828TIP3   OH229428   1.210   6.711   2.515
 9828TIP3    H129429   1.121   6.715   2.481
 9828TIP3    H229430   1.263   6.754   2.448
 9829TIP3   OH229431   0.032   7.429   0.209
 9829TIP3    H129432   0.093   7.399   0.277
 9829TIP3    H229433   0.013   7.520   0.233
 9830TIP3   OH229434   0.584   2.095   1.613
 9830TIP3    H129435   0.662   2.143   1.643
 9830TIP3    H229436   0.520   2.163   1.593
 9831TIP3   OH229437   5.269   5.300   6.051
 9831TIP3    H129438   5.212   5.248   6.108
 9831TIP3    H229439   5.210   5.345   5.992
 9832TIP3   OH229440   4.494   7.603   0.302
 9832TIP3    H129441   4.532   7.599   0.390
 9832TIP3    H229442   4.568   7.594   0.243
 9833TIP3   OH229443   4.425   0.773   1.432
 9833TIP3    H129444   4.443   0.858   1.391
 9833TIP3    H229445   4.387   0.795   1.517
 9834TIP3   OH229446   7.604   1.149   2.457
 9834TIP3    H129447   7.694   1.176   2.441
 9834TIP3    H229448   7.551   1.211   2.407
 9835TIP3   OH229449   6.422   1.348   3.988
 9835TIP3    H129450   6.343   1.390   4.023
 9835TIP3    H229451   6.420   1.260   4.024
 9836TIP3   OH229452   0.866   5.581   0.862
 9836TIP3    H129453   0.919   5.644   0.815
 9836TIP3    H229454   0.781   5.584   0.818
 9837TIP3   OH229455   7.968   4.894   0.750
 9837TIP3    H129456   7.928   4.833   0.688
 9837TIP3    H229457   7.899   4.959   0.767
 9838TIP3   OH229458   5.167   0.825   5.818
 9838TIP3    H129459   5.087   0.875   5.836
 9838TIP3    H229460   5.164   0.809   5.723
 9839TIP3   OH229461   2.795   0.339   5.442
 9839TIP3    H129462   2.889   0.342   5.422
 9839TIP3    H229463   2.755   0.399   5.379
 9840TIP3   OH229464   7.949   3.620   1.055
 9840TIP3    H129465   7.889   3.679   1.101
 9840TIP3    H229466   7.918   3.618   0.965
 9841TIP3   OH229467   2.575   2.068   0.154
 9841TIP3    H129468   2.596   2.160   0.163
 9841TIP3    H229469   2.592   2.030   0.240
 9842TIP3   OH229470   6.763   3.505   0.731
 9842TIP3    H129471   6.698   3.438   0.753
 9842TIP3    H229472   6.833   3.456   0.687
 9843TIP3   OH229473   7.605   5.890   1.973
 9843TIP3    H129474   7.637   5.939   1.897
 9843TIP3    H229475   7.509   5.898   1.968
 9844TIP3   OH229476   4.776   6.597   5.416
 9844TIP3    H129477   4.841   6.667   5.407
 9844TIP3    H229478   4.694   6.637   5.385
 9845TIP3   OH229479   6.759   6.120   3.381
 9845TIP3    H129480   6.850   6.144   3.399
 9845TIP3    H229481   6.764   6.064   3.303
 9846TIP3   OH229482   4.375   1.821   4.683
 9846TIP3    H129483   4.462   1.820   4.643
 9846TIP3    H229484   4.368   1.908   4.723
 9847TIP3   OH229485   6.426  -0.009   5.934
 9847TIP3    H129486   6.378   0.012   6.014
 9847TIP3    H229487   6.425   0.073   5.883
 9848TIP3   OH229488   6.739   1.557   6.250
 9848TIP3    H129489   6.789   1.508   6.184
 9848TIP3    H229490   6.691   1.490   6.298
 9849TIP3   OH229491   8.014   0.107   6.356
 9849TIP3    H129492   7.951   0.097   6.427
 9849TIP3    H229493   8.000   0.197   6.325
 9850TIP3   OH229494   4.762   5.520   5.000
 9850TIP3    H129495   4.855   5.521   4.979
 9850TIP3    H229496   4.732   5.610   4.984
 9851TIP3   OH229497   0.928   3.707   4.761
 9851TIP3    H129498   0.859   3.641   4.757
 9851TIP3    H229499   0.973   3.690   4.844
 9852TIP3   OH229500   1.445   1.734   5.546
 9852TIP3    H129501   1.516   1.724   5.483
 9852TIP3    H229502   1.369   1.761   5.494
 9853TIP3   OH229503   0.104   1.143   0.977
 9853TIP3    H129504   0.115   1.128   0.883
 9853TIP3    H229505   0.011   1.128   0.993
 9854TIP3   OH229506   7.381   4.158   5.289
 9854TIP3    H129507   7.403   4.249   5.309
 9854TIP3    H229508   7.453   4.127   5.234
 9855TIP3   OH229509   5.478   2.467   2.047
 9855TIP3    H129510   5.419   2.534   2.083
 9855TIP3    H229511   5.484   2.488   1.954
 9856TIP3   OH229512   7.589   2.413   0.024
 9856TIP3    H129513   7.622   2.325   0.013
 9856TIP3    H229514   7.610   2.436   0.115
 9857TIP3   OH229515   7.068   3.456   0.811
 9857TIP3    H129516   7.062   3.460   0.716
 9857TIP3    H229517   7.045   3.544   0.841
 9858TIP3   OH229518   6.536   6.926   6.119
 9858TIP3    H129519   6.548   6.832   6.104
 9858TIP3    H229520   6.611   6.966   6.076
 9859TIP3   OH229521   1.815   5.606   0.880
 9859TIP3    H129522   1.724   5.632   0.898
 9859TIP3    H229523   1.811   5.511   0.869
 9860TIP3   OH229524   3.402   4.200   3.498
 9860TIP3    H129525   3.445   4.201   3.583
 9860TIP3    H229526   3.315   4.165   3.515
 9861TIP3   OH229527   2.187   2.183   5.673
 9861TIP3    H129528   2.110   2.211   5.722
 9861TIP3    H229529   2.233   2.265   5.654
 9862TIP3   OH229530   4.653   1.142   3.688
 9862TIP3    H129531   4.669   1.179   3.775
 9862TIP3    H229532   4.622   1.217   3.636
 9863TIP3   OH229533   3.351   2.562   1.640
 9863TIP3    H129534   3.387   2.643   1.604
 9863TIP3    H229535   3.396   2.492   1.592
 9864TIP3   OH229536   4.159   2.047   1.140
 9864TIP3    H129537   4.102   2.059   1.216
 9864TIP3    H229538   4.239   2.093   1.163
 9865TIP3   OH229539   8.144   1.178   0.357
 9865TIP3    H129540   8.054   1.208   0.346
 9865TIP3    H229541   8.190   1.214   0.281
 9866TIP3   OH229542   6.244   3.043   0.313
 9866TIP3    H129543   6.266   3.128   0.275
 9866TIP3    H229544   6.224   3.063   0.405
 9867TIP3   OH229545   2.061   3.805   2.674
 9867TIP3    H129546   2.017   3.844   2.599
 9867TIP3    H229547   1.992   3.793   2.739
 9868TIP3   OH229548   8.198   5.336   1.565
 9868TIP3    H129549   8.204   5.262   1.505
 9868TIP3    H229550   8.272   5.324   1.625
 9869TIP3   OH229551   0.173   2.254   2.473
 9869TIP3    H129552   0.117   2.257   2.551
 9869TIP3    H229553   0.168   2.163   2.444
 9870TIP3   OH229554   2.626   5.951   2.253
 9870TIP3    H129555   2.550   5.904   2.216
 9870TIP3    H229556   2.630   6.032   2.202
 9871TIP3   OH229557   4.406   2.496   4.309
 9871TIP3    H129558   4.459   2.419   4.290
 9871TIP3    H229559   4.389   2.491   4.403
 9872TIP3   OH229560   0.663   3.901   0.751
 9872TIP3    H129561   0.720   3.932   0.680
 9872TIP3    H229562   0.575   3.925   0.723
 9873TIP3   OH229563   5.424   5.338   6.327
 9873TIP3    H129564   5.413   5.419   6.277
 9873TIP3    H229565   5.441   5.367   6.416
 9874TIP3   OH229566   3.272   4.643   3.118
 9874TIP3    H129567   3.294   4.661   3.027
 9874TIP3    H229568   3.176   4.639   3.119
 9875TIP3   OH229569   5.570   3.936   1.600
 9875TIP3    H129570   5.577   4.026   1.633
 9875TIP3    H229571   5.484   3.907   1.630
 9876TIP3   OH229572   5.881   0.371   6.647
 9876TIP3    H129573   5.908   0.453   6.605
 9876TIP3    H229574   5.832   0.398   6.724
 9877TIP3   OH229575   6.484   3.225   4.190
 9877TIP3    H129576   6.477   3.172   4.110
 9877TIP3    H229577   6.570   3.204   4.225
 9878TIP3   OH229578   7.810   7.381   2.244
 9878TIP3    H129579   7.735   7.321   2.239
 9878TIP3    H229580   7.772   7.468   2.228
 9879TIP3   OH229581   0.128   1.376   4.870
 9879TIP3    H129582   0.158   1.451   4.921
 9879TIP3    H229583   0.208   1.326   4.853
 9880TIP3   OH229584   2.915   5.239   6.007
 9880TIP3    H129585   2.979   5.282   6.064
 9880TIP3    H229586   2.939   5.146   6.010
 9881TIP3   OH229587   6.538   5.860   4.728
 9881TIP3    H129588   6.466   5.897   4.676
 9881TIP3    H229589   6.606   5.838   4.664
 9882TIP3   OH229590   7.305   3.931   4.985
 9882TIP3    H129591   7.241   3.873   5.026
 9882TIP3    H229592   7.302   3.909   4.892
 9883TIP3   OH229593   0.873   5.854   3.545
 9883TIP3    H129594   0.952   5.905   3.564
 9883TIP3    H229595   0.906   5.779   3.495
 9884TIP3   OH229596   6.819   0.125   3.548
 9884TIP3    H129597   6.723   0.123   3.547
 9884TIP3    H229598   6.841   0.207   3.592
 9885TIP3   OH229599   6.133   6.615   0.342
 9885TIP3    H129600   6.147   6.696   0.392
 9885TIP3    H229601   6.143   6.642   0.251
 9886TIP3   OH229602   3.806   3.428   0.352
 9886TIP3    H129603   3.735   3.461   0.407
 9886TIP3    H229604   3.857   3.505   0.327
 9887TIP3   OH229605   6.619   1.655   5.572
 9887TIP3    H129606   6.576   1.570   5.580
 9887TIP3    H229607   6.548   1.716   5.551
 9888TIP3   OH229608   7.766   1.631   5.723
 9888TIP3    H129609   7.756   1.544   5.761
 9888TIP3    H229610   7.719   1.627   5.640
 9889TIP3   OH229611   0.445   7.750   3.991
 9889TIP3    H129612   0.537   7.754   4.015
 9889TIP3    H229613   0.431   7.828   3.937
 9890TIP3   OH229614   4.818   7.676   2.510
 9890TIP3    H129615   4.821   7.752   2.568
 9890TIP3    H229616   4.878   7.612   2.550
 9891TIP3   OH229617   5.526   0.600   4.358
 9891TIP3    H129618   5.470   0.576   4.284
 9891TIP3    H229619   5.475   0.665   4.406
 9892TIP3   OH229620   4.397   4.173   3.384
 9892TIP3    H129621   4.447   4.161   3.465
 9892TIP3    H229622   4.306   4.182   3.412
 9893TIP3   OH229623   3.494   5.077   1.470
 9893TIP3    H129624   3.479   5.031   1.553
 9893TIP3    H229625   3.431   5.038   1.409
 9894TIP3   OH229626   7.010   7.746   5.829
 9894TIP3    H129627   6.914   7.750   5.826
 9894TIP3    H229628   7.032   7.760   5.921
 9895TIP3   OH229629   3.904   7.027   5.564
 9895TIP3    H129630   3.825   7.011   5.616
 9895TIP3    H229631   3.907   6.953   5.503
 9896TIP3   OH229632   4.939   5.411   4.101
 9896TIP3    H129633   4.935   5.318   4.119
 9896TIP3    H229634   4.967   5.451   4.183
 9897TIP3   OH229635   4.245   7.075   4.717
 9897TIP3    H129636   4.298   7.132   4.663
 9897TIP3    H229637   4.289   6.990   4.713
 9898TIP3   OH229638   8.146   5.417   5.045
 9898TIP3    H129639   8.211   5.460   5.101
 9898TIP3    H229640   8.082   5.485   5.025
 9899TIP3   OH229641   0.094   7.685   6.162
 9899TIP3    H129642   0.067   7.684   6.071
 9899TIP3    H229643   0.144   7.604   6.174
 9900TIP3   OH229644   4.379   2.449   5.390
 9900TIP3    H129645   4.445   2.379   5.385
 9900TIP3    H229646   4.366   2.476   5.299
 9901TIP3   OH229647   8.254   7.264   0.964
 9901TIP3    H129648   8.291   7.179   0.941
 9901TIP3    H229649   8.278   7.277   1.056
 9902TIP3   OH229650   6.854   6.149   2.546
 9902TIP3    H129651   6.921   6.208   2.580
 9902TIP3    H229652   6.903   6.075   2.509
 9903TIP3   OH229653   1.749   4.352   1.898
 9903TIP3    H129654   1.714   4.309   1.819
 9903TIP3    H229655   1.731   4.290   1.969
 9904TIP3   OH229656   5.209   2.001   3.590
 9904TIP3    H129657   5.283   1.993   3.530
 9904TIP3    H229658   5.223   2.084   3.636
 9905TIP3   OH229659   6.702   5.874   4.518
 9905TIP3    H129660   6.796   5.859   4.506
 9905TIP3    H229661   6.672   5.902   4.431
 9906TIP3   OH229662   2.573   1.319   2.184
 9906TIP3    H129663   2.583   1.362   2.269
 9906TIP3    H229664   2.658   1.277   2.169
 9907TIP3   OH229665   1.807   5.206   2.942
 9907TIP3    H129666   1.894   5.215   2.904
 9907TIP3    H229667   1.781   5.296   2.963
 9908TIP3   OH229668   1.544   5.957   0.530
 9908TIP3    H129669   1.494   5.886   0.571
 9908TIP3    H229670   1.575   6.011   0.603
 9909TIP3   OH229671   0.045   1.728   0.233
 9909TIP3    H129672   0.132   1.732   0.273
 9909TIP3    H229673  -0.008   1.788   0.286
 9910TIP3   OH229674   2.373   6.643   5.679
 9910TIP3    H129675   2.281   6.618   5.673
 9910TIP3    H229676   2.373   6.724   5.729
 9911TIP3   OH229677   6.810   0.409   5.333
 9911TIP3    H129678   6.763   0.328   5.311
 9911TIP3    H229679   6.847   0.392   5.419
 9912TIP3   OH229680   3.902   5.552   6.092
 9912TIP3    H129681   3.906   5.582   6.001
 9912TIP3    H229682   3.882   5.459   6.086
 9913TIP3   OH229683   8.035   1.877   3.576
 9913TIP3    H129684   7.965   1.812   3.570
 9913TIP3    H229685   8.006   1.935   3.647
 9914TIP3   OH229686   5.741   4.688   4.159
 9914TIP3    H129687   5.657   4.705   4.116
 9914TIP3    H229688   5.724   4.614   4.217
 9915TIP3   OH229689   4.263   0.894   6.427
 9915TIP3    H129690   4.324   0.967   6.423
 9915TIP3    H229691   4.298   0.837   6.495
 9916TIP3   OH229692   6.803   1.743   5.393
 9916TIP3    H129693   6.766   1.733   5.305
 9916TIP3    H229694   6.735   1.709   5.451
 9917TIP3   OH229695   5.649   1.762   3.836
 9917TIP3    H129696   5.625   1.672   3.857
 9917TIP3    H229697   5.686   1.757   3.747
 9918TIP3   OH229698   0.343   4.144   1.629
 9918TIP3    H129699   0.380   4.057   1.615
 9918TIP3    H229700   0.255   4.127   1.664
 9919TIP3   OH229701   2.928   4.256   1.254
 9919TIP3    H129702   2.879   4.185   1.295
 9919TIP3    H229703   2.904   4.252   1.161
 9920TIP3   OH229704   6.434   6.099   3.107
 9920TIP3    H129705   6.514   6.048   3.095
 9920TIP3    H229706   6.429   6.114   3.202
 9921TIP3   OH229707   2.678   1.007   5.894
 9921TIP3    H129708   2.761   1.016   5.941
 9921TIP3    H229709   2.652   0.916   5.909
 9922TIP3   OH229710   3.889   2.508   6.331
 9922TIP3    H129711   3.802   2.513   6.369
 9922TIP3    H229712   3.883   2.440   6.264
 9923TIP3   OH229713   1.306   4.188   2.971
 9923TIP3    H129714   1.269   4.275   2.961
 9923TIP3    H229715   1.250   4.146   3.037
 9924TIP3   OH229716   2.501   0.156   4.884
 9924TIP3    H129717   2.559   0.095   4.838
 9924TIP3    H229718   2.557   0.202   4.946
 9925TIP3   OH229719   0.991   5.167   3.752
 9925TIP3    H129720   0.906   5.186   3.712
 9925TIP3    H229721   1.033   5.252   3.761
 9926TIP3   OH229722   4.091   3.057   4.021
 9926TIP3    H129723   4.085   2.968   3.987
 9926TIP3    H229724   4.183   3.068   4.045
 9927TIP3   OH229725   4.482   4.605   6.024
 9927TIP3    H129726   4.406   4.643   5.979
 9927TIP3    H229727   4.531   4.560   5.956
 9928TIP3   OH229728   3.217   6.876   2.195
 9928TIP3    H129729   3.260   6.795   2.220
 9928TIP3    H229730   3.242   6.889   2.103
 9929TIP3   OH229731   5.079   2.201   3.323
 9929TIP3    H129732   5.142   2.273   3.331
 9929TIP3    H229733   5.130   2.128   3.289
 9930TIP3   OH229734   7.833   4.823   1.537
 9930TIP3    H129735   7.773   4.852   1.468
 9930TIP3    H229736   7.825   4.890   1.605
 9931TIP3   OH229737   6.965   6.908   5.916
 9931TIP3    H129738   6.999   6.831   5.962
 9931TIP3    H229739   6.884   6.877   5.875
 9932TIP3   OH229740   2.646   2.496   6.100
 9932TIP3    H129741   2.640   2.496   6.004
 9932TIP3    H229742   2.696   2.574   6.121
 9933TIP3   OH229743   7.718   4.134   1.237
 9933TIP3    H129744   7.655   4.181   1.292
 9933TIP3    H229745   7.761   4.072   1.296
 9934TIP3   OH229746   0.757   5.130   1.504
 9934TIP3    H129747   0.681   5.188   1.515
 9934TIP3    H229748   0.746   5.063   1.572
 9935TIP3   OH229749   8.251   0.186   5.594
 9935TIP3    H129750   8.160   0.157   5.595
 9935TIP3    H229751   8.302   0.106   5.603
 9936TIP3   OH229752   6.950   5.591   4.831
 9936TIP3    H129753   6.951   5.682   4.859
 9936TIP3    H229754   7.037   5.558   4.856
 9937TIP3   OH229755   3.905   5.429   1.565
 9937TIP3    H129756   3.896   5.497   1.499
 9937TIP3    H229757   3.948   5.473   1.639
 9938TIP3   OH229758   3.836   2.322   4.585
 9938TIP3    H129759   3.806   2.387   4.520
 9938TIP3    H229760   3.798   2.240   4.556
 9939TIP3   OH229761   6.001   4.454   6.292
 9939TIP3    H129762   6.044   4.469   6.376
 9939TIP3    H229763   6.019   4.534   6.241
 9940TIP3   OH229764   2.838   6.843   5.014
 9940TIP3    H129765   2.844   6.788   5.091
 9940TIP3    H229766   2.914   6.820   4.961
 9941TIP3   OH229767   1.181   2.050   6.165
 9941TIP3    H129768   1.256   2.011   6.210
 9941TIP3    H229769   1.142   1.978   6.116
 9942TIP3   OH229770   5.049   5.353   1.038
 9942TIP3    H129771   5.005   5.395   0.965
 9942TIP3    H229772   5.036   5.259   1.023
 9943TIP3   OH229773   0.176   2.899   3.590
 9943TIP3    H129774   0.102   2.898   3.651
 9943TIP3    H229775   0.229   2.974   3.618
 9944TIP3   OH229776   2.397   5.050   5.271
 9944TIP3    H129777   2.480   5.061   5.318
 9944TIP3    H229778   2.357   5.137   5.274
 9945TIP3   OH229779   1.316   1.247   5.826
 9945TIP3    H129780   1.342   1.171   5.774
 9945TIP3    H229781   1.392   1.305   5.822
 9946TIP3   OH229782   4.817   1.874   1.417
 9946TIP3    H129783   4.820   1.848   1.509
 9946TIP3    H229784   4.899   1.922   1.404
 9947TIP3   OH229785   6.703   0.245   3.942
 9947TIP3    H129786   6.683   0.191   3.866
 9947TIP3    H229787   6.629   0.307   3.947
 9948TIP3   OH229788   0.401   6.155   6.277
 9948TIP3    H129789   0.345   6.216   6.230
 9948TIP3    H229790   0.360   6.069   6.265
 9949TIP3   OH229791   3.467   2.925   3.754
 9949TIP3    H129792   3.550   2.967   3.778
 9949TIP3    H229793   3.453   2.859   3.822
 9950TIP3   OH229794   4.562   2.549   1.496
 9950TIP3    H129795   4.503   2.520   1.566
 9950TIP3    H229796   4.642   2.497   1.509
 9951TIP3   OH229797   6.516   4.411   6.069
 9951TIP3    H129798   6.423   4.430   6.056
 9951TIP3    H229799   6.561   4.477   6.016
 9952TIP3   OH229800   2.671   3.237   4.633
 9952TIP3    H129801   2.696   3.206   4.546
 9952TIP3    H229802   2.624   3.319   4.618
 9953TIP3   OH229803   2.176   5.373   1.793
 9953TIP3    H129804   2.134   5.287   1.794
 9953TIP3    H229805   2.268   5.355   1.811
 9954TIP3   OH229806   1.033   1.560   0.968
 9954TIP3    H129807   1.035   1.465   0.956
 9954TIP3    H229808   0.995   1.594   0.887
 9955TIP3   OH229809   3.207   1.232   5.781
 9955TIP3    H129810   3.283   1.214   5.836
 9955TIP3    H229811   3.226   1.188   5.698
 9956TIP3   OH229812   0.847   2.733   4.531
 9956TIP3    H129813   0.797   2.661   4.572
 9956TIP3    H229814   0.881   2.695   4.450
 9957TIP3   OH229815   5.983   5.358   5.457
 9957TIP3    H129816   6.041   5.433   5.458
 9957TIP3    H229817   5.926   5.371   5.382
 9958TIP3   OH229818   6.825   1.274   6.720
 9958TIP3    H129819   6.842   1.341   6.653
 9958TIP3    H229820   6.805   1.195   6.670
 9959TIP3   OH229821   7.799   2.186   2.843
 9959TIP3    H129822   7.800   2.114   2.906
 9959TIP3    H229823   7.708   2.188   2.811
 9960TIP3   OH229824   6.193   6.996   3.980
 9960TIP3    H129825   6.244   7.043   4.047
 9960TIP3    H229826   6.249   6.997   3.902
 9961TIP3   OH229827   6.624   3.285   5.039
 9961TIP3    H129828   6.625   3.209   5.097
 9961TIP3    H229829   6.531   3.307   5.030
 9962TIP3   OH229830   6.663   0.659   0.248
 9962TIP3    H129831   6.639   0.583   0.301
 9962TIP3    H229832   6.621   0.733   0.291
 9963TIP3   OH229833   1.023   0.467   0.444
 9963TIP3    H129834   0.972   0.397   0.405
 9963TIP3    H229835   1.030   0.533   0.375
 9964TIP3   OH229836   5.051   5.238   6.499
 9964TIP3    H129837   5.078   5.250   6.408
 9964TIP3    H229838   5.134   5.228   6.547
 9965TIP3   OH229839   4.230   0.043   6.230
 9965TIP3    H129840   4.264  -0.036   6.271
 9965TIP3    H229841   4.249   0.113   6.292
 9966TIP3   OH229842   5.834   3.360   1.713
 9966TIP3    H129843   5.898   3.375   1.644
 9966TIP3    H229844   5.790   3.445   1.725
 9967TIP3   OH229845   0.331   2.555   4.267
 9967TIP3    H129846   0.280   2.602   4.332
 9967TIP3    H229847   0.410   2.607   4.254
 9968TIP3   OH229848   5.729   5.758   0.996
 9968TIP3    H129849   5.803   5.760   0.936
 9968TIP3    H229850   5.684   5.676   0.974
 9969TIP3   OH229851   5.218   7.608   2.509
 9969TIP3    H129852   5.228   7.703   2.501
 9969TIP3    H229853   5.308   7.574   2.513
 9970TIP3   OH229854   0.999   2.039   6.726
 9970TIP3    H129855   0.941   2.101   6.682
 9970TIP3    H229856   0.979   2.049   6.819
 9971TIP3   OH229857   1.704   1.066   1.418
 9971TIP3    H129858   1.619   1.062   1.463
 9971TIP3    H229859   1.683   1.046   1.327
 9972TIP3   OH229860   2.081   2.184   2.140
 9972TIP3    H129861   2.028   2.170   2.218
 9972TIP3    H229862   2.104   2.095   2.110
 9973TIP3   OH229863   6.261   7.167   2.516
 9973TIP3    H129864   6.357   7.167   2.510
 9973TIP3    H229865   6.239   7.079   2.546
 9974TIP3   OH229866   0.071   2.576   4.542
 9974TIP3    H129867   0.148   2.629   4.521
 9974TIP3    H229868   0.010   2.638   4.584
 9975TIP3   OH229869   7.732   0.587   6.520
 9975TIP3    H129870   7.765   0.677   6.516
 9975TIP3    H229871   7.674   0.580   6.444
 9976TIP3   OH229872   6.091   2.955   4.199
 9976TIP3    H129873   6.133   3.025   4.248
 9976TIP3    H229874   6.163   2.899   4.169
 9977TIP3   OH229875   2.135   5.843   3.387
 9977TIP3    H129876   2.129   5.927   3.342
 9977TIP3    H229877   2.206   5.797   3.342
 9978TIP3   OH229878   0.214   2.195   5.987
 9978TIP3    H129879   0.229   2.227   5.898
 9978TIP3    H229880   0.151   2.123   5.976
 9979TIP3   OH229881   7.673   5.536   0.214
 9979TIP3    H129882   7.597   5.560   0.161
 9979TIP3    H229883   7.635   5.489   0.289
 9980TIP3   OH229884   5.565   0.935   3.026
 9980TIP3    H129885   5.470   0.932   3.013
 9980TIP3    H229886   5.596   1.003   2.966
 9981TIP3   OH229887   0.149   0.444   5.900
 9981TIP3    H129888   0.178   0.353   5.912
 9981TIP3    H229889   0.108   0.445   5.814
 9982TIP3   OH229890   3.785   1.343   3.131
 9982TIP3    H129891   3.840   1.410   3.172
 9982TIP3    H229892   3.721   1.392   3.080
 9983TIP3   OH229893   0.325   2.639   1.655
 9983TIP3    H129894   0.362   2.677   1.575
 9983TIP3    H229895   0.402   2.612   1.706
 9984TIP3   OH229896   0.348   7.534   1.843
 9984TIP3    H129897   0.338   7.623   1.876
 9984TIP3    H229898   0.392   7.545   1.758
 9985TIP3   OH229899   2.121   0.264   1.598
 9985TIP3    H129900   2.161   0.206   1.662
 9985TIP3    H229901   2.193   0.288   1.539
 9986TIP3   OH229902   4.283   4.155   6.709
 9986TIP3    H129903   4.248   4.179   6.623
 9986TIP3    H229904   4.237   4.212   6.770
 9987TIP3   OH229905   5.421   5.920   0.798
 9987TIP3    H129906   5.412   6.010   0.829
 9987TIP3    H229907   5.338   5.878   0.822
 9988TIP3   OH229908   7.716   1.127   4.539
 9988TIP3    H129909   7.706   1.036   4.511
 9988TIP3    H229910   7.687   1.128   4.630
 9989TIP3   OH229911   1.661   6.960   5.893
 9989TIP3    H129912   1.615   6.910   5.825
 9989TIP3    H229913   1.631   6.921   5.975
 9990TIP3   OH229914   4.700   1.038   6.523
 9990TIP3    H129915   4.691   1.008   6.613
 9990TIP3    H229916   4.694   0.958   6.470
 9991TIP3   OH229917   2.497   1.563   0.140
 9991TIP3    H129918   2.415   1.572   0.092
 9991TIP3    H229919   2.477   1.593   0.228
 9992TIP3   OH229920   5.213   6.955   4.811
 9992TIP3    H129921   5.286   6.995   4.764
 9992TIP3    H229922   5.210   6.865   4.778
 9993TIP3   OH229923   7.299   4.185   3.457
 9993TIP3    H129924   7.263   4.107   3.500
 9993TIP3    H229925   7.364   4.151   3.396
 9994TIP3   OH229926   1.492   2.941   2.933
 9994TIP3    H129927   1.411   2.952   2.982
 9994TIP3    H229928   1.553   3.002   2.972
 9995TIP3   OH229929   6.870   1.716   2.387
 9995TIP3    H129930   6.874   1.785   2.454
 9995TIP3    H229931   6.782   1.680   2.395
 9996TIP3   OH229932   0.225   2.094   6.359
 9996TIP3    H129933   0.271   2.031   6.304
 9996TIP3    H229934   0.134   2.090   6.329
 9997TIP3   OH229935   5.076   5.034   2.778
 9997TIP3    H129936   5.006   5.081   2.732
 9997TIP3    H229937   5.136   5.102   2.807
 9998TIP3   OH229938   7.402   2.256   1.013
 9998TIP3    H129939   7.310   2.282   1.009
 9998TIP3    H229940   7.408   2.203   1.093
 9999TIP3   OH229941   2.334   2.611   0.192
 9999TIP3    H129942   2.291   2.696   0.197
 9999TIP3    H229943   2.385   2.614   0.111
10000TIP3   OH229944   6.352   0.239   1.078
10000TIP3    H129945   6.378   0.209   1.165
10000TIP3    H229946   6.279   0.182   1.054
10001TIP3   OH229947   0.688   2.265   3.848
10001TIP3    H129948   0.659   2.353   3.824
10001TIP3    H229949   0.731   2.232   3.769
10002TIP3   OH229950   7.713   5.631   5.677
10002TIP3    H129951   7.639   5.577   5.651
10002TIP3    H229952   7.674   5.706   5.722
10003TIP3   OH229953   5.649   2.457   3.846
10003TIP3    H129954   5.637   2.549   3.824
10003TIP3    H229955   5.741   2.450   3.871
10004TIP3   OH229956   6.835   5.556   3.636
10004TIP3    H129957   6.828   5.645   3.669
10004TIP3    H229958   6.745   5.529   3.619
10005TIP3   OH229959   8.246   1.392   1.585
10005TIP3    H129960   8.331   1.419   1.619
10005TIP3    H229961   8.216   1.323   1.643
10006TIP3   OH229962   0.187   3.440   5.552
10006TIP3    H129963   0.177   3.348   5.526
10006TIP3    H229964   0.132   3.449   5.630
10007TIP3   OH229965   5.581   4.251   5.436
10007TIP3    H129966   5.491   4.250   5.467
10007TIP3    H229967   5.595   4.163   5.400
10008TIP3   OH229968   6.215   6.353   1.860
10008TIP3    H129969   6.150   6.422   1.848
10008TIP3    H229970   6.164   6.279   1.893
10009TIP3   OH229971   7.528   0.985   4.207
10009TIP3    H129972   7.521   1.071   4.164
10009TIP3    H229973   7.561   1.005   4.294
10010TIP3   OH229974   4.217   2.245   6.248
10010TIP3    H129975   4.286   2.246   6.314
10010TIP3    H229976   4.151   2.185   6.283
10011TIP3   OH229977   0.813   1.305   6.630
10011TIP3    H129978   0.808   1.253   6.709
10011TIP3    H229979   0.789   1.245   6.559
10012TIP3   OH229980   4.164   4.750   5.373
10012TIP3    H129981   4.109   4.805   5.318
10012TIP3    H229982   4.253   4.776   5.354
10013TIP3   OH229983   1.758   1.043   3.046
10013TIP3    H129984   1.677   0.997   3.067
10013TIP3    H229985   1.810   0.981   2.996
10014TIP3   OH229986   4.354   7.304   4.919
10014TIP3    H129987   4.286   7.242   4.893
10014TIP3    H229988   4.373   7.282   5.010
10015TIP3   OH229989   8.272   6.471   4.393
10015TIP3    H129990   8.237   6.454   4.305
10015TIP3    H229991   8.207   6.527   4.434
10016TIP3   OH229992   6.074   3.649   1.955
10016TIP3    H129993   6.008   3.694   1.902
10016TIP3    H229994   6.096   3.571   1.904
10017TIP3   OH229995   6.055   4.350   3.147
10017TIP3    H129996   6.119   4.301   3.097
10017TIP3    H229997   6.021   4.416   3.086
10018TIP3   OH229998   6.918   5.827   5.340
10018TIP3    H129999   6.971   5.760   5.298
10018TIP3    H230000   6.959   5.838   5.427
10019TIP3   OH230001   8.120   7.309   3.025
10019TIP3    H130002   8.124   7.392   3.072
10019TIP3    H230003   8.108   7.243   3.093
10020TIP3   OH230004   6.553   7.092   2.532
10020TIP3    H130005   6.633   7.050   2.500
10020TIP3    H230006   6.555   7.076   2.626
10021TIP3   OH230007   5.706   6.221   1.838
10021TIP3    H130008   5.646   6.220   1.912
10021TIP3    H230009   5.786   6.261   1.872
10022TIP3   OH230010   3.985   3.113   2.464
10022TIP3    H130011   3.985   3.018   2.451
10022TIP3    H230012   3.984   3.124   2.559
10023TIP3   OH230013   0.154   4.497   4.707
10023TIP3    H130014   0.160   4.462   4.795
10023TIP3    H230015   0.096   4.436   4.661
10024TIP3   OH230016   3.569   4.879   6.266
10024TIP3    H130017   3.628   4.808   6.240
10024TIP3    H230018   3.560   4.933   6.187
10025TIP3   OH230019   7.821   0.551   3.437
10025TIP3    H130020   7.849   0.630   3.391
10025TIP3    H230021   7.878   0.482   3.402
10026TIP3   OH230022   2.775   4.073   3.408
10026TIP3    H130023   2.824   4.064   3.490
10026TIP3    H230024   2.836   4.045   3.340
10027TIP3   OH230025   7.177   3.294   3.768
10027TIP3    H130026   7.150   3.213   3.811
10027TIP3    H230027   7.270   3.302   3.789
10028TIP3   OH230028   7.064   4.297   6.376
10028TIP3    H130029   7.087   4.286   6.284
10028TIP3    H230030   7.089   4.387   6.396
10029TIP3   OH230031   6.070   3.658   0.627
10029TIP3    H130032   6.032   3.715   0.560
10029TIP3    H230033   6.066   3.571   0.589
10030TIP3   OH230034   3.492   7.570   1.607
10030TIP3    H130035   3.451   7.595   1.690
10030TIP3    H230036   3.454   7.485   1.586
10031TIP3   OH230037   3.297   6.898   4.698
10031TIP3    H130038   3.316   6.904   4.604
10031TIP3    H230039   3.346   6.821   4.728
10032TIP3   OH230040   2.453   4.151   0.054
10032TIP3    H130041   2.417   4.076   0.007
10032TIP3    H230042   2.544   4.158   0.023
10033TIP3   OH230043   1.265   5.404   6.572
10033TIP3    H130044   1.213   5.343   6.520
10033TIP3    H230045   1.274   5.361   6.657
10034TIP3   OH230046   0.692   5.454   0.348
10034TIP3    H130047   0.691   5.444   0.253
10034TIP3    H230048   0.600   5.463   0.373
10035TIP3   OH230049   7.634   6.906   5.782
10035TIP3    H130050   7.711   6.957   5.809
10035TIP3    H230051   7.641   6.825   5.832
10036TIP3   OH230052   1.845   0.822   3.727
10036TIP3    H130053   1.912   0.799   3.791
10036TIP3    H230054   1.774   0.760   3.744
10037TIP3   OH230055   7.712   1.535   1.087
10037TIP3    H130056   7.698   1.627   1.110
10037TIP3    H230057   7.624   1.496   1.091
10038TIP3   OH230058   3.572   0.798   2.496
10038TIP3    H130059   3.637   0.818   2.563
10038TIP3    H230060   3.622   0.755   2.426
10039TIP3   OH230061   1.063   7.456   3.717
10039TIP3    H130062   1.030   7.501   3.639
10039TIP3    H230063   0.985   7.436   3.768
10040TIP3   OH230064   0.744   5.025   2.184
10040TIP3    H130065   0.773   4.940   2.150
10040TIP3    H230066   0.802   5.042   2.259
10041TIP3   OH230067   4.257   6.334   3.367
10041TIP3    H130068   4.253   6.360   3.459
10041TIP3    H230069   4.339   6.285   3.360
10042TIP3   OH230070   7.987   1.011   6.250
10042TIP3    H130071   7.995   1.067   6.327
10042TIP3    H230072   7.955   0.928   6.284
10043TIP3   OH230073   6.014   1.669   2.563
10043TIP3    H130074   6.005   1.763   2.575
10043TIP3    H230075   5.947   1.630   2.619
10044TIP3   OH230076   4.668   7.682   2.883
10044TIP3    H130077   4.608   7.705   2.812
10044TIP3    H230078   4.648   7.744   2.953
10045TIP3   OH230079   0.182   6.250   3.831
10045TIP3    H130080   0.121   6.181   3.857
10045TIP3    H230081   0.126   6.322   3.801
10046TIP3   OH230082   0.859   5.658   0.416
10046TIP3    H130083   0.892   5.674   0.328
10046TIP3    H230084   0.802   5.582   0.406
10047TIP3   OH230085   6.274   2.150   6.068
10047TIP3    H130086   6.218   2.098   6.010
10047TIP3    H230087   6.226   2.231   6.082
10048TIP3   OH230088   4.694   0.385   5.978
10048TIP3    H130089   4.656   0.393   5.890
10048TIP3    H230090   4.648   0.451   6.030
10049TIP3   OH230091   4.575   5.755   1.886
10049TIP3    H130092   4.484   5.776   1.863
10049TIP3    H230093   4.597   5.681   1.830
10050TIP3   OH230094   1.755   3.273   2.321
10050TIP3    H130095   1.815   3.241   2.388
10050TIP3    H230096   1.706   3.344   2.364
10051TIP3   OH230097   5.083   6.223   5.287
10051TIP3    H130098   5.155   6.178   5.331
10051TIP3    H230099   5.101   6.316   5.301
10052TIP3   OH230100   6.008   6.149   6.412
10052TIP3    H130101   6.084   6.106   6.452
10052TIP3    H230102   6.001   6.233   6.458
10053TIP3   OH230103   4.377   7.294   6.360
10053TIP3    H130104   4.295   7.252   6.387
10053TIP3    H230105   4.443   7.226   6.373
10054TIP3   OH230106   3.771   6.543   1.187
10054TIP3    H130107   3.826   6.470   1.215
10054TIP3    H230108   3.760   6.530   1.093
10055TIP3   OH230109   1.069   2.231   3.894
10055TIP3    H130110   1.134   2.162   3.880
10055TIP3    H230111   1.117   2.302   3.936
10056TIP3   OH230112   8.073   7.472   5.865
10056TIP3    H130113   8.125   7.552   5.862
10056TIP3    H230114   8.100   7.423   5.787
10057TIP3   OH230115   4.956   7.420   4.320
10057TIP3    H130116   4.874   7.371   4.320
10057TIP3    H230117   4.981   7.425   4.228
10058TIP3   OH230118   6.305   5.514   0.610
10058TIP3    H130119   6.399   5.514   0.592
10058TIP3    H230120   6.297   5.469   0.694
10059TIP3   OH230121   7.121   2.598   2.267
10059TIP3    H130122   7.160   2.680   2.298
10059TIP3    H230123   7.181   2.530   2.297
10060TIP3   OH230124   7.028   2.553   1.057
10060TIP3    H130125   7.050   2.607   0.981
10060TIP3    H230126   7.094   2.575   1.122
10061TIP3   OH230127   0.274   0.747   6.738
10061TIP3    H130128   0.346   0.715   6.683
10061TIP3    H230129   0.305   0.831   6.771
10062TIP3   OH230130   0.450   0.821   0.210
10062TIP3    H130131   0.385   0.801   0.277
10062TIP3    H230132   0.442   0.750   0.147
10063TIP3   OH230133   7.336   3.737   2.602
10063TIP3    H130134   7.316   3.808   2.541
10063TIP3    H230135   7.423   3.706   2.575
10064TIP3   OH230136   1.562   2.473   6.079
10064TIP3    H130137   1.593   2.537   6.143
10064TIP3    H230138   1.593   2.389   6.111
10065TIP3   OH230139   6.727   2.763   6.244
10065TIP3    H130140   6.731   2.690   6.305
10065TIP3    H230141   6.637   2.795   6.252
10066TIP3   OH230142   1.152   3.493   2.474
10066TIP3    H130143   1.154   3.536   2.559
10066TIP3    H230144   1.194   3.555   2.415
10067TIP3   OH230145   3.327   2.863   6.223
10067TIP3    H130146   3.242   2.871   6.266
10067TIP3    H230147   3.316   2.790   6.162
10068TIP3   OH230148   0.194   5.796   5.275
10068TIP3    H130149   0.107   5.769   5.245
10068TIP3    H230150   0.184   5.887   5.302
10069TIP3   OH230151   7.322   0.133   2.420
10069TIP3    H130152   7.413   0.146   2.395
10069TIP3    H230153   7.325   0.115   2.514
10070TIP3   OH230154   4.061   1.603   0.064
10070TIP3    H130155   4.082   1.519   0.104
10070TIP3    H230156   4.030   1.657   0.137
10071TIP3   OH230157   3.658   1.622   4.123
10071TIP3    H130158   3.591   1.560   4.154
10071TIP3    H230159   3.662   1.609   4.029
10072TIP3   OH230160   4.887   0.467   5.162
10072TIP3    H130161   4.912   0.458   5.254
10072TIP3    H230162   4.951   0.414   5.115
10073TIP3   OH230163   7.687   7.388   0.827
10073TIP3    H130164   7.645   7.468   0.857
10073TIP3    H230165   7.714   7.344   0.907
10074TIP3   OH230166   0.465   3.328   4.590
10074TIP3    H130167   0.504   3.241   4.599
10074TIP3    H230168   0.373   3.315   4.611
10075TIP3   OH230169   7.046   7.175   2.711
10075TIP3    H130170   7.119   7.219   2.667
10075TIP3    H230171   7.070   7.179   2.804
10076TIP3   OH230172   2.237   1.832   3.612
10076TIP3    H130173   2.195   1.880   3.540
10076TIP3    H230174   2.163   1.801   3.665
10077TIP3   OH230175   1.126   0.690   2.332
10077TIP3    H130176   1.100   0.691   2.240
10077TIP3    H230177   1.218   0.714   2.331
10078TIP3   OH230178   7.747   6.209   6.153
10078TIP3    H130179   7.691   6.145   6.107
10078TIP3    H230180   7.771   6.165   6.235
10079TIP3   OH230181   3.878   0.096   3.891
10079TIP3    H130182   3.878   0.163   3.822
10079TIP3    H230183   3.898   0.015   3.845
10080TIP3   OH230184   6.279   2.517   1.332
10080TIP3    H130185   6.370   2.491   1.328
10080TIP3    H230186   6.280   2.603   1.374
10081TIP3   OH230187   5.901   1.785   2.025
10081TIP3    H130188   5.978   1.729   2.014
10081TIP3    H230189   5.895   1.799   2.119
10082TIP3   OH230190   7.196   0.396   3.018
10082TIP3    H130191   7.101   0.389   3.020
10082TIP3    H230192   7.218   0.452   3.092
10083TIP3   OH230193   8.031   6.742   4.973
10083TIP3    H130194   8.011   6.683   4.900
10083TIP3    H230195   8.003   6.694   5.051
10084TIP3   OH230196   7.892   0.289   2.701
10084TIP3    H130197   7.967   0.340   2.670
10084TIP3    H230198   7.831   0.289   2.628
10085TIP3   OH230199   8.078   2.995   1.115
10085TIP3    H130200   8.118   2.964   1.033
10085TIP3    H230201   7.986   3.009   1.093
10086TIP3   OH230202   3.711   5.950   0.242
10086TIP3    H130203   3.802   5.970   0.262
10086TIP3    H230204   3.682   5.896   0.316
10087TIP3   OH230205   5.623   2.741   3.867
10087TIP3    H130206   5.571   2.814   3.832
10087TIP3    H230207   5.709   2.753   3.827
10088TIP3   OH230208   7.232   2.795   4.332
10088TIP3    H130209   7.189   2.847   4.264
10088TIP3    H230210   7.326   2.802   4.311
10089TIP3   OH230211   5.888   6.872   2.037
10089TIP3    H130212   5.793   6.885   2.041
10089TIP3    H230213   5.924   6.948   2.084
10090TIP3   OH230214   0.839   1.932   4.829
10090TIP3    H130215   0.824   1.838   4.820
10090TIP3    H230216   0.775   1.972   4.770
10091TIP3   OH230217   2.235   2.202   6.119
10091TIP3    H130218   2.257   2.284   6.164
10091TIP3    H230219   2.143   2.212   6.094
10092TIP3   OH230220   1.115   6.315   1.563
10092TIP3    H130221   1.128   6.281   1.475
10092TIP3    H230222   1.055   6.253   1.605
10093TIP3   OH230223   3.836   1.018   5.672
10093TIP3    H130224   3.806   0.928   5.688
10093TIP3    H230225   3.896   1.036   5.745
10094TIP3   OH230226   6.106   4.531   2.001
10094TIP3    H130227   6.200   4.545   2.011
10094TIP3    H230228   6.070   4.549   2.088
10095TIP3   OH230229   4.172   3.871   1.226
10095TIP3    H130230   4.157   3.794   1.280
10095TIP3    H230231   4.098   3.929   1.246
10096TIP3   OH230232   0.604   7.192   3.587
10096TIP3    H130233   0.689   7.235   3.574
10096TIP3    H230234   0.545   7.236   3.526
10097TIP3   OH230235   1.882   1.084   3.941
10097TIP3    H130236   1.826   1.142   3.993
10097TIP3    H230237   1.835   1.071   3.859
10098TIP3   OH230238   0.643   0.971   3.339
10098TIP3    H130239   0.682   0.937   3.258
10098TIP3    H230240   0.702   0.941   3.408
10099TIP3   OH230241   1.934   2.524   5.509
10099TIP3    H130242   1.963   2.477   5.432
10099TIP3    H230243   2.010   2.575   5.536
10100TIP3   OH230244   4.054   4.587   3.647
10100TIP3    H130245   4.100   4.528   3.587
10100TIP3    H230246   4.038   4.534   3.725
10101TIP3   OH230247   1.353   0.493   6.715
10101TIP3    H130248   1.268   0.448   6.719
10101TIP3    H230249   1.349   0.557   6.785
10102TIP3   OH230250   3.728   6.558   5.294
10102TIP3    H130251   3.648   6.515   5.264
10102TIP3    H230252   3.771   6.494   5.350
10103TIP3   OH230253   7.001   3.883   4.790
10103TIP3    H130254   6.962   3.946   4.729
10103TIP3    H230255   7.053   3.825   4.734
10104TIP3   OH230256   6.357   4.740   4.214
10104TIP3    H130257   6.442   4.697   4.229
10104TIP3    H230258   6.314   4.685   4.148
10105TIP3   OH230259   7.401   4.360   4.042
10105TIP3    H130260   7.460   4.285   4.033
10105TIP3    H230261   7.455   4.436   4.019
10106TIP3   OH230262   3.614   0.569   2.145
10106TIP3    H130263   3.559   0.616   2.208
10106TIP3    H230264   3.603   0.616   2.063
10107TIP3   OH230265   2.855   5.341   0.527
10107TIP3    H130266   2.799   5.343   0.449
10107TIP3    H230267   2.934   5.389   0.502
10108TIP3   OH230268   6.686   1.072   6.177
10108TIP3    H130269   6.626   1.063   6.103
10108TIP3    H230270   6.745   1.143   6.151
10109TIP3   OH230271   3.124   5.227   4.380
10109TIP3    H130272   3.204   5.183   4.352
10109TIP3    H230273   3.143   5.320   4.372
10110TIP3   OH230274   5.670   5.635   4.947
10110TIP3    H130275   5.711   5.713   4.984
10110TIP3    H230276   5.608   5.669   4.883
10111TIP3   OH230277   1.109   4.820   6.767
10111TIP3    H130278   1.127   4.895   6.710
10111TIP3    H230279   1.192   4.772   6.771
10112TIP3   OH230280   5.799   3.776   3.850
10112TIP3    H130281   5.826   3.849   3.794
10112TIP3    H230282   5.775   3.818   3.933
10113TIP3   OH230283   1.592   1.831   5.969
10113TIP3    H130284   1.510   1.841   6.017
10113TIP3    H230285   1.660   1.845   6.034
10114TIP3   OH230286   7.496   3.053   1.129
10114TIP3    H130287   7.462   3.128   1.178
10114TIP3    H230288   7.432   3.038   1.059
10115TIP3   OH230289   6.619   4.408   4.452
10115TIP3    H130290   6.688   4.462   4.490
10115TIP3    H230291   6.653   4.318   4.457
10116TIP3   OH230292   1.065   4.170   5.431
10116TIP3    H130293   1.146   4.150   5.384
10116TIP3    H230294   1.016   4.087   5.431
10117TIP3   OH230295   4.602   6.252   6.326
10117TIP3    H130296   4.673   6.251   6.390
10117TIP3    H230297   4.645   6.235   6.242
10118TIP3   OH230298   4.045   6.501   2.586
10118TIP3    H130299   3.985   6.511   2.659
10118TIP3    H230300   4.042   6.586   2.541
10119TIP3   OH230301   5.761   6.418   5.626
10119TIP3    H130302   5.798   6.340   5.586
10119TIP3    H230303   5.702   6.454   5.559
10120TIP3   OH230304   4.798   5.799   0.303
10120TIP3    H130305   4.850   5.785   0.382
10120TIP3    H230306   4.852   5.857   0.249
10121TIP3   OH230307   2.621   4.617   6.049
10121TIP3    H130308   2.656   4.645   5.965
10121TIP3    H230309   2.624   4.695   6.104
10122TIP3   OH230310   1.922   0.358   5.711
10122TIP3    H130311   1.918   0.360   5.807
10122TIP3    H230312   1.873   0.436   5.684
10123TIP3   OH230313   0.962   2.096   5.931
10123TIP3    H130314   1.054   2.122   5.931
10123TIP3    H230315   0.959   2.018   5.988
10124TIP3   OH230316   7.968   5.989   4.790
10124TIP3    H130317   7.944   6.043   4.714
10124TIP3    H230318   8.033   6.042   4.837
10125TIP3   OH230319   1.306   1.129   0.797
10125TIP3    H130320   1.260   1.127   0.881
10125TIP3    H230321   1.343   1.041   0.787
10126TIP3   OH230322   1.483   6.233   2.373
10126TIP3    H130323   1.444   6.282   2.445
10126TIP3    H230324   1.409   6.205   2.320
10127TIP3   OH230325   7.701   1.073   6.631
10127TIP3    H130326   7.643   1.069   6.707
10127TIP3    H230327   7.646   1.045   6.558
10128TIP3   OH230328   4.847   7.620   4.968
10128TIP3    H130329   4.918   7.564   4.999
10128TIP3    H230330   4.890   7.682   4.909
10129TIP3   OH230331   6.589   5.256   2.010
10129TIP3    H130332   6.550   5.209   1.937
10129TIP3    H230333   6.542   5.224   2.087
10130TIP3   OH230334   1.252   4.924   6.414
10130TIP3    H130335   1.159   4.918   6.393
10130TIP3    H230336   1.280   4.834   6.428
10131TIP3   OH230337   1.477   1.365   0.950
10131TIP3    H130338   1.391   1.385   0.912
10131TIP3    H230339   1.458   1.340   1.040
10132TIP3   OH230340   6.485   4.746   3.187
10132TIP3    H130341   6.449   4.725   3.273
10132TIP3    H230342   6.569   4.788   3.205
10133TIP3   OH230343   1.872   4.797   3.096
10133TIP3    H130344   1.917   4.807   3.012
10133TIP3    H230345   1.881   4.704   3.118
10134TIP3   OH230346   2.450   0.609   3.035
10134TIP3    H130347   2.505   0.686   3.049
10134TIP3    H230348   2.468   0.583   2.944
10135TIP3   OH230349   5.612   1.042   3.892
10135TIP3    H130350   5.689   0.986   3.907
10135TIP3    H230351   5.596   1.034   3.798
10136TIP3   OH230352   4.241   5.536   0.156
10136TIP3    H130353   4.231   5.630   0.174
10136TIP3    H230354   4.300   5.532   0.081
10137TIP3   OH230355   7.234   0.712   1.717
10137TIP3    H130356   7.214   0.708   1.811
10137TIP3    H230357   7.319   0.757   1.712
10138TIP3   OH230358   3.815   2.127   2.001
10138TIP3    H130359   3.887   2.147   1.941
10138TIP3    H230360   3.826   2.190   2.072
10139TIP3   OH230361   1.100   5.885   5.969
10139TIP3    H130362   1.056   5.941   6.033
10139TIP3    H230363   1.030   5.848   5.916
10140TIP3   OH230364   0.488   0.662   5.465
10140TIP3    H130365   0.406   0.651   5.417
10140TIP3    H230366   0.464   0.654   5.557
10141TIP3   OH230367   7.402   1.668   0.391
10141TIP3    H130368   7.494   1.642   0.394
10141TIP3    H230369   7.401   1.749   0.341
10142TIP3   OH230370   6.752   1.368   1.240
10142TIP3    H130371   6.777   1.289   1.193
10142TIP3    H230372   6.688   1.339   1.305
10143TIP3   OH230373   0.458   6.747   6.542
10143TIP3    H130374   0.468   6.764   6.635
10143TIP3    H230375   0.366   6.720   6.532
10144TIP3   OH230376   2.234   4.378   3.106
10144TIP3    H130377   2.233   4.422   3.191
10144TIP3    H230378   2.151   4.402   3.065
10145TIP3   OH230379   3.077   7.661   4.022
10145TIP3    H130380   3.108   7.746   4.053
10145TIP3    H230381   3.059   7.611   4.102
10146TIP3   OH230382   4.612   5.082   5.809
10146TIP3    H130383   4.676   5.018   5.840
10146TIP3    H230384   4.550   5.091   5.882
10147TIP3   OH230385   0.670   1.968   6.602
10147TIP3    H130386   0.617   1.907   6.652
10147TIP3    H230387   0.627   2.053   6.612
10148TIP3   OH230388   4.625   6.777   1.277
10148TIP3    H130389   4.544   6.740   1.241
10148TIP3    H230390   4.638   6.730   1.359
10149TIP3   OH230391   2.632   1.337   0.178
10149TIP3    H130392   2.565   1.282   0.136
10149TIP3    H230393   2.595   1.425   0.176
10150TIP3   OH230394   2.362   1.741   4.370
10150TIP3    H130395   2.359   1.837   4.375
10150TIP3    H230396   2.455   1.720   4.371
10151TIP3   OH230397   0.768   6.803   1.281
10151TIP3    H130398   0.793   6.757   1.361
10151TIP3    H230399   0.792   6.894   1.297
10152TIP3   OH230400   3.461   6.142   1.017
10152TIP3    H130401   3.533   6.176   1.070
10152TIP3    H230402   3.387   6.137   1.077
10153TIP3   OH230403   7.832   6.429   4.451
10153TIP3    H130404   7.765   6.494   4.474
10153TIP3    H230405   7.874   6.465   4.372
10154TIP3   OH230406   7.536   7.178   6.164
10154TIP3    H130407   7.614   7.220   6.202
10154TIP3    H230408   7.492   7.247   6.116
10155TIP3   OH230409   6.104   2.509   4.743
10155TIP3    H130410   6.167   2.578   4.763
10155TIP3    H230411   6.117   2.492   4.650
10156TIP3   OH230412   3.816   5.327   2.637
10156TIP3    H130413   3.775   5.347   2.553
10156TIP3    H230414   3.907   5.352   2.626
10157TIP3   OH230415   5.307   0.737   4.830
10157TIP3    H130416   5.306   0.816   4.776
10157TIP3    H230417   5.263   0.763   4.911
10158TIP3   OH230418   7.837   2.216   1.013
10158TIP3    H130419   7.753   2.260   1.003
10158TIP3    H230420   7.830   2.138   0.958
10159TIP3   OH230421   4.920   1.670   0.806
10159TIP3    H130422   4.927   1.684   0.900
10159TIP3    H230423   4.940   1.755   0.767
10160TIP3   OH230424   7.631   5.306   0.879
10160TIP3    H130425   7.567   5.239   0.858
10160TIP3    H230426   7.582   5.388   0.875
10161TIP3   OH230427   3.347   5.132   6.147
10161TIP3    H130428   3.442   5.136   6.161
10161TIP3    H230429   3.336   5.074   6.072
10162TIP3   OH230430   1.772   6.448   1.437
10162TIP3    H130431   1.789   6.465   1.344
10162TIP3    H230432   1.679   6.431   1.442
10163TIP3   OH230433   3.158   7.628   2.535
10163TIP3    H130434   3.150   7.542   2.494
10163TIP3    H230435   3.228   7.618   2.599
10164TIP3   OH230436   7.781   4.216   1.567
10164TIP3    H130437   7.698   4.230   1.522
10164TIP3    H230438   7.763   4.238   1.658
10165TIP3   OH230439   2.885   3.357   5.377
10165TIP3    H130440   2.897   3.441   5.422
10165TIP3    H230441   2.816   3.373   5.313
10166TIP3   OH230442   6.233   6.817   4.698
10166TIP3    H130443   6.199   6.769   4.622
10166TIP3    H230444   6.320   6.846   4.671
10167TIP3   OH230445   4.993   4.033   0.883
10167TIP3    H130446   4.949   3.958   0.843
10167TIP3    H230447   5.084   4.026   0.853
10168TIP3   OH230448   5.345   0.274   5.120
10168TIP3    H130449   5.404   0.276   5.044
10168TIP3    H230450   5.402   0.295   5.194
10169TIP3   OH230451   2.562   0.424   5.844
10169TIP3    H130452   2.548   0.486   5.915
10169TIP3    H230453   2.630   0.365   5.878
10170TIP3   OH230454   0.111   1.329   5.619
10170TIP3    H130455   0.100   1.266   5.691
10170TIP3    H230456   0.022   1.349   5.591
10171TIP3   OH230457   0.940   5.047   2.681
10171TIP3    H130458   0.913   5.085   2.598
10171TIP3    H230459   0.930   4.953   2.669
10172TIP3   OH230460   5.346   5.418   0.871
10172TIP3    H130461   5.298   5.455   0.797
10172TIP3    H230462   5.409   5.487   0.895
10173TIP3   OH230463   0.989   2.117   1.430
10173TIP3    H130464   0.915   2.059   1.446
10173TIP3    H230465   0.952   2.205   1.433
10174TIP3   OH230466   2.227   3.835   0.328
10174TIP3    H130467   2.147   3.886   0.346
10174TIP3    H230468   2.298   3.891   0.358
10175TIP3   OH230469   5.177   5.867   2.451
10175TIP3    H130470   5.142   5.880   2.540
10175TIP3    H230471   5.244   5.800   2.461
10176TIP3   OH230472   1.260   2.388   2.699
10176TIP3    H130473   1.233   2.296   2.695
10176TIP3    H230474   1.202   2.427   2.764
10177TIP3   OH230475   5.317   0.941   4.227
10177TIP3    H130476   5.399   0.928   4.180
10177TIP3    H230477   5.321   0.880   4.300
10178TIP3   OH230478   2.149   7.078   2.213
10178TIP3    H130479   2.110   7.131   2.144
10178TIP3    H230480   2.235   7.054   2.179
10179TIP3   OH230481   4.186   5.488   3.396
10179TIP3    H130482   4.097   5.523   3.398
10179TIP3    H230483   4.196   5.441   3.479
10180TIP3   OH230484   6.382   5.019   3.163
10180TIP3    H130485   6.370   4.928   3.190
10180TIP3    H230486   6.476   5.035   3.173
10181TIP3   OH230487   5.613   1.563   0.180
10181TIP3    H130488   5.592   1.600   0.094
10181TIP3    H230489   5.628   1.470   0.163
10182TIP3   OH230490   5.825   6.997   2.627
10182TIP3    H130491   5.880   7.067   2.592
10182TIP3    H230492   5.828   7.010   2.722
10183TIP3   OH230493   1.035   2.496   1.386
10183TIP3    H130494   0.955   2.471   1.338
10183TIP3    H230495   1.014   2.581   1.425
10184TIP3   OH230496   5.719   0.492   1.264
10184TIP3    H130497   5.686   0.580   1.246
10184TIP3    H230498   5.814   0.498   1.253
10185TIP3   OH230499   1.498   5.645   6.624
10185TIP3    H130500   1.502   5.741   6.625
10185TIP3    H230501   1.478   5.623   6.533
10186TIP3   OH230502   4.812   0.426   0.364
10186TIP3    H130503   4.895   0.436   0.410
10186TIP3    H230504   4.833   0.372   0.288
10187TIP3   OH230505   2.659   4.581   0.135
10187TIP3    H130506   2.583   4.553   0.084
10187TIP3    H230507   2.641   4.551   0.224
10188TIP3   OH230508   7.918   6.200   1.699
10188TIP3    H130509   7.930   6.258   1.624
10188TIP3    H230510   7.972   6.123   1.679
10189TIP3   OH230511   6.706   4.420   0.387
10189TIP3    H130512   6.755   4.465   0.318
10189TIP3    H230513   6.702   4.484   0.458
10190TIP3   OH230514   0.698   1.023   5.652
10190TIP3    H130515   0.736   0.993   5.734
10190TIP3    H230516   0.720   0.955   5.588
10191TIP3   OH230517   4.115   1.911   1.822
10191TIP3    H130518   4.116   1.868   1.908
10191TIP3    H230519   4.149   1.845   1.762
10192TIP3   OH230520   2.428   7.616   3.271
10192TIP3    H130521   2.381   7.573   3.343
10192TIP3    H230522   2.364   7.622   3.201
10193TIP3   OH230523   8.092   5.655   1.293
10193TIP3    H130524   8.107   5.563   1.272
10193TIP3    H230525   8.108   5.660   1.388
10194TIP3   OH230526   3.115   5.845   1.359
10194TIP3    H130527   3.061   5.770   1.385
10194TIP3    H230528   3.120   5.840   1.264
10195TIP3   OH230529   5.329   2.923   3.337
10195TIP3    H130530   5.277   2.915   3.417
10195TIP3    H230531   5.289   2.861   3.276
10196TIP3   OH230532   0.534   6.613   1.513
10196TIP3    H130533   0.519   6.550   1.442
10196TIP3    H230534   0.583   6.563   1.579
10197TIP3   OH230535   5.382   5.961   6.186
10197TIP3    H130536   5.290   5.936   6.180
10197TIP3    H230537   5.425   5.887   6.229
10198TIP3   OH230538   2.111   2.872   6.328
10198TIP3    H130539   2.171   2.886   6.255
10198TIP3    H230540   2.031   2.917   6.302
10199TIP3   OH230541   2.043   2.873   2.720
10199TIP3    H130542   1.962   2.874   2.669
10199TIP3    H230543   2.032   2.801   2.782
10200TIP3   OH230544   4.195   7.329   1.237
10200TIP3    H130545   4.183   7.282   1.155
10200TIP3    H230546   4.177   7.264   1.305
10201TIP3   OH230547   0.974   1.286   1.940
10201TIP3    H130548   1.024   1.254   1.864
10201TIP3    H230549   0.997   1.378   1.947
10202TIP3   OH230550   5.865   5.271   2.986
10202TIP3    H130551   5.925   5.315   3.045
10202TIP3    H230552   5.779   5.305   3.008
10203TIP3   OH230553   5.381   2.571   4.552
10203TIP3    H130554   5.411   2.557   4.642
10203TIP3    H230555   5.459   2.600   4.505
10204TIP3   OH230556   2.121   1.794   6.231
10204TIP3    H130557   2.083   1.726   6.286
10204TIP3    H230558   2.188   1.835   6.286
10205TIP3   OH230559   6.882   7.424   1.754
10205TIP3    H130560   6.815   7.369   1.713
10205TIP3    H230561   6.834   7.475   1.820
10206TIP3   OH230562   6.873   7.091   3.978
10206TIP3    H130563   6.790   7.064   4.017
10206TIP3    H230564   6.902   7.014   3.928
10207TIP3   OH230565   2.160   1.326   6.272
10207TIP3    H130566   2.093   1.389   6.246
10207TIP3    H230567   2.111   1.252   6.309
10208TIP3   OH230568   0.901   4.949   4.311
10208TIP3    H130569   0.977   5.008   4.310
10208TIP3    H230570   0.920   4.885   4.242
10209TIP3   OH230571   3.313   7.207   5.652
10209TIP3    H130572   3.278   7.254   5.576
10209TIP3    H230573   3.366   7.137   5.615
10210TIP3   OH230574   3.902   1.237   0.326
10210TIP3    H130575   3.971   1.226   0.391
10210TIP3    H230576   3.823   1.254   0.377
10211TIP3   OH230577   1.485   7.708   5.139
10211TIP3    H130578   1.428   7.642   5.180
10211TIP3    H230579   1.536   7.659   5.074
10212TIP3   OH230580   2.230   6.666   5.301
10212TIP3    H130581   2.258   6.757   5.295
10212TIP3    H230582   2.277   6.631   5.376
10213TIP3   OH230583   2.634   2.565   2.358
10213TIP3    H130584   2.548   2.601   2.337
10213TIP3    H230585   2.636   2.563   2.454
10214TIP3   OH230586   5.932   2.203   5.427
10214TIP3    H130587   5.838   2.187   5.425
10214TIP3    H230588   5.966   2.159   5.349
10215TIP3   OH230589   5.054   3.731   0.535
10215TIP3    H130590   5.010   3.732   0.620
10215TIP3    H230591   5.055   3.823   0.508
10216TIP3   OH230592   6.252   2.081   5.323
10216TIP3    H130593   6.274   2.070   5.415
10216TIP3    H230594   6.336   2.101   5.280
10217TIP3   OH230595   6.527   1.380   4.634
10217TIP3    H130596   6.521   1.394   4.729
10217TIP3    H230597   6.442   1.343   4.610
10218TIP3   OH230598   4.354   6.378   6.333
10218TIP3    H130599   4.347   6.463   6.289
10218TIP3    H230600   4.443   6.349   6.316
10219TIP3   OH230601   1.105   3.536   5.367
10219TIP3    H130602   1.191   3.539   5.325
10219TIP3    H230603   1.124   3.513   5.458
10220TIP3   OH230604   5.352   7.690   0.194
10220TIP3    H130605   5.326   7.662   0.282
10220TIP3    H230606   5.434   7.738   0.207
10221TIP3   OH230607   7.392   4.558   5.542
10221TIP3    H130608   7.459   4.601   5.595
10221TIP3    H230609   7.374   4.621   5.471
10222TIP3   OH230610   7.691   0.034   2.099
10222TIP3    H130611   7.642   0.083   2.165
10222TIP3    H230612   7.782   0.057   2.115
10223TIP3   OH230613   5.479   1.166   4.378
10223TIP3    H130614   5.545   1.133   4.438
10223TIP3    H230615   5.485   1.109   4.302
10224TIP3   OH230616   3.540   0.146   0.157
10224TIP3    H130617   3.462   0.138   0.102
10224TIP3    H230618   3.513   0.110   0.242
10225TIP3   OH230619   7.690   7.149   4.062
10225TIP3    H130620   7.648   7.204   3.997
10225TIP3    H230621   7.768   7.198   4.089
10226TIP3   OH230622   1.125   5.923   0.669
10226TIP3    H130623   1.202   5.923   0.612
10226TIP3    H230624   1.151   5.979   0.743
10227TIP3   OH230625   6.537   5.427   5.977
10227TIP3    H130626   6.519   5.518   5.954
10227TIP3    H230627   6.612   5.404   5.922
10228TIP3   OH230628   6.900   0.904   1.707
10228TIP3    H130629   6.808   0.890   1.681
10228TIP3    H230630   6.951   0.862   1.637
10229TIP3   OH230631   1.930   5.390   3.381
10229TIP3    H130632   1.873   5.342   3.441
10229TIP3    H230633   1.952   5.326   3.313
10230TIP3   OH230634   2.857   3.329   0.990
10230TIP3    H130635   2.931   3.274   0.969
10230TIP3    H230636   2.892   3.394   1.052
10231TIP3   OH230637   3.398   2.637   4.268
10231TIP3    H130638   3.319   2.690   4.258
10231TIP3    H230639   3.418   2.606   4.180
10232TIP3   OH230640   3.399   1.874   2.213
10232TIP3    H130641   3.485   1.873   2.254
10232TIP3    H230642   3.385   1.783   2.186
10233TIP3   OH230643   3.221   6.998   2.452
10233TIP3    H130644   3.191   6.974   2.540
10233TIP3    H230645   3.181   6.933   2.394
10234TIP3   OH230646   0.729   7.527   0.294
10234TIP3    H130647   0.817   7.510   0.328
10234TIP3    H230648   0.704   7.446   0.249
10235TIP3   OH230649   1.294   6.100   5.687
10235TIP3    H130650   1.291   6.106   5.592
10235TIP3    H230651   1.280   6.007   5.705
10236TIP3   OH230652   2.607   0.826   2.912
10236TIP3    H130653   2.589   0.905   2.964
10236TIP3    H230654   2.540   0.827   2.843
10237TIP3   OH230655   0.789   4.983   6.614
10237TIP3    H130656   0.789   5.048   6.544
10237TIP3    H230657   0.805   4.900   6.569
10238TIP3   OH230658   4.601   6.314   2.167
10238TIP3    H130659   4.669   6.356   2.220
10238TIP3    H230660   4.645   6.293   2.085
10239TIP3   OH230661   5.726   4.859   2.724
10239TIP3    H130662   5.655   4.923   2.726
10239TIP3    H230663   5.719   4.819   2.637
10240TIP3   OH230664   7.051   5.339   3.784
10240TIP3    H130665   7.024   5.347   3.875
10240TIP3    H230666   7.132   5.289   3.787
10241TIP3   OH230667   0.622   4.952   4.994
10241TIP3    H130668   0.589   4.902   4.919
10241TIP3    H230669   0.551   4.948   5.058
10242TIP3   OH230670   3.017   1.645   1.287
10242TIP3    H130671   3.041   1.687   1.204
10242TIP3    H230672   3.098   1.606   1.318
10243TIP3   OH230673   5.877   1.559   1.355
10243TIP3    H130674   5.943   1.589   1.293
10243TIP3    H230675   5.799   1.542   1.302
10244TIP3   OH230676   0.313   0.506   0.528
10244TIP3    H130677   0.248   0.524   0.596
10244TIP3    H230678   0.398   0.518   0.573
10245TIP3   OH230679   6.988   0.988   6.306
10245TIP3    H130680   6.904   0.946   6.326
10245TIP3    H230681   7.001   0.971   6.213
10246TIP3   OH230682   5.525   2.457   4.301
10246TIP3    H130683   5.536   2.551   4.319
10246TIP3    H230684   5.607   2.431   4.259
10247TIP3   OH230685   3.829   3.367   2.273
10247TIP3    H130686   3.778   3.441   2.308
10247TIP3    H230687   3.811   3.367   2.179
10248TIP3   OH230688   1.199   5.466   4.514
10248TIP3    H130689   1.210   5.533   4.447
10248TIP3    H230690   1.233   5.386   4.475
10249TIP3   OH230691   8.187   5.124   0.149
10249TIP3    H130692   8.106   5.097   0.194
10249TIP3    H230693   8.240   5.044   0.146
10250TIP3   OH230694   1.984   3.871   4.142
10250TIP3    H130695   2.004   3.887   4.049
10250TIP3    H230696   2.055   3.915   4.189
10251TIP3   OH230697   3.489   3.979   4.593
10251TIP3    H130698   3.549   3.937   4.531
10251TIP3    H230699   3.468   4.063   4.553
10252TIP3   OH230700   4.741   5.328   4.478
10252TIP3    H130701   4.790   5.396   4.524
10252TIP3    H230702   4.774   5.246   4.513
10253TIP3   OH230703   3.664   3.166   2.670
10253TIP3    H130704   3.633   3.252   2.698
10253TIP3    H230705   3.683   3.176   2.577
10254TIP3   OH230706   2.338   1.226   1.451
10254TIP3    H130707   2.297   1.301   1.495
10254TIP3    H230708   2.341   1.158   1.518
10255TIP3   OH230709   3.779   1.655   3.499
10255TIP3    H130710   3.702   1.682   3.550
10255TIP3    H230711   3.748   1.654   3.408
10256TIP3   OH230712   4.430   5.954   0.360
10256TIP3    H130713   4.477   6.033   0.333
10256TIP3    H230714   4.405   5.912   0.278
10257TIP3   OH230715   4.266   3.055   5.743
10257TIP3    H130716   4.357   3.029   5.760
10257TIP3    H230717   4.221   3.037   5.826
10258TIP3   OH230718   0.123   6.282   6.280
10258TIP3    H130719   0.032   6.312   6.291
10258TIP3    H230720   0.116   6.206   6.222
10259TIP3   OH230721   1.244   4.260   2.313
10259TIP3    H130722   1.315   4.244   2.374
10259TIP3    H230723   1.287   4.278   2.229
10260TIP3   OH230724   4.560   6.678   1.514
10260TIP3    H130725   4.579   6.584   1.522
10260TIP3    H230726   4.512   6.700   1.594
10261TIP3   OH230727   2.463   3.821   6.254
10261TIP3    H130728   2.540   3.821   6.312
10261TIP3    H230729   2.402   3.880   6.297
10262TIP3   OH230730   1.605   3.239   4.524
10262TIP3    H130731   1.526   3.253   4.471
10262TIP3    H230732   1.587   3.158   4.572
10263TIP3   OH230733   0.988   3.001   3.042
10263TIP3    H130734   0.916   2.937   3.039
10263TIP3    H230735   0.953   3.077   2.996
10264TIP3   OH230736   3.099   7.210   0.045
10264TIP3    H130737   3.062   7.258   0.119
10264TIP3    H230738   3.032   7.215  -0.023
10265TIP3   OH230739   6.408   3.541   3.763
10265TIP3    H130740   6.422   3.580   3.677
10265TIP3    H230741   6.403   3.615   3.823
10266TIP3   OH230742   6.894   6.419   1.241
10266TIP3    H130743   6.979   6.411   1.199
10266TIP3    H230744   6.839   6.353   1.197
10267TIP3   OH230745   2.651   4.416   2.826
10267TIP3    H130746   2.556   4.431   2.825
10267TIP3    H230747   2.660   4.322   2.840
10268TIP3   OH230748   7.593   2.122   6.453
10268TIP3    H130749   7.497   2.123   6.455
10268TIP3    H230750   7.619   2.211   6.475
10269TIP3   OH230751   7.123   0.038   0.323
10269TIP3    H130752   7.127  -0.057   0.335
10269TIP3    H230753   7.214   0.064   0.308
10270TIP3   OH230754   6.793   2.219   5.827
10270TIP3    H130755   6.887   2.209   5.843
10270TIP3    H230756   6.751   2.172   5.898
10271TIP3   OH230757   4.617   1.807   6.283
10271TIP3    H130758   4.605   1.852   6.199
10271TIP3    H230759   4.565   1.859   6.345
10272TIP3   OH230760   7.606   3.433   4.101
10272TIP3    H130761   7.669   3.490   4.057
10272TIP3    H230762   7.538   3.416   4.036
10273TIP3   OH230763   7.155   3.258   1.707
10273TIP3    H130764   7.126   3.284   1.620
10273TIP3    H230765   7.186   3.340   1.747
10274TIP3   OH230766   5.327   0.756   0.465
10274TIP3    H130767   5.360   0.711   0.543
10274TIP3    H230768   5.232   0.753   0.474
10275TIP3   OH230769   6.998   0.660   2.483
10275TIP3    H130770   7.067   0.601   2.455
10275TIP3    H230771   7.025   0.746   2.451
10276TIP3   OH230772   5.161   6.626   3.821
10276TIP3    H130773   5.129   6.573   3.749
10276TIP3    H230774   5.256   6.632   3.807
10277TIP3   OH230775   6.698   6.318   3.107
10277TIP3    H130776   6.691   6.222   3.112
10277TIP3    H230777   6.689   6.347   3.198
10278TIP3   OH230778   5.601   2.044   4.374
10278TIP3    H130779   5.593   2.128   4.419
10278TIP3    H230780   5.516   2.030   4.333
10279TIP3   OH230781   2.492   1.468   1.974
10279TIP3    H130782   2.582   1.477   1.940
10279TIP3    H230783   2.500   1.412   2.050
10280TIP3   OH230784   3.688   1.352   1.199
10280TIP3    H130785   3.601   1.311   1.197
10280TIP3    H230786   3.724   1.338   1.111
10281TIP3   OH230787   6.577   7.352   0.738
10281TIP3    H130788   6.547   7.396   0.658
10281TIP3    H230789   6.501   7.305   0.770
10282TIP3   OH230790   2.425   1.345   6.169
10282TIP3    H130791   2.425   1.440   6.160
10282TIP3    H230792   2.340   1.324   6.208
10283TIP3   OH230793   5.961   6.173   4.425
10283TIP3    H130794   5.878   6.136   4.397
10283TIP3    H230795   5.952   6.186   4.520
10284TIP3   OH230796   6.443   2.617   2.782
10284TIP3    H130797   6.471   2.688   2.723
10284TIP3    H230798   6.360   2.587   2.744
10285TIP3   OH230799   2.449   4.720   6.462
10285TIP3    H130800   2.389   4.719   6.537
10285TIP3    H230801   2.499   4.801   6.473
10286TIP3   OH230802   5.122   5.881   6.180
10286TIP3    H130803   5.131   5.829   6.260
10286TIP3    H230804   5.097   5.968   6.211
10287TIP3   OH230805   7.907   5.426   0.765
10287TIP3    H130806   7.959   5.365   0.712
10287TIP3    H230807   7.970   5.463   0.826
10288TIP3   OH230808   3.754   0.327   2.051
10288TIP3    H130809   3.755   0.405   2.107
10288TIP3    H230810   3.741   0.361   1.963
10289TIP3   OH230811   3.700   3.446   1.165
10289TIP3    H130812   3.753   3.480   1.236
10289TIP3    H230813   3.734   3.358   1.150
10290TIP3   OH230814   7.746   5.504   2.155
10290TIP3    H130815   7.768   5.418   2.189
10290TIP3    H230816   7.830   5.542   2.130
10291TIP3   OH230817   4.656   6.971   5.443
10291TIP3    H130818   4.739   7.011   5.470
10291TIP3    H230819   4.590   7.037   5.465
10292TIP3   OH230820   3.881   1.220   4.105
10292TIP3    H130821   3.787   1.205   4.088
10292TIP3    H230822   3.891   1.204   4.199
10293TIP3   OH230823   3.698   4.314   3.154
10293TIP3    H130824   3.631   4.264   3.201
10293TIP3    H230825   3.687   4.290   3.062
10294TIP3   OH230826   6.582   1.855   0.451
10294TIP3    H130827   6.655   1.793   0.449
10294TIP3    H230828   6.524   1.825   0.381
10295TIP3   OH230829   3.080   2.585   4.430
10295TIP3    H130830   3.087   2.664   4.376
10295TIP3    H230831   3.097   2.615   4.519
10296TIP3   OH230832   1.522   7.319   2.993
10296TIP3    H130833   1.494   7.239   2.950
10296TIP3    H230834   1.609   7.300   3.027
10297TIP3   OH230835   1.353   7.720   0.967
10297TIP3    H130836   1.263   7.696   0.988
10297TIP3    H230837   1.396   7.636   0.950
10298TIP3   OH230838   6.719   5.095   3.768
10298TIP3    H130839   6.733   5.082   3.862
10298TIP3    H230840   6.677   5.181   3.762
10299TIP3   OH230841   5.599   0.674   0.131
10299TIP3    H130842   5.567   0.762   0.151
10299TIP3    H230843   5.639   0.643   0.212
10300TIP3   OH230844   4.935   5.923   1.420
10300TIP3    H130845   4.915   5.840   1.465
10300TIP3    H230846   4.988   5.897   1.345
10301TIP3   OH230847   3.038   6.311   5.062
10301TIP3    H130848   3.033   6.407   5.065
10301TIP3    H230849   3.114   6.290   5.117
10302TIP3   OH230850   3.939   1.835   4.142
10302TIP3    H130851   3.973   1.838   4.232
10302TIP3    H230852   3.860   1.889   4.144
10303TIP3   OH230853   8.183   2.630   4.122
10303TIP3    H130854   8.268   2.630   4.166
10303TIP3    H230855   8.149   2.719   4.135
10304TIP3   OH230856   1.797   5.532   2.918
10304TIP3    H130857   1.713   5.548   2.873
10304TIP3    H230858   1.857   5.508   2.848
10305TIP3   OH230859   4.786   7.234   1.087
10305TIP3    H130860   4.861   7.181   1.062
10305TIP3    H230861   4.710   7.181   1.062
10306TIP3   OH230862   0.432   1.310   1.064
10306TIP3    H130863   0.377   1.242   1.103
10306TIP3    H230864   0.373   1.384   1.049
10307TIP3   OH230865   7.720   1.818   5.272
10307TIP3    H130866   7.687   1.799   5.183
10307TIP3    H230867   7.756   1.906   5.265
10308TIP3   OH230868   7.297   6.295   2.098
10308TIP3    H130869   7.310   6.363   2.032
10308TIP3    H230870   7.209   6.311   2.132
10309TIP3   OH230871   5.146   2.244   1.101
10309TIP3    H130872   5.240   2.225   1.094
10309TIP3    H230873   5.141   2.326   1.149
10310TIP3   OH230874   1.242   7.663   6.005
10310TIP3    H130875   1.266   7.707   6.087
10310TIP3    H230876   1.275   7.574   6.015
10311TIP3   OH230877   7.861   5.726   4.240
10311TIP3    H130878   7.879   5.717   4.147
10311TIP3    H230879   7.942   5.696   4.283
10312TIP3   OH230880   7.155   2.666   0.115
10312TIP3    H130881   7.212   2.590   0.105
10312TIP3    H230882   7.195   2.734   0.060
10313TIP3   OH230883   7.973   2.552   2.420
10313TIP3    H130884   7.951   2.640   2.388
10313TIP3    H230885   7.892   2.520   2.459
10314TIP3   OH230886   1.382   5.560   1.597
10314TIP3    H130887   1.399   5.646   1.634
10314TIP3    H230888   1.401   5.499   1.669
10315TIP3   OH230889   3.739   0.140   6.363
10315TIP3    H130890   3.668   0.090   6.402
10315TIP3    H230891   3.705   0.230   6.359
10316TIP3   OH230892   1.048   2.823   4.142
10316TIP3    H130893   0.979   2.889   4.146
10316TIP3    H230894   1.128   2.871   4.164
10317TIP3   OH230895   2.965   7.711   4.672
10317TIP3    H130896   2.918   7.793   4.653
10317TIP3    H230897   3.054   7.740   4.693
10318TIP3   OH230898   3.386   4.794   6.446
10318TIP3    H130899   3.452   4.738   6.489
10318TIP3    H230900   3.437   4.845   6.383
10319TIP3   OH230901   3.714   0.841   6.754
10319TIP3    H130902   3.625   0.807   6.755
10319TIP3    H230903   3.704   0.936   6.759
10320TIP3   OH230904   1.877   3.937   6.649
10320TIP3    H130905   1.854   3.864   6.591
10320TIP3    H230906   1.971   3.950   6.636
10321TIP3   OH230907   5.546   7.502   0.536
10321TIP3    H130908   5.566   7.411   0.513
10321TIP3    H230909   5.631   7.540   0.557
10322TIP3   OH230910   5.764   3.690   2.981
10322TIP3    H130911   5.787   3.748   2.908
10322TIP3    H230912   5.679   3.654   2.957
10323TIP3   OH230913   4.451   2.450   2.103
10323TIP3    H130914   4.433   2.503   2.025
10323TIP3    H230915   4.407   2.498   2.174
10324TIP3   OH230916   6.391   7.709   2.992
10324TIP3    H130917   6.363   7.778   3.053
10324TIP3    H230918   6.454   7.752   2.935
10325TIP3   OH230919   5.194   5.142   4.193
10325TIP3    H130920   5.175   5.104   4.107
10325TIP3    H230921   5.286   5.165   4.189
10326TIP3   OH230922   1.336   3.483   1.397
10326TIP3    H130923   1.369   3.562   1.354
10326TIP3    H230924   1.267   3.451   1.339
10327TIP3   OH230925   1.311   0.578   0.295
10327TIP3    H130926   1.362   0.500   0.271
10327TIP3    H230927   1.343   0.601   0.382
10328TIP3   OH230928   5.647   0.164   1.926
10328TIP3    H130929   5.730   0.120   1.948
10328TIP3    H230930   5.661   0.255   1.952
10329TIP3   OH230931   8.154   1.861   2.302
10329TIP3    H130932   8.060   1.865   2.320
10329TIP3    H230933   8.159   1.858   2.206
10330TIP3   OH230934   2.814   7.377   0.675
10330TIP3    H130935   2.871   7.422   0.737
10330TIP3    H230936   2.726   7.405   0.700
10331TIP3   OH230937   5.166   1.767   4.022
10331TIP3    H130938   5.151   1.676   3.998
10331TIP3    H230939   5.207   1.806   3.944
10332TIP3   OH230940   3.991   4.039   5.806
10332TIP3    H130941   4.070   4.087   5.779
10332TIP3    H230942   4.023   3.955   5.838
10333TIP3   OH230943   4.437   3.284   5.989
10333TIP3    H130944   4.362   3.342   6.003
10333TIP3    H230945   4.477   3.314   5.908
10334TIP3   OH230946   1.386   2.815   5.069
10334TIP3    H130947   1.362   2.901   5.034
10334TIP3    H230948   1.463   2.790   5.019
10335TIP3   OH230949   2.358   3.759   2.596
10335TIP3    H130950   2.306   3.837   2.614
10335TIP3    H230951   2.342   3.702   2.671
10336TIP3   OH230952   1.289   0.252   5.892
10336TIP3    H130953   1.308   0.167   5.852
10336TIP3    H230954   1.194   0.251   5.907
10337TIP3   OH230955   3.114   1.019   2.059
10337TIP3    H130956   3.040   0.998   2.116
10337TIP3    H230957   3.075   1.064   1.984
10338TIP3   OH230958   5.194   1.475   6.205
10338TIP3    H130959   5.136   1.469   6.282
10338TIP3    H230960   5.144   1.525   6.141
10339TIP3   OH230961   7.316   1.287   3.366
10339TIP3    H130962   7.267   1.314   3.287
10339TIP3    H230963   7.320   1.367   3.419
10340TIP3   OH230964   0.787   1.704   5.681
10340TIP3    H130965   0.799   1.711   5.776
10340TIP3    H230966   0.817   1.615   5.660
10341TIP3   OH230967   2.364   4.513   5.031
10341TIP3    H130968   2.300   4.563   5.082
10341TIP3    H230969   2.316   4.434   5.004
10342TIP3   OH230970   5.984   4.489   4.199
10342TIP3    H130971   5.998   4.522   4.288
10342TIP3    H230972   5.894   4.456   4.200
10343TIP3   OH230973   4.850   3.507   1.249
10343TIP3    H130974   4.944   3.513   1.236
10343TIP3    H230975   4.827   3.590   1.291
10344TIP3   OH230976   2.654   0.094   3.110
10344TIP3    H130977   2.578   0.068   3.161
10344TIP3    H230978   2.639   0.187   3.089
10345TIP3   OH230979   0.754   6.843   1.864
10345TIP3    H130980   0.679   6.848   1.922
10345TIP3    H230981   0.774   6.935   1.842
10346TIP3   OH230982   0.407   6.763   4.529
10346TIP3    H130983   0.492   6.797   4.504
10346TIP3    H230984   0.404   6.675   4.489
10347TIP3   OH230985   7.215   0.862   2.164
10347TIP3    H130986   7.164   0.913   2.227
10347TIP3    H230987   7.200   0.907   2.080
10348TIP3   OH230988   6.170   5.659   1.577
10348TIP3    H130989   6.106   5.679   1.645
10348TIP3    H230990   6.240   5.723   1.591
10349TIP3   OH230991   6.278   7.067   2.070
10349TIP3    H130992   6.295   7.156   2.100
10349TIP3    H230993   6.305   7.012   2.144
10350TIP3   OH230994   5.039   0.779   6.406
10350TIP3    H130995   5.131   0.756   6.419
10350TIP3    H230996   4.997   0.754   6.488
10351TIP3   OH230997   8.078   4.421   1.252
10351TIP3    H130998   8.128   4.482   1.197
10351TIP3    H230999   8.041   4.475   1.321
10352TIP3   OH231000   6.647   4.990   3.522
10352TIP3    H131001   6.597   5.062   3.481
10352TIP3    H231002   6.675   5.026   3.606
10353TIP3   OH231003   2.148   2.195   4.188
10353TIP3    H131004   2.159   2.267   4.126
10353TIP3    H231005   2.058   2.165   4.174
10354TIP3   OH231006   4.091   3.585   1.106
10354TIP3    H131007   4.095   3.620   1.195
10354TIP3    H231008   4.162   3.521   1.102
10355TIP3   OH231009   4.552   3.137   5.204
10355TIP3    H131010   4.477   3.195   5.220
10355TIP3    H231011   4.586   3.166   5.119
10356TIP3   OH231012   3.405   2.283   5.191
10356TIP3    H131013   3.325   2.321   5.229
10356TIP3    H231014   3.414   2.198   5.234
10357TIP3   OH231015   3.351   4.071   6.437
10357TIP3    H131016   3.444   4.049   6.442
10357TIP3    H231017   3.336   4.128   6.513
10358TIP3   OH231018   5.935   0.615   2.090
10358TIP3    H131019   5.967   0.559   2.162
10358TIP3    H231020   5.841   0.603   2.090
10359TIP3   OH231021   1.555   2.229   5.063
10359TIP3    H131022   1.641   2.239   5.105
10359TIP3    H231023   1.520   2.147   5.098
10360TIP3   OH231024   6.556   1.382   6.349
10360TIP3    H131025   6.591   1.307   6.396
10360TIP3    H231026   6.472   1.400   6.391
10361TIP3   OH231027   2.644   2.708   2.089
10361TIP3    H131028   2.678   2.634   2.038
10361TIP3    H231029   2.654   2.681   2.180
10362TIP3   OH231030   7.601   4.240   0.318
10362TIP3    H131031   7.696   4.230   0.307
10362TIP3    H231032   7.580   4.324   0.277
10363TIP3   OH231033   1.073   0.978   4.239
10363TIP3    H131034   0.978   0.973   4.225
10363TIP3    H231035   1.083   1.034   4.315
10364TIP3   OH231036   3.123   5.783   5.939
10364TIP3    H131037   3.122   5.756   6.030
10364TIP3    H231038   3.098   5.876   5.942
10365TIP3   OH231039   2.870   7.410   5.495
10365TIP3    H131040   2.885   7.316   5.483
10365TIP3    H231041   2.831   7.439   5.413
10366TIP3   OH231042   2.433   0.580   1.414
10366TIP3    H131043   2.454   0.650   1.352
10366TIP3    H231044   2.378   0.623   1.480
10367TIP3   OH231045   6.008   2.127   4.575
10367TIP3    H131046   6.077   2.092   4.632
10367TIP3    H231047   5.935   2.145   4.633
10368TIP3   OH231048   2.428   6.705   4.178
10368TIP3    H131049   2.492   6.765   4.138
10368TIP3    H231050   2.346   6.753   4.176
10369TIP3   OH231051   0.360   5.109   6.573
10369TIP3    H131052   0.356   5.039   6.509
10369TIP3    H231053   0.294   5.086   6.638
10370TIP3   OH231054   1.154   0.918   1.879
10370TIP3    H131055   1.227   0.944   1.934
10370TIP3    H231056   1.108   1.000   1.860
10371TIP3   OH231057   5.082   6.003   0.817
10371TIP3    H131058   4.990   5.989   0.839
10371TIP3    H231059   5.130   5.965   0.890
10372TIP3   OH231060   6.996   1.345   6.334
10372TIP3    H131061   7.076   1.293   6.332
10372TIP3    H231062   6.930   1.287   6.371
10373TIP3   OH231063   2.850   4.459   3.142
10373TIP3    H131064   2.816   4.372   3.118
10373TIP3    H231065   2.935   4.465   3.098
10374TIP3   OH231066   4.663   1.274   5.942
10374TIP3    H131067   4.700   1.280   5.854
10374TIP3    H231068   4.572   1.249   5.927
10375TIP3   OH231069   3.378   6.723   3.012
10375TIP3    H131070   3.284   6.711   2.994
10375TIP3    H231071   3.418   6.643   2.977
10376TIP3   OH231072   7.324   3.978   2.416
10376TIP3    H131073   7.382   3.949   2.346
10376TIP3    H231074   7.301   4.068   2.392
10377TIP3   OH231075   1.634   1.842   2.063
10377TIP3    H131076   1.569   1.835   1.993
10377TIP3    H231077   1.700   1.901   2.028
10378TIP3   OH231078   0.094   7.365   6.344
10378TIP3    H131079   0.170   7.347   6.289
10378TIP3    H231080   0.131   7.394   6.428
10379TIP3   OH231081   5.086   4.434   6.379
10379TIP3    H131082   5.066   4.385   6.459
10379TIP3    H231083   5.070   4.525   6.401
10380TIP3   OH231084   1.258   0.866   5.088
10380TIP3    H131085   1.173   0.871   5.045
10380TIP3    H231086   1.314   0.925   5.036
10381TIP3   OH231087   5.055   6.172   2.773
10381TIP3    H131088   5.111   6.229   2.825
10381TIP3    H231089   5.091   6.176   2.685
10382TIP3   OH231090   0.561   5.333   3.456
10382TIP3    H131091   0.600   5.249   3.434
10382TIP3    H231092   0.496   5.313   3.524
10383TIP3   OH231093   5.233   3.519   2.997
10383TIP3    H131094   5.182   3.564   2.930
10383TIP3    H231095   5.171   3.458   3.037
10384TIP3   OH231096   2.005   3.441   1.636
10384TIP3    H131097   2.083   3.393   1.610
10384TIP3    H231098   1.939   3.416   1.571
10385TIP3   OH231099   1.981   5.817   0.959
10385TIP3    H131100   1.988   5.840   0.866
10385TIP3    H231101   1.920   5.743   0.961
10386TIP3   OH231102   4.595   6.194   1.615
10386TIP3    H131103   4.640   6.113   1.637
10386TIP3    H231104   4.611   6.206   1.521
10387TIP3   OH231105   1.569   0.917   5.857
10387TIP3    H131106   1.615   0.889   5.778
10387TIP3    H231107   1.601   0.858   5.925
10388TIP3   OH231108   7.511   0.612   3.438
10388TIP3    H131109   7.530   0.705   3.444
10388TIP3    H231110   7.594   0.569   3.457
10389TIP3   OH231111   6.556   0.024   4.022
10389TIP3    H131112   6.589   0.107   4.058
10389TIP3    H231113   6.554  -0.035   4.098
10390TIP3   OH231114   5.050   1.071   6.410
10390TIP3    H131115   5.075   1.094   6.499
10390TIP3    H231116   5.038   0.976   6.411
10391TIP3   OH231117   5.710   3.573   5.302
10391TIP3    H131118   5.680   3.537   5.386
10391TIP3    H231119   5.629   3.593   5.255
10392TIP3   OH231120   0.556   6.448   1.313
10392TIP3    H131121   0.554   6.354   1.326
10392TIP3    H231122   0.557   6.459   1.218
10393TIP3   OH231123   4.294   4.414   3.781
10393TIP3    H131124   4.359   4.419   3.851
10393TIP3    H231125   4.251   4.500   3.783
10394TIP3   OH231126   1.904   0.232   1.962
10394TIP3    H131127   1.820   0.194   1.989
10394TIP3    H231128   1.880   0.309   1.910
10395TIP3   OH231129   3.443   1.197   3.794
10395TIP3    H131130   3.420   1.203   3.701
10395TIP3    H231131   3.367   1.233   3.840
10396TIP3   OH231132   6.699   3.634   6.480
10396TIP3    H131133   6.609   3.639   6.448
10396TIP3    H231134   6.707   3.547   6.517
10397TIP3   OH231135   5.717   4.466   5.376
10397TIP3    H131136   5.664   4.533   5.333
10397TIP3    H231137   5.654   4.401   5.407
10398TIP3   OH231138   1.417   5.531   6.384
10398TIP3    H131139   1.359   5.471   6.432
10398TIP3    H231140   1.484   5.474   6.347
10399TIP3   OH231141   1.393   3.912   4.307
10399TIP3    H131142   1.389   3.978   4.239
10399TIP3    H231143   1.329   3.846   4.281
10400TIP3   OH231144   0.106   0.322   0.310
10400TIP3    H131145   0.136   0.407   0.342
10400TIP3    H231146   0.185   0.270   0.301
10401TIP3   OH231147   5.912   7.506   6.402
10401TIP3    H131148   5.912   7.601   6.407
10401TIP3    H231149   5.926   7.477   6.492
10402TIP3   OH231150   5.482   2.738   0.128
10402TIP3    H131151   5.539   2.807   0.162
10402TIP3    H231152   5.495   2.665   0.187
10403TIP3   OH231153   6.295   6.422   3.216
10403TIP3    H131154   6.289   6.363   3.290
10403TIP3    H231155   6.229   6.391   3.154
10404TIP3   OH231156   5.655   0.703   1.997
10404TIP3    H131157   5.606   0.781   2.022
10404TIP3    H231158   5.732   0.736   1.950
10405TIP3   OH231159   4.557   3.490   1.074
10405TIP3    H131160   4.524   3.568   1.029
10405TIP3    H231161   4.630   3.460   1.019
10406TIP3   OH231162   3.220   1.272   3.937
10406TIP3    H131163   3.210   1.191   3.986
10406TIP3    H231164   3.186   1.340   3.995
10407TIP3   OH231165   3.022   7.331   2.983
10407TIP3    H131166   3.032   7.311   3.076
10407TIP3    H231167   2.927   7.331   2.969
10408TIP3   OH231168   3.757   4.561   4.129
10408TIP3    H131169   3.724   4.511   4.204
10408TIP3    H231170   3.776   4.494   4.062
10409TIP3   OH231171   7.602   4.444   3.469
10409TIP3    H131172   7.525   4.430   3.525
10409TIP3    H231173   7.566   4.456   3.382
10410TIP3   OH231174   7.315   6.213   4.882
10410TIP3    H131175   7.373   6.266   4.827
10410TIP3    H231176   7.229   6.255   4.873
10411TIP3   OH231177   7.093   6.976   4.281
10411TIP3    H131178   7.176   7.021   4.266
10411TIP3    H231179   7.063   7.009   4.366
10412TIP3   OH231180   1.729   6.571   3.384
10412TIP3    H131181   1.796   6.615   3.436
10412TIP3    H231182   1.739   6.478   3.405
10413TIP3   OH231183   3.725   3.763   1.665
10413TIP3    H131184   3.785   3.837   1.658
10413TIP3    H231185   3.772   3.699   1.718
10414TIP3   OH231186   3.619   7.666   6.764
10414TIP3    H131187   3.707   7.702   6.753
10414TIP3    H231188   3.569   7.701   6.690
10415TIP3   OH231189   7.837   6.108   5.109
10415TIP3    H131190   7.853   6.165   5.034
10415TIP3    H231191   7.874   6.023   5.082
10416TIP3   OH231192   0.293   1.979   1.971
10416TIP3    H131193   0.206   1.994   2.008
10416TIP3    H231194   0.316   2.062   1.929
10417TIP3   OH231195   8.261   3.320   2.596
10417TIP3    H131196   8.341   3.371   2.584
10417TIP3    H231197   8.196   3.362   2.541
10418TIP3   OH231198   1.668   6.948   6.358
10418TIP3    H131199   1.589   7.002   6.357
10418TIP3    H231200   1.715   6.973   6.279
10419TIP3   OH231201   7.658   4.649   0.805
10419TIP3    H131202   7.673   4.663   0.898
10419TIP3    H231203   7.614   4.563   0.801
10420TIP3   OH231204   0.471   2.375   3.320
10420TIP3    H131205   0.409   2.322   3.369
10420TIP3    H231206   0.548   2.319   3.311
10421TIP3   OH231207   5.510   7.113   0.881
10421TIP3    H131208   5.474   7.202   0.880
10421TIP3    H231209   5.475   7.073   0.801
10422TIP3   OH231210   0.519   5.910   0.314
10422TIP3    H131211   0.490   5.975   0.378
10422TIP3    H231212   0.577   5.852   0.363
10423TIP3   OH231213   4.502   6.742   4.255
10423TIP3    H131214   4.588   6.701   4.247
10423TIP3    H231215   4.462   6.701   4.332
10424TIP3   OH231216   2.374   4.823   5.643
10424TIP3    H131217   2.327   4.858   5.718
10424TIP3    H231218   2.395   4.732   5.668
10425TIP3   OH231219   5.210   3.729   4.688
10425TIP3    H131220   5.213   3.795   4.619
10425TIP3    H231221   5.263   3.766   4.759
10426TIP3   OH231222   6.103   2.387   6.680
10426TIP3    H131223   6.061   2.334   6.612
10426TIP3    H231224   6.040   2.456   6.699
10427TIP3   OH231225   7.180   3.253   3.484
10427TIP3    H131226   7.241   3.179   3.478
10427TIP3    H231227   7.181   3.276   3.577
10428TIP3   OH231228   7.517   3.805   0.655
10428TIP3    H131229   7.597   3.853   0.670
10428TIP3    H231230   7.532   3.719   0.695
10429TIP3   OH231231   0.907   6.248   1.800
10429TIP3    H131232   0.967   6.309   1.845
10429TIP3    H231233   0.921   6.164   1.844
10430TIP3   OH231234   6.364   7.428   5.637
10430TIP3    H131235   6.303   7.358   5.615
10430TIP3    H231236   6.348   7.445   5.730
10431TIP3   OH231237   8.106   6.808   0.381
10431TIP3    H131238   8.174   6.874   0.397
10431TIP3    H231239   8.056   6.806   0.463
10432TIP3   OH231240   1.026   0.035   3.750
10432TIP3    H131241   1.046   0.076   3.834
10432TIP3    H231242   0.985  -0.048   3.774
10433TIP3   OH231243   6.113   0.837   4.484
10433TIP3    H131244   6.062   0.861   4.407
10433TIP3    H231245   6.124   0.742   4.477
10434TIP3   OH231246   6.518   1.207   2.763
10434TIP3    H131247   6.435   1.253   2.771
10434TIP3    H231248   6.506   1.148   2.688
10435TIP3   OH231249   4.153   7.739   4.225
10435TIP3    H131250   4.173   7.784   4.307
10435TIP3    H231251   4.166   7.805   4.157
10436TIP3   OH231252   5.677   6.228   4.002
10436TIP3    H131253   5.597   6.198   4.046
10436TIP3    H231254   5.744   6.224   4.070
10437TIP3   OH231255   3.799   7.288   4.011
10437TIP3    H131256   3.806   7.313   3.919
10437TIP3    H231257   3.838   7.200   4.015
10438TIP3   OH231258   3.836   6.946   2.069
10438TIP3    H131259   3.924   6.975   2.096
10438TIP3    H231260   3.792   6.925   2.152
10439TIP3   OH231261   5.885   7.517   0.007
10439TIP3    H131262   5.918   7.551   0.091
10439TIP3    H231263   5.927   7.572  -0.059
10440TIP3   OH231264   0.254   5.976   2.694
10440TIP3    H131265   0.319   5.954   2.761
10440TIP3    H231266   0.214   5.893   2.670
10441TIP3   OH231267   1.037   6.533   0.416
10441TIP3    H131268   1.061   6.444   0.390
10441TIP3    H231269   1.120   6.572   0.444
10442TIP3   OH231270   7.647   4.291   3.718
10442TIP3    H131271   7.678   4.380   3.735
10442TIP3    H231272   7.560   4.304   3.680
10443TIP3   OH231273   0.052   6.479   3.737
10443TIP3    H131274   0.013   6.489   3.824
10443TIP3    H231275  -0.015   6.512   3.677
10444TIP3   OH231276   3.338   3.711   2.678
10444TIP3    H131277   3.318   3.661   2.757
10444TIP3    H231278   3.406   3.772   2.704
10445TIP3   OH231279   7.384   1.218   5.789
10445TIP3    H131280   7.332   1.148   5.830
10445TIP3    H231281   7.372   1.293   5.847
10446TIP3   OH231282   5.195   1.600   3.469
10446TIP3    H131283   5.134   1.545   3.517
10446TIP3    H231284   5.193   1.565   3.380
10447TIP3   OH231285   5.775   4.009   5.866
10447TIP3    H131286   5.704   4.021   5.929
10447TIP3    H231287   5.734   4.017   5.781
10448TIP3   OH231288   7.815   1.182   1.140
10448TIP3    H131289   7.884   1.213   1.199
10448TIP3    H231290   7.798   1.092   1.169
10449TIP3   OH231291   8.308   3.443   3.140
10449TIP3    H131292   8.234   3.386   3.118
10449TIP3    H231293   8.297   3.520   3.085
10450TIP3   OH231294   0.687   2.495   4.623
10450TIP3    H131295   0.614   2.447   4.663
10450TIP3    H231296   0.744   2.426   4.587
10451TIP3   OH231297   8.047   4.251   4.410
10451TIP3    H131298   7.963   4.218   4.444
10451TIP3    H231299   8.024   4.294   4.328
10452TIP3   OH231300   5.881   0.667   4.608
10452TIP3    H131301   5.878   0.601   4.677
10452TIP3    H231302   5.955   0.641   4.553
10453TIP3   OH231303   4.075   1.277   5.842
10453TIP3    H131304   4.101   1.185   5.842
10453TIP3    H231305   3.985   1.277   5.873
10454TIP3   OH231306   2.848   1.510   4.668
10454TIP3    H131307   2.844   1.555   4.584
10454TIP3    H231308   2.940   1.484   4.677
10455TIP3   OH231309   0.136   2.347   5.005
10455TIP3    H131310   0.198   2.404   5.051
10455TIP3    H231311   0.153   2.364   4.912
10456TIP3   OH231312   3.735   6.911   2.322
10456TIP3    H131313   3.643   6.938   2.322
10456TIP3    H231314   3.781   6.982   2.367
10457TIP3   OH231315   6.423   6.990   0.613
10457TIP3    H131316   6.459   7.042   0.541
10457TIP3    H231317   6.477   6.911   0.614
10458TIP3   OH231318   3.915   6.563   4.150
10458TIP3    H131319   3.852   6.635   4.150
10458TIP3    H231320   3.944   6.555   4.241
10459TIP3   OH231321   1.648   1.957   3.245
10459TIP3    H131322   1.617   2.005   3.322
10459TIP3    H231323   1.592   1.987   3.173
10460TIP3   OH231324   4.953   7.579   1.957
10460TIP3    H131325   4.947   7.657   2.011
10460TIP3    H231326   4.959   7.507   2.019
10461TIP3   OH231327   2.289   0.714   2.032
10461TIP3    H131328   2.320   0.787   1.978
10461TIP3    H231329   2.209   0.684   1.988
10462TIP3   OH231330   7.290   6.904   5.634
10462TIP3    H131331   7.319   6.993   5.654
10462TIP3    H231332   7.304   6.895   5.540
10463TIP3   OH231333   3.924   3.874   2.659
10463TIP3    H131334   4.016   3.867   2.682
10463TIP3    H231335   3.879   3.879   2.743
10464TIP3   OH231336   4.050   0.160   3.484
10464TIP3    H131337   3.981   0.196   3.539
10464TIP3    H231338   4.032   0.194   3.397
10465TIP3   OH231339   7.671   3.611   5.642
10465TIP3    H131340   7.723   3.629   5.720
10465TIP3    H231341   7.585   3.585   5.675
10466TIP3   OH231342   6.100   3.071   2.466
10466TIP3    H131343   6.188   3.061   2.503
10466TIP3    H231344   6.094   3.164   2.443
10467TIP3   OH231345   2.991   1.489   1.987
10467TIP3    H131346   3.000   1.507   1.893
10467TIP3    H231347   3.040   1.407   2.000
10468TIP3   OH231348   1.932   2.855   4.123
10468TIP3    H131349   1.968   2.783   4.174
10468TIP3    H231350   1.949   2.933   4.177
10469TIP3   OH231351   6.299   7.272   2.902
10469TIP3    H131352   6.296   7.337   2.832
10469TIP3    H231353   6.216   7.283   2.948
10470TIP3   OH231354   2.908   2.767   1.022
10470TIP3    H131355   2.830   2.713   1.031
10470TIP3    H231356   2.920   2.807   1.108
10471TIP3   OH231357   7.163   0.505   5.203
10471TIP3    H131358   7.205   0.581   5.162
10471TIP3    H231359   7.235   0.450   5.234
10472TIP3   OH231360   1.557   2.266   3.782
10472TIP3    H131361   1.638   2.263   3.832
10472TIP3    H231362   1.536   2.360   3.778
10473TIP3   OH231363   7.573   5.933   6.689
10473TIP3    H131364   7.568   5.881   6.609
10473TIP3    H231365   7.644   5.894   6.740
10474TIP3   OH231366   4.960   6.234   5.046
10474TIP3    H131367   5.013   6.210   5.122
10474TIP3    H231368   4.940   6.326   5.058
10475TIP3   OH231369   4.321   1.393   1.294
10475TIP3    H131370   4.270   1.466   1.329
10475TIP3    H231371   4.282   1.377   1.208
10476TIP3   OH231372   1.870   3.135   2.532
10476TIP3    H131373   1.924   3.191   2.587
10476TIP3    H231374   1.844   3.063   2.588
10477TIP3   OH231375   2.212   6.824   0.034
10477TIP3    H131376   2.135   6.842   0.088
10477TIP3    H231377   2.256   6.909   0.028
10478TIP3   OH231378   1.600   2.248   1.539
10478TIP3    H131379   1.534   2.183   1.517
10478TIP3    H231380   1.565   2.293   1.615
10479TIP3   OH231381   8.278   3.530   0.386
10479TIP3    H131382   8.243   3.508   0.299
10479TIP3    H231383   8.209   3.506   0.447
10480TIP3   OH231384   7.570   5.659   2.549
10480TIP3    H131385   7.610   5.575   2.575
10480TIP3    H231386   7.510   5.636   2.478
10481TIP3   OH231387   1.820   0.252   3.530
10481TIP3    H131388   1.761   0.262   3.455
10481TIP3    H231389   1.789   0.173   3.574
10482TIP3   OH231390   2.031   2.134   3.026
10482TIP3    H131391   2.001   2.116   2.936
10482TIP3    H231392   1.992   2.064   3.078
10483TIP3   OH231393   3.659   5.490   1.242
10483TIP3    H131394   3.726   5.546   1.282
10483TIP3    H231395   3.702   5.453   1.165
10484TIP3   OH231396   0.476   5.423   3.947
10484TIP3    H131397   0.459   5.515   3.927
10484TIP3    H231398   0.429   5.374   3.880
10485TIP3   OH231399   7.609   7.404   1.992
10485TIP3    H131400   7.621   7.351   1.914
10485TIP3    H231401   7.616   7.495   1.962
10486TIP3   OH231402   4.431   0.553   1.266
10486TIP3    H131403   4.446   0.638   1.306
10486TIP3    H231404   4.517   0.527   1.232
10487TIP3   OH231405   1.818   2.246   3.862
10487TIP3    H131406   1.904   2.203   3.866
10487TIP3    H231407   1.830   2.329   3.909
10488TIP3   OH231408   2.944   2.354   5.996
10488TIP3    H131409   2.934   2.327   6.087
10488TIP3    H231410   2.975   2.276   5.951
10489TIP3   OH231411   0.704   7.091   1.719
10489TIP3    H131412   0.677   7.041   1.642
10489TIP3    H231413   0.623   7.105   1.768
10490TIP3   OH231414   0.550   3.916   3.758
10490TIP3    H131415   0.475   3.859   3.743
10490TIP3    H231416   0.515   4.005   3.755
10491TIP3   OH231417   0.147   7.373   1.952
10491TIP3    H131418   0.221   7.423   1.919
10491TIP3    H231419   0.163   7.365   2.046
10492TIP3   OH231420   4.800   0.612   3.512
10492TIP3    H131421   4.756   0.529   3.531
10492TIP3    H231422   4.894   0.590   3.518
10493TIP3   OH231423   4.870   5.095   6.154
10493TIP3    H131424   4.875   5.097   6.058
10493TIP3    H231425   4.785   5.135   6.174
10494TIP3   OH231426   5.532   5.915   1.119
10494TIP3    H131427   5.604   5.873   1.072
10494TIP3    H231428   5.545   6.009   1.101
10495TIP3   OH231429   7.768   0.946   1.290
10495TIP3    H131430   7.716   0.874   1.254
10495TIP3    H231431   7.733   0.960   1.378
10496TIP3   OH231432   6.725   0.561   1.844
10496TIP3    H131433   6.810   0.601   1.827
10496TIP3    H231434   6.703   0.589   1.933
10497TIP3   OH231435   4.947   6.724   6.702
10497TIP3    H131436   4.855   6.749   6.713
10497TIP3    H231437   4.985   6.731   6.790
10498TIP3   OH231438   5.262   0.816   5.549
10498TIP3    H131439   5.236   0.894   5.500
10498TIP3    H231440   5.352   0.833   5.576
10499TIP3   OH231441   4.205   5.452   1.394
10499TIP3    H131442   4.233   5.380   1.451
10499TIP3    H231443   4.114   5.433   1.373
10500TIP3   OH231444   5.833   4.259   5.997
10500TIP3    H131445   5.822   4.188   5.934
10500TIP3    H231446   5.799   4.336   5.953
10501TIP3   OH231447   0.876   2.472   0.544
10501TIP3    H131448   0.912   2.498   0.628
10501TIP3    H231449   0.879   2.552   0.491
10502TIP3   OH231450   0.129   5.140   1.261
10502TIP3    H131451   0.036   5.156   1.273
10502TIP3    H231452   0.148   5.172   1.173
10503TIP3   OH231453   6.579   5.736   2.151
10503TIP3    H131454   6.495   5.771   2.121
10503TIP3    H231455   6.611   5.802   2.212
10504TIP3   OH231456   7.203   6.155   6.319
10504TIP3    H131457   7.292   6.154   6.352
10504TIP3    H231458   7.208   6.209   6.240
10505TIP3   OH231459   2.617   2.651   5.478
10505TIP3    H131460   2.708   2.664   5.503
10505TIP3    H231461   2.566   2.684   5.552
10506TIP3   OH231462   4.749   2.768   1.267
10506TIP3    H131463   4.714   2.841   1.318
10506TIP3    H231464   4.704   2.691   1.303
10507TIP3   OH231465   5.878   1.753   4.754
10507TIP3    H131466   5.819   1.817   4.793
10507TIP3    H231467   5.859   1.671   4.801
10508TIP3   OH231468   0.687   7.459   5.979
10508TIP3    H131469   0.685   7.433   5.888
10508TIP3    H231470   0.715   7.381   6.027
10509TIP3   OH231471   1.380   6.255   1.700
10509TIP3    H131472   1.379   6.271   1.794
10509TIP3    H231473   1.288   6.245   1.676
10510TIP3   OH231474   4.730   1.799   2.110
10510TIP3    H131475   4.797   1.865   2.129
10510TIP3    H231476   4.777   1.732   2.060
10511TIP3   OH231477   3.516   7.515   1.977
10511TIP3    H131478   3.610   7.514   1.958
10511TIP3    H231479   3.485   7.598   1.942
10512TIP3   OH231480   6.765   4.537   5.591
10512TIP3    H131481   6.728   4.510   5.675
10512TIP3    H231482   6.858   4.518   5.599
10513TIP3   OH231483   1.068   2.307   3.475
10513TIP3    H131484   1.161   2.314   3.453
10513TIP3    H231485   1.050   2.383   3.529
10514TIP3   OH231486   2.733   0.963   3.870
10514TIP3    H131487   2.826   0.986   3.865
10514TIP3    H231488   2.691   1.020   3.806
10515TIP3   OH231489   0.964   1.645   1.711
10515TIP3    H131490   0.904   1.720   1.713
10515TIP3    H231491   0.912   1.574   1.673
10516TIP3   OH231492   5.437   6.517   0.529
10516TIP3    H131493   5.359   6.540   0.478
10516TIP3    H231494   5.410   6.527   0.620
10517TIP3   OH231495   4.306   5.279   6.756
10517TIP3    H131496   4.292   5.186   6.740
10517TIP3    H231497   4.219   5.313   6.778
10518TIP3   OH231498   0.290   4.531   0.691
10518TIP3    H131499   0.292   4.627   0.684
10518TIP3    H231500   0.216   4.504   0.638
10519TIP3   OH231501   0.794   4.919   4.589
10519TIP3    H131502   0.850   4.944   4.515
10519TIP3    H231503   0.768   5.002   4.628
10520TIP3   OH231504   0.639   5.283   2.157
10520TIP3    H131505   0.715   5.322   2.201
10520TIP3    H231506   0.669   5.196   2.131
10521TIP3   OH231507   0.897   6.913   4.445
10521TIP3    H131508   0.978   6.863   4.447
10521TIP3    H231509   0.889   6.949   4.533
10522TIP3   OH231510   5.755   7.806   4.156
10522TIP3    H131511   5.772   7.724   4.201
10522TIP3    H231512   5.701   7.856   4.217
10523TIP3   OH231513   2.011   6.842   6.362
10523TIP3    H131514   1.968   6.761   6.391
10523TIP3    H231515   1.972   6.861   6.276
10524TIP3   OH231516   4.975   6.330   3.843
10524TIP3    H131517   4.934   6.400   3.791
10524TIP3    H231518   4.912   6.258   3.839
10525TIP3   OH231519   1.528   0.203   0.720
10525TIP3    H131520   1.517   0.207   0.815
10525TIP3    H231521   1.623   0.207   0.708
10526TIP3   OH231522   5.883   4.167   4.287
10526TIP3    H131523   5.833   4.085   4.296
10526TIP3    H231524   5.954   4.146   4.227
10527TIP3   OH231525   6.338   0.897   1.617
10527TIP3    H131526   6.407   0.923   1.556
10527TIP3    H231527   6.383   0.890   1.702
10528TIP3   OH231528   3.395   2.355   2.045
10528TIP3    H131529   3.438   2.311   2.118
10528TIP3    H231530   3.303   2.330   2.053
10529TIP3   OH231531   6.009   6.041   0.205
10529TIP3    H131532   5.981   6.132   0.194
10529TIP3    H231533   5.930   5.989   0.191
10530TIP3   OH231534   3.860   6.852   0.336
10530TIP3    H131535   3.788   6.842   0.273
10530TIP3    H231536   3.938   6.857   0.281
10531TIP3   OH231537   4.493   1.639   5.775
10531TIP3    H131538   4.527   1.629   5.686
10531TIP3    H231539   4.434   1.564   5.786
10532TIP3   OH231540   7.247   5.789   3.040
10532TIP3    H131541   7.217   5.700   3.055
10532TIP3    H231542   7.267   5.793   2.947
10533TIP3   OH231543   7.686   6.053   0.413
10533TIP3    H131544   7.693   6.118   0.343
10533TIP3    H231545   7.685   5.969   0.367
10534TIP3   OH231546   6.310   1.768   3.155
10534TIP3    H131547   6.284   1.759   3.246
10534TIP3    H231548   6.244   1.718   3.106
10535TIP3   OH231549   0.623   7.103   5.149
10535TIP3    H131550   0.609   7.053   5.070
10535TIP3    H231551   0.697   7.161   5.129
10536TIP3   OH231552   6.363   5.115   5.281
10536TIP3    H131553   6.314   5.147   5.205
10536TIP3    H231554   6.308   5.138   5.356
10537TIP3   OH231555   2.125   3.583   6.587
10537TIP3    H131556   2.188   3.557   6.520
10537TIP3    H231557   2.172   3.646   6.642
10538TIP3   OH231558   5.142   5.167   0.729
10538TIP3    H131559   5.099   5.135   0.650
10538TIP3    H231560   5.111   5.257   0.739
10539TIP3   OH231561   6.501   5.766   6.294
10539TIP3    H131562   6.419   5.748   6.248
10539TIP3    H231563   6.484   5.738   6.384
10540TIP3   OH231564   4.126   2.253   0.491
10540TIP3    H131565   4.126   2.338   0.535
10540TIP3    H231566   4.067   2.199   0.544
10541TIP3   OH231567   4.270   4.341   6.271
10541TIP3    H131568   4.219   4.346   6.351
10541TIP3    H231569   4.361   4.343   6.300
10542TIP3   OH231570   4.551   1.577   4.513
10542TIP3    H131571   4.471   1.526   4.505
10542TIP3    H231572   4.560   1.621   4.428
10543TIP3   OH231573   0.145   6.151   6.648
10543TIP3    H131574   0.194   6.221   6.692
10543TIP3    H231575   0.213   6.095   6.610
10544TIP3   OH231576   2.648   3.273   2.817
10544TIP3    H131577   2.684   3.313   2.896
10544TIP3    H231578   2.589   3.339   2.782
10545TIP3   OH231579   4.897   2.904   4.831
10545TIP3    H131580   4.937   2.976   4.880
10545TIP3    H231581   4.881   2.941   4.744
10546TIP3   OH231582   0.690   5.708   5.838
10546TIP3    H131583   0.623   5.769   5.810
10546TIP3    H231584   0.643   5.644   5.892
10547TIP3   OH231585   5.944   0.852   0.342
10547TIP3    H131586   5.947   0.931   0.288
10547TIP3    H231587   6.024   0.805   0.319
10548TIP3   OH231588   8.236   4.131   5.309
10548TIP3    H131589   8.156   4.160   5.265
10548TIP3    H231590   8.251   4.042   5.277
10549TIP3   OH231591   6.495   5.336   5.365
10549TIP3    H131592   6.582   5.299   5.380
10549TIP3    H231593   6.446   5.266   5.321
10550TIP3   OH231594   4.349   6.144   6.097
10550TIP3    H131595   4.363   6.112   6.008
10550TIP3    H231596   4.286   6.083   6.135
10551TIP3   OH231597   6.990   2.154   0.398
10551TIP3    H131598   6.943   2.071   0.386
10551TIP3    H231599   7.071   2.142   0.349
10552TIP3   OH231600   6.606   1.205   5.582
10552TIP3    H131601   6.588   1.128   5.635
10552TIP3    H231602   6.552   1.194   5.504
10553TIP3   OH231603   4.717   4.122   0.019
10553TIP3    H131604   4.713   4.205   0.067
10553TIP3    H231605   4.739   4.147  -0.071
10554TIP3   OH231606   3.663   3.156   3.599
10554TIP3    H131607   3.697   3.244   3.584
10554TIP3    H231608   3.666   3.146   3.695
10555TIP3   OH231609   6.730   7.607   2.603
10555TIP3    H131610   6.745   7.682   2.661
10555TIP3    H231611   6.669   7.640   2.537
10556TIP3   OH231612   7.994   7.645   0.055
10556TIP3    H131613   8.019   7.724   0.102
10556TIP3    H231614   8.052   7.644  -0.022
10557TIP3   OH231615   7.866   0.429   1.285
10557TIP3    H131616   7.900   0.339   1.294
10557TIP3    H231617   7.909   0.478   1.354
10558TIP3   OH231618   5.284   0.467   1.902
10558TIP3    H131619   5.284   0.475   1.806
10558TIP3    H231620   5.256   0.378   1.919
10559TIP3   OH231621   6.504   3.407   6.504
10559TIP3    H131622   6.599   3.399   6.508
10559TIP3    H231623   6.489   3.462   6.427
10560TIP3   OH231624   2.882   4.413   2.599
10560TIP3    H131625   2.793   4.447   2.604
10560TIP3    H231626   2.874   4.331   2.551
10561TIP3   OH231627   0.433   7.797   2.815
10561TIP3    H131628   0.477   7.814   2.732
10561TIP3    H231629   0.343   7.774   2.791
10562TIP3   OH231630   2.733   6.043   3.787
10562TIP3    H131631   2.825   6.015   3.785
10562TIP3    H231632   2.734   6.134   3.758
10563TIP3   OH231633   4.536   0.629   3.433
10563TIP3    H131634   4.614   0.683   3.420
10563TIP3    H231635   4.530   0.619   3.528
10564TIP3   OH231636   0.362   3.448   6.158
10564TIP3    H131637   0.427   3.382   6.134
10564TIP3    H231638   0.315   3.467   6.077
10565TIP3   OH231639   1.937   0.712   4.605
10565TIP3    H131640   1.899   0.626   4.584
10565TIP3    H231641   1.870   0.774   4.577
10566TIP3   OH231642   6.675   1.235   3.026
10566TIP3    H131643   6.657   1.161   3.084
10566TIP3    H231644   6.630   1.213   2.945
10567TIP3   OH231645   4.709   6.073   4.057
10567TIP3    H131646   4.615   6.081   4.070
10567TIP3    H231647   4.723   6.096   3.965
10568TIP3   OH231648   2.447   6.667   4.801
10568TIP3    H131649   2.401   6.593   4.842
10568TIP3    H231650   2.383   6.704   4.740
10569TIP3   OH231651   3.612   5.623   3.428
10569TIP3    H131652   3.651   5.586   3.349
10569TIP3    H231653   3.518   5.611   3.418
10570TIP3   OH231654   5.428   4.085   2.537
10570TIP3    H131655   5.343   4.073   2.580
10570TIP3    H231656   5.445   4.179   2.544
10571TIP3   OH231657   1.570   3.540   1.603
10571TIP3    H131658   1.545   3.614   1.547
10571TIP3    H231659   1.518   3.467   1.571
10572TIP3   OH231660   8.230   6.937   3.522
10572TIP3    H131661   8.257   6.977   3.439
10572TIP3    H231662   8.194   7.010   3.572
10573TIP3   OH231663   0.867   6.689   1.519
10573TIP3    H131664   0.802   6.663   1.584
10573TIP3    H231665   0.922   6.612   1.508
10574TIP3   OH231666   3.620   7.374   1.320
10574TIP3    H131667   3.530   7.390   1.292
10574TIP3    H231668   3.628   7.278   1.319
10575TIP3   OH231669   7.087   5.254   3.130
10575TIP3    H131670   7.005   5.237   3.177
10575TIP3    H231671   7.101   5.176   3.077
10576TIP3   OH231672   0.828   6.931   6.633
10576TIP3    H131673   0.830   7.010   6.579
10576TIP3    H231674   0.739   6.928   6.667
10577TIP3   OH231675   1.312   7.042   0.537
10577TIP3    H131676   1.315   7.112   0.602
10577TIP3    H231677   1.280   6.966   0.585
10578TIP3   OH231678   7.989   5.550   5.332
10578TIP3    H131679   8.065   5.496   5.310
10578TIP3    H231680   7.939   5.497   5.395
10579TIP3   OH231681   4.287   1.830   5.993
10579TIP3    H131682   4.259   1.782   5.915
10579TIP3    H231683   4.208   1.839   6.046
10580TIP3   OH231684   0.909   0.674   2.502
10580TIP3    H131685   0.848   0.643   2.434
10580TIP3    H231686   0.993   0.680   2.458
10581TIP3   OH231687   1.492   0.307   1.259
10581TIP3    H131688   1.449   0.309   1.344
10581TIP3    H231689   1.579   0.269   1.277
10582TIP3   OH231690   6.465   6.657   3.796
10582TIP3    H131691   6.529   6.593   3.765
10582TIP3    H231692   6.458   6.641   3.890
10583TIP3   OH231693   5.109   4.748   1.140
10583TIP3    H131694   5.131   4.717   1.052
10583TIP3    H231695   5.185   4.724   1.193
10584TIP3   OH231696   0.502   3.870   1.188
10584TIP3    H131697   0.570   3.880   1.121
10584TIP3    H231698   0.481   3.959   1.214
10585TIP3   OH231699   1.556   5.630   0.959
10585TIP3    H131700   1.473   5.634   1.009
10585TIP3    H231701   1.609   5.700   0.997
10586TIP3   OH231702   7.379   5.295   0.611
10586TIP3    H131703   7.390   5.253   0.696
10586TIP3    H231704   7.413   5.232   0.548
10587TIP3   OH231705   2.394   6.178   4.780
10587TIP3    H131706   2.468   6.136   4.824
10587TIP3    H231707   2.345   6.105   4.742
10588TIP3   OH231708   0.616   7.629   0.788
10588TIP3    H131709   0.652   7.663   0.870
10588TIP3    H231710   0.673   7.664   0.720
10589TIP3   OH231711   4.357   0.911   0.024
10589TIP3    H131712   4.399   0.851   0.086
10589TIP3    H231713   4.287   0.859  -0.016
10590TIP3   OH231714   6.840   3.686   0.926
10590TIP3    H131715   6.895   3.738   0.867
10590TIP3    H231716   6.816   3.609   0.874
10591TIP3   OH231717   2.694   5.596   1.269
10591TIP3    H131718   2.614   5.644   1.249
10591TIP3    H231719   2.667   5.532   1.336
10592TIP3   OH231720   0.708   3.448   1.204
10592TIP3    H131721   0.630   3.484   1.246
10592TIP3    H231722   0.779   3.466   1.266
10593TIP3   OH231723   0.330   3.772   2.748
10593TIP3    H131724   0.271   3.710   2.790
10593TIP3    H231725   0.415   3.756   2.789
10594TIP3   OH231726   4.880   4.621   1.229
10594TIP3    H131727   4.951   4.678   1.200
10594TIP3    H231728   4.847   4.581   1.149
10595TIP3   OH231729   6.095   3.835   1.282
10595TIP3    H131730   6.031   3.860   1.215
10595TIP3    H231731   6.114   3.743   1.264
10596TIP3   OH231732   4.461   4.402   5.449
10596TIP3    H131733   4.395   4.336   5.472
10596TIP3    H231734   4.451   4.470   5.515
10597TIP3   OH231735   6.987   7.731   1.080
10597TIP3    H131736   6.963   7.784   1.004
10597TIP3    H231737   6.915   7.668   1.089
10598TIP3   OH231738   6.171   0.012   0.433
10598TIP3    H131739   6.154   0.066   0.510
10598TIP3    H231740   6.223  -0.061   0.467
10599TIP3   OH231741   8.184   3.922   0.937
10599TIP3    H131742   8.090   3.906   0.941
10599TIP3    H231743   8.192   4.008   0.897
10600TIP3   OH231744   4.169   0.756   4.119
10600TIP3    H131745   4.117   0.680   4.092
10600TIP3    H231746   4.129   0.829   4.071
10601TIP3   OH231747   1.196   5.057   1.413
10601TIP3    H131748   1.206   5.149   1.389
10601TIP3    H231749   1.273   5.013   1.376
10602TIP3   OH231750   1.497   5.351   2.269
10602TIP3    H131751   1.536   5.263   2.263
10602TIP3    H231752   1.549   5.404   2.208
10603TIP3   OH231753   5.269   6.202   5.991
10603TIP3    H131754   5.237   6.282   6.034
10603TIP3    H231755   5.292   6.144   6.063
10604TIP3   OH231756   8.244   0.668   6.261
10604TIP3    H131757   8.270   0.597   6.203
10604TIP3    H231758   8.275   0.641   6.347
10605TIP3   OH231759   8.212   3.949   5.618
10605TIP3    H131760   8.289   3.957   5.562
10605TIP3    H231761   8.192   3.856   5.619
10606TIP3   OH231762   2.368   6.050   4.102
10606TIP3    H131763   2.428   6.008   4.041
10606TIP3    H231764   2.392   6.143   4.098
10607TIP3   OH231765   4.868   4.028   1.936
10607TIP3    H131766   4.845   3.942   1.971
10607TIP3    H231767   4.913   4.072   2.008
10608TIP3   OH231768   0.395   7.136   3.761
10608TIP3    H131769   0.449   7.195   3.708
10608TIP3    H231770   0.454   7.066   3.787
10609TIP3   OH231771   6.193   1.169   5.973
10609TIP3    H131772   6.252   1.230   5.927
10609TIP3    H231773   6.171   1.215   6.054
10610TIP3   OH231774   7.456   5.843   6.207
10610TIP3    H131775   7.478   5.926   6.249
10610TIP3    H231776   7.538   5.812   6.170
10611TIP3   OH231777   1.066   4.911   0.222
10611TIP3    H131778   1.154   4.898   0.257
10611TIP3    H231779   1.034   4.990   0.265
10612TIP3   OH231780   3.353   7.332   4.891
10612TIP3    H131781   3.358   7.371   4.979
10612TIP3    H231782   3.411   7.386   4.837
10613TIP3   OH231783   6.992   7.080   1.308
10613TIP3    H131784   6.909   7.074   1.261
10613TIP3    H231785   7.027   6.990   1.307
10614TIP3   OH231786   4.055   2.089   5.905
10614TIP3    H131787   4.148   2.092   5.927
10614TIP3    H231788   4.054   2.066   5.812
10615TIP3   OH231789   2.547   1.736   6.407
10615TIP3    H131790   2.489   1.796   6.453
10615TIP3    H231791   2.554   1.660   6.465
10616TIP3   OH231792   8.184   0.379   0.819
10616TIP3    H131793   8.259   0.419   0.864
10616TIP3    H231794   8.200   0.284   0.828
10617TIP3   OH231795   0.682   6.515   3.258
10617TIP3    H131796   0.659   6.583   3.194
10617TIP3    H231797   0.737   6.454   3.210
10618TIP3   OH231798   0.657   3.656   0.852
10618TIP3    H131799   0.564   3.652   0.877
10618TIP3    H231800   0.662   3.730   0.792
10619TIP3   OH231801   3.043   5.031   1.811
10619TIP3    H131802   3.022   4.950   1.764
10619TIP3    H231803   2.973   5.091   1.788
10620TIP3   OH231804   8.257   6.817   1.055
10620TIP3    H131805   8.209   6.807   1.138
10620TIP3    H231806   8.345   6.845   1.081
10621TIP3   OH231807   1.585   0.803   6.695
10621TIP3    H131808   1.524   0.860   6.741
10621TIP3    H231809   1.617   0.743   6.762
10622TIP3   OH231810   3.468   5.973   2.719
10622TIP3    H131811   3.456   5.985   2.625
10622TIP3    H231812   3.563   5.976   2.731
10623TIP3   OH231813   1.613   2.688   4.599
10623TIP3    H131814   1.528   2.670   4.640
10623TIP3    H231815   1.624   2.617   4.535
10624TIP3   OH231816   8.264   6.320   1.997
10624TIP3    H131817   8.176   6.283   2.005
10624TIP3    H231818   8.277   6.369   2.078
10625TIP3   OH231819   0.436   0.057   2.356
10625TIP3    H131820   0.345   0.032   2.372
10625TIP3    H231821   0.462   0.005   2.280
10626TIP3   OH231822   3.172   4.350   3.053
10626TIP3    H131823   3.113   4.403   2.999
10626TIP3    H231824   3.249   4.406   3.066
10627TIP3   OH231825   4.433   4.908   2.192
10627TIP3    H131826   4.392   4.964   2.126
10627TIP3    H231827   4.527   4.917   2.177
10628TIP3   OH231828   8.238   6.186   4.082
10628TIP3    H131829   8.317   6.137   4.104
10628TIP3    H231830   8.178   6.167   4.154
10629TIP3   OH231831   6.055   5.201   3.970
10629TIP3    H131832   6.028   5.289   3.944
10629TIP3    H231833   6.147   5.196   3.945
10630TIP3   OH231834   3.810   1.289   5.887
10630TIP3    H131835   3.741   1.287   5.821
10630TIP3    H231836   3.834   1.381   5.894
10631TIP3   OH231837   1.985   6.574   2.987
10631TIP3    H131838   2.005   6.588   2.894
10631TIP3    H231839   1.937   6.652   3.013
10632TIP3   OH231840   1.585   3.300   4.002
10632TIP3    H131841   1.603   3.394   4.002
10632TIP3    H231842   1.653   3.263   4.059
10633TIP3   OH231843   2.750   6.529   3.695
10633TIP3    H131844   2.737   6.620   3.670
10633TIP3    H231845   2.829   6.530   3.748
10634TIP3   OH231846   1.686   7.438   5.322
10634TIP3    H131847   1.646   7.352   5.334
10634TIP3    H231848   1.629   7.498   5.370
10635TIP3   OH231849   6.020   3.557   5.614
10635TIP3    H131850   5.972   3.638   5.632
10635TIP3    H231851   6.077   3.545   5.689
10636TIP3   OH231852   7.454   5.330   5.801
10636TIP3    H131853   7.456   5.310   5.707
10636TIP3    H231854   7.371   5.377   5.813
10637TIP3   OH231855   1.846   1.115   2.684
10637TIP3    H131856   1.916   1.061   2.719
10637TIP3    H231857   1.795   1.055   2.629
10638TIP3   OH231858   5.701   5.118   5.298
10638TIP3    H131859   5.751   5.186   5.252
10638TIP3    H231860   5.737   5.036   5.264
10639TIP3   OH231861   0.208   5.225   2.516
10639TIP3    H131862   0.260   5.202   2.592
10639TIP3    H231863   0.154   5.148   2.499
10640TIP3   OH231864   7.796   2.356   6.097
10640TIP3    H131865   7.763   2.432   6.145
10640TIP3    H231866   7.884   2.381   6.068
10641TIP3   OH231867   7.804   1.930   0.921
10641TIP3    H131868   7.894   1.904   0.939
10641TIP3    H231869   7.764   1.853   0.882
10642TIP3   OH231870   5.926   0.691   0.899
10642TIP3    H131871   5.885   0.635   0.833
10642TIP3    H231872   5.852   0.731   0.946
10643TIP3   OH231873   4.593   3.736   0.416
10643TIP3    H131874   4.597   3.803   0.348
10643TIP3    H231875   4.681   3.697   0.417
10644TIP3   OH231876   0.969   7.145   1.743
10644TIP3    H131877   1.005   7.074   1.690
10644TIP3    H231878   0.874   7.140   1.730
10645TIP3   OH231879   0.972   7.477   0.402
10645TIP3    H131880   1.024   7.517   0.332
10645TIP3    H231881   1.037   7.442   0.462
10646TIP3   OH231882   4.583   7.700   1.967
10646TIP3    H131883   4.601   7.782   2.014
10646TIP3    H231884   4.590   7.632   2.033
10647TIP3   OH231885   2.876   3.304   5.043
10647TIP3    H131886   2.800   3.276   5.095
10647TIP3    H231887   2.893   3.393   5.071
10648TIP3   OH231888   5.959   1.966   1.829
10648TIP3    H131889   5.939   1.922   1.746
10648TIP3    H231890   5.946   1.899   1.896
10649TIP3   OH231891   7.481   0.098   5.856
10649TIP3    H131892   7.464   0.015   5.900
10649TIP3    H231893   7.539   0.075   5.784
10650TIP3   OH231894   2.200   1.132   5.686
10650TIP3    H131895   2.241   1.075   5.621
10650TIP3    H231896   2.232   1.220   5.665
10651TIP3   OH231897   1.032   3.674   5.022
10651TIP3    H131898   0.952   3.725   5.024
10651TIP3    H231899   1.082   3.704   5.098
10652TIP3   OH231900   3.146   4.934   4.192
10652TIP3    H131901   3.217   4.983   4.233
10652TIP3    H231902   3.147   4.962   4.101
10653TIP3   OH231903   7.297   3.530   6.744
10653TIP3    H131904   7.265   3.482   6.820
10653TIP3    H231905   7.371   3.478   6.712
10654TIP3   OH231906   6.972   2.493   1.615
10654TIP3    H131907   7.050   2.472   1.564
10654TIP3    H231908   6.904   2.436   1.580
10655TIP3   OH231909   1.706   4.741   6.614
10655TIP3    H131910   1.771   4.761   6.682
10655TIP3    H231911   1.655   4.822   6.606
10656TIP3   OH231912   5.620   6.918   2.039
10656TIP3    H131913   5.582   6.921   2.127
10656TIP3    H231914   5.605   7.006   2.004
10657TIP3   OH231915   1.375   4.114   5.847
10657TIP3    H131916   1.437   4.127   5.776
10657TIP3    H231917   1.294   4.155   5.816
10658TIP3   OH231918   2.604   3.913   6.689
10658TIP3    H131919   2.579   3.848   6.623
10658TIP3    H231920   2.672   3.870   6.741
10659TIP3   OH231921   2.709   5.898   5.392
10659TIP3    H131922   2.716   5.809   5.358
10659TIP3    H231923   2.691   5.887   5.485
10660TIP3   OH231924   2.130   3.953   6.511
10660TIP3    H131925   2.222   3.979   6.507
10660TIP3    H231926   2.105   3.939   6.420
10661TIP3   OH231927   4.932   4.096   4.680
10661TIP3    H131928   4.952   4.179   4.723
10661TIP3    H231929   4.840   4.103   4.655
10662TIP3   OH231930   6.185   6.847   6.071
10662TIP3    H131931   6.109   6.844   6.130
10662TIP3    H231932   6.193   6.940   6.049
10663TIP3   OH231933   1.492   0.929   3.219
10663TIP3    H131934   1.529   0.993   3.280
10663TIP3    H231935   1.434   0.980   3.163
10664TIP3   OH231936   3.317   5.805   4.371
10664TIP3    H131937   3.280   5.877   4.423
10664TIP3    H231938   3.377   5.762   4.431
10665TIP3   OH231939   1.534   2.824   1.503
10665TIP3    H131940   1.440   2.835   1.521
10665TIP3    H231941   1.575   2.820   1.589
10666TIP3   OH231942   0.079   2.934   6.165
10666TIP3    H131943   0.077   2.846   6.126
10666TIP3    H231944   0.172   2.955   6.171
10667TIP3   OH231945   3.754   4.061   3.867
10667TIP3    H131946   3.715   4.109   3.940
10667TIP3    H231947   3.759   3.970   3.898
10668TIP3   OH231948   4.916   3.566   3.569
10668TIP3    H131949   5.011   3.573   3.570
10668TIP3    H231950   4.891   3.583   3.479
10669TIP3   OH231951   1.260   0.766   6.481
10669TIP3    H131952   1.303   0.681   6.486
10669TIP3    H231953   1.302   0.811   6.408
10670TIP3   OH231954   3.695   6.850   6.793
10670TIP3    H131955   3.756   6.846   6.720
10670TIP3    H231956   3.624   6.790   6.769
10671TIP3   OH231957   7.715   7.730   0.095
10671TIP3    H131958   7.788   7.668   0.101
10671TIP3    H231959   7.710   7.754   0.003
10672TIP3   OH231960   3.252   6.598   1.260
10672TIP3    H131961   3.310   6.556   1.324
10672TIP3    H231962   3.304   6.669   1.223
10673TIP3   OH231963   0.576   7.527   3.435
10673TIP3    H131964   0.521   7.451   3.419
10673TIP3    H231965   0.528   7.600   3.395
10674TIP3   OH231966   2.811   6.310   3.306
10674TIP3    H131967   2.761   6.392   3.300
10674TIP3    H231968   2.782   6.270   3.388
10675TIP3   OH231969   1.416   7.097   2.887
10675TIP3    H131970   1.401   7.031   2.819
10675TIP3    H231971   1.405   7.051   2.970
10676TIP3   OH231972   0.468   1.267   3.038
10676TIP3    H131973   0.400   1.262   3.106
10676TIP3    H231974   0.453   1.190   2.984
10677TIP3   OH231975   6.272   4.560   5.811
10677TIP3    H131976   6.322   4.586   5.889
10677TIP3    H231977   6.336   4.562   5.740
10678TIP3   OH231978   8.222   7.152   3.910
10678TIP3    H131979   8.233   7.223   3.973
10678TIP3    H231980   8.310   7.120   3.895
10679TIP3   OH231981   6.321   5.831   3.943
10679TIP3    H131982   6.353   5.920   3.926
10679TIP3    H231983   6.349   5.813   4.032
10680TIP3   OH231984   6.263   5.055   4.504
10680TIP3    H131985   6.189   5.011   4.547
10680TIP3    H231986   6.266   5.017   4.417
10681TIP3   OH231987   1.892   4.642   0.463
10681TIP3    H131988   1.945   4.563   0.464
10681TIP3    H231989   1.826   4.627   0.396
10682TIP3   OH231990   3.369   1.288   5.227
10682TIP3    H131991   3.330   1.321   5.146
10682TIP3    H231992   3.307   1.312   5.296
10683TIP3   OH231993   6.422   5.367   1.292
10683TIP3    H131994   6.470   5.412   1.362
10683TIP3    H231995   6.457   5.278   1.292
10684TIP3   OH231996   7.273   4.437   0.136
10684TIP3    H131997   7.217   4.494   0.189
10684TIP3    H231998   7.216   4.363   0.114
10685TIP3   OH231999   3.793   3.799   3.998
10685TIP3    H132000   3.722   3.749   4.039
10685TIP3    H232001   3.837   3.842   4.072
10686TIP3   OH232002   1.019   2.546   0.815
10686TIP3    H132003   1.066   2.522   0.895
10686TIP3    H232004   1.088   2.575   0.755
10687TIP3   OH232005   7.666   7.002  -0.016
10687TIP3    H132006   7.628   6.914  -0.022
10687TIP3    H232007   7.733   6.994   0.052
10688TIP3   OH232008   0.632   5.062   0.972
10688TIP3    H132009   0.617   5.036   1.064
10688TIP3    H232010   0.576   5.138   0.959
10689TIP3   OH232011   7.724   1.663   3.169
10689TIP3    H132012   7.712   1.612   3.089
10689TIP3    H232013   7.806   1.710   3.156
10690TIP3   OH232014   4.327   6.255   4.250
10690TIP3    H132015   4.397   6.319   4.235
10690TIP3    H232016   4.255   6.306   4.287
10691TIP3   OH232017   4.830   1.059   0.893
10691TIP3    H132018   4.796   1.051   0.804
10691TIP3    H232019   4.893   1.130   0.889
10692TIP3   OH232020   8.207   0.286   3.936
10692TIP3    H132021   8.207   0.375   3.900
10692TIP3    H232022   8.199   0.298   4.030
10693TIP3   OH232023   5.243   3.881   6.481
10693TIP3    H132024   5.211   3.857   6.394
10693TIP3    H232025   5.175   3.937   6.517
10694TIP3   OH232026   2.466   4.435   0.020
10694TIP3    H132027   2.485   4.342   0.037
10694TIP3    H232028   2.386   4.452   0.070
10695TIP3   OH232029   7.428   7.398   4.846
10695TIP3    H132030   7.348   7.397   4.899
10695TIP3    H232031   7.499   7.384   4.909
10696TIP3   OH232032   8.100   4.481   4.947
10696TIP3    H132033   8.195   4.493   4.946
10696TIP3    H232034   8.067   4.556   4.997
10697TIP3   OH232035   3.066   2.184   2.896
10697TIP3    H132036   3.153   2.174   2.856
10697TIP3    H232037   3.082   2.236   2.975
10698TIP3   OH232038   7.828   7.720   2.916
10698TIP3    H132039   7.872   7.805   2.903
10698TIP3    H232040   7.817   7.713   3.011
10699TIP3   OH232041   5.458   6.093   1.985
10699TIP3    H132042   5.453   6.122   2.076
10699TIP3    H232043   5.383   6.135   1.942
10700TIP3   OH232044   1.809   5.236   1.577
10700TIP3    H132045   1.899   5.230   1.545
10700TIP3    H232046   1.759   5.267   1.502
10701TIP3   OH232047   4.564   1.561   5.509
10701TIP3    H132048   4.520   1.564   5.424
10701TIP3    H232049   4.657   1.559   5.487
10702TIP3   OH232050   5.609   2.787   5.019
10702TIP3    H132051   5.617   2.733   5.097
10702TIP3    H232052   5.558   2.863   5.047
10703TIP3   OH232053   0.670   7.374   1.627
10703TIP3    H132054   0.702   7.379   1.537
10703TIP3    H232055   0.688   7.283   1.653
10704TIP3   OH232056   6.721   1.638   1.759
10704TIP3    H132057   6.628   1.625   1.775
10704TIP3    H232058   6.736   1.731   1.775
10705TIP3   OH232059   2.476   1.430   4.521
10705TIP3    H132060   2.491   1.347   4.475
10705TIP3    H232061   2.532   1.493   4.476
10706TIP3   OH232062   4.328   2.160   3.802
10706TIP3    H132063   4.313   2.202   3.718
10706TIP3    H232064   4.248   2.177   3.852
10707TIP3   OH232065   5.693   4.440   2.709
10707TIP3    H132066   5.630   4.407   2.773
10707TIP3    H232067   5.704   4.367   2.647
10708TIP3   OH232068   8.054   2.141   4.237
10708TIP3    H132069   8.125   2.180   4.186
10708TIP3    H232070   8.062   2.182   4.324
10709TIP3   OH232071   4.637   6.961   2.219
10709TIP3    H132072   4.621   7.043   2.267
10709TIP3    H232073   4.577   6.965   2.145
10710TIP3   OH232074   7.393   6.171   1.024
10710TIP3    H132075   7.400   6.266   1.016
10710TIP3    H232076   7.483   6.139   1.020
10711TIP3   OH232077   5.128   5.136   6.219
10711TIP3    H132078   5.143   5.044   6.241
10711TIP3    H232079   5.036   5.140   6.194
10712TIP3   OH232080   3.737   7.501   0.277
10712TIP3    H132081   3.814   7.471   0.229
10712TIP3    H232082   3.686   7.550   0.212
10713TIP3   OH232083   3.959   5.565   3.635
10713TIP3    H132084   3.952   5.565   3.539
10713TIP3    H232085   3.982   5.655   3.657
10714TIP3   OH232086   6.778   6.228   2.274
10714TIP3    H132087   6.787   6.134   2.288
10714TIP3    H232088   6.736   6.236   2.188
10715TIP3   OH232089   0.688   5.224   3.065
10715TIP3    H132090   0.710   5.220   2.972
10715TIP3    H232091   0.679   5.317   3.083
10716TIP3   OH232092   4.682   4.430   5.023
10716TIP3    H132093   4.712   4.428   5.114
10716TIP3    H232094   4.690   4.523   4.998
10717TIP3   OH232095   7.180   6.149   5.530
10717TIP3    H132096   7.257   6.182   5.485
10717TIP3    H232097   7.110   6.154   5.466
10718TIP3   OH232098   3.900   1.831   3.245
10718TIP3    H132099   3.814   1.865   3.220
10718TIP3    H232100   3.916   1.869   3.332
10719TIP3   OH232101   6.999   4.151   4.903
10719TIP3    H132102   6.920   4.182   4.947
10719TIP3    H232103   7.001   4.057   4.922
10720TIP3   OH232104   4.921   5.856   2.362
10720TIP3    H132105   5.004   5.858   2.410
10720TIP3    H232106   4.856   5.828   2.427
10721TIP3   OH232107   3.620   6.480   4.280
10721TIP3    H132108   3.660   6.558   4.318
10721TIP3    H232109   3.590   6.429   4.356
10722TIP3   OH232110   5.858   5.970   1.473
10722TIP3    H132111   5.889   5.976   1.563
10722TIP3    H232112   5.813   6.053   1.457
10723TIP3   OH232113   0.625   1.299   0.708
10723TIP3    H132114   0.579   1.379   0.733
10723TIP3    H232115   0.568   1.258   0.643
10724TIP3   OH232116   7.046   6.868   2.173
10724TIP3    H132117   7.109   6.919   2.224
10724TIP3    H232118   7.011   6.804   2.235
10725TIP3   OH232119   1.355   0.923   4.242
10725TIP3    H132120   1.373   0.841   4.289
10725TIP3    H232121   1.294   0.897   4.172
10726TIP3   OH232122   3.975   7.161   1.706
10726TIP3    H132123   4.020   7.173   1.789
10726TIP3    H232124   4.032   7.203   1.641
10727TIP3   OH232125   0.805   1.240   4.348
10727TIP3    H132126   0.816   1.293   4.269
10727TIP3    H232127   0.794   1.151   4.315
10728TIP3   OH232128   3.746   0.046   3.023
10728TIP3    H132129   3.814   0.106   2.992
10728TIP3    H232130   3.708   0.009   2.944
10729TIP3   OH232131   3.660   0.302   2.769
10729TIP3    H132132   3.653   0.392   2.799
10729TIP3    H232133   3.753   0.290   2.750
10730TIP3   OH232134   3.099   3.205   5.905
10730TIP3    H132135   3.116   3.294   5.872
10730TIP3    H232136   3.157   3.150   5.853
10731TIP3   OH232137   4.236   4.779   3.758
10731TIP3    H132138   4.283   4.760   3.676
10731TIP3    H232139   4.158   4.723   3.754
10732TIP3   OH232140   1.354   0.516   2.674
10732TIP3    H132141   1.324   0.437   2.629
10732TIP3    H232142   1.408   0.562   2.609
10733TIP3   OH232143   2.746   0.535   5.271
10733TIP3    H132144   2.653   0.535   5.296
10733TIP3    H232145   2.756   0.613   5.217
10734TIP3   OH232146   0.397   0.071   3.277
10734TIP3    H132147   0.432   0.060   3.366
10734TIP3    H232148   0.440   0.002   3.226
10735TIP3   OH232149   4.508   6.726   1.942
10735TIP3    H132150   4.473   6.716   1.853
10735TIP3    H232151   4.603   6.717   1.932
10736TIP3   OH232152   2.577   5.757   2.666
10736TIP3    H132153   2.610   5.821   2.603
10736TIP3    H232154   2.632   5.769   2.743
10737TIP3   OH232155   4.954   3.515   5.107
10737TIP3    H132156   5.040   3.528   5.067
10737TIP3    H232157   4.963   3.555   5.194
10738TIP3   OH232158   6.194   4.386   2.855
10738TIP3    H132159   6.195   4.428   2.769
10738TIP3    H232160   6.228   4.452   2.914
10739TIP3   OH232161   8.143   6.481   1.027
10739TIP3    H132162   8.193   6.539   0.969
10739TIP3    H232163   8.052   6.492   0.998
10740TIP3   OH232164   6.001   5.374   0.629
10740TIP3    H132165   5.967   5.310   0.692
10740TIP3    H232166   6.089   5.394   0.662
10741TIP3   OH232167   3.086   2.575   3.706
10741TIP3    H132168   3.102   2.512   3.635
10741TIP3    H232169   3.144   2.547   3.776
10742TIP3   OH232170   0.786   3.715   5.644
10742TIP3    H132171   0.722   3.719   5.573
10742TIP3    H232172   0.801   3.622   5.658
10743TIP3   OH232173   1.034   0.663   1.108
10743TIP3    H132174   1.097   0.713   1.056
10743TIP3    H232175   0.977   0.621   1.044
10744TIP3   OH232176   1.750   3.987   4.697
10744TIP3    H132177   1.768   3.987   4.791
10744TIP3    H232178   1.655   3.979   4.691
10745TIP3   OH232179   6.357   7.260   0.885
10745TIP3    H132180   6.330   7.251   0.976
10745TIP3    H232181   6.348   7.353   0.866
10746TIP3   OH232182   6.549   1.801   1.109
10746TIP3    H132183   6.618   1.754   1.156
10746TIP3    H232184   6.490   1.732   1.078
10747TIP3   OH232185   5.667   6.680   3.875
10747TIP3    H132186   5.697   6.741   3.808
10747TIP3    H232187   5.726   6.605   3.868
10748TIP3   OH232188   6.071   3.287   4.116
10748TIP3    H132189   6.140   3.330   4.065
10748TIP3    H232190   6.118   3.231   4.177
10749TIP3   OH232191   5.533   2.751   4.133
10749TIP3    H132192   5.552   2.754   4.039
10749TIP3    H232193   5.543   2.842   4.162
10750TIP3   OH232194   8.276   5.965   3.202
10750TIP3    H132195   8.240   6.006   3.281
10750TIP3    H232196   8.303   6.039   3.147
10751TIP3   OH232197   2.421   3.436   2.173
10751TIP3    H132198   2.455   3.502   2.233
10751TIP3    H232199   2.326   3.450   2.174
10752TIP3   OH232200   5.327   4.658   0.564
10752TIP3    H132201   5.375   4.580   0.537
10752TIP3    H232202   5.394   4.725   0.576
10753TIP3   OH232203   7.326   3.233   4.292
10753TIP3    H132204   7.408   3.264   4.331
10753TIP3    H232205   7.270   3.311   4.291
10754TIP3   OH232206   3.205   5.877   6.567
10754TIP3    H132207   3.262   5.820   6.618
10754TIP3    H232208   3.183   5.826   6.489
10755TIP3   OH232209   3.353   6.114   5.654
10755TIP3    H132210   3.408   6.068   5.717
10755TIP3    H232211   3.414   6.171   5.607
10756TIP3   OH232212   5.305   4.351   2.458
10756TIP3    H132213   5.326   4.408   2.384
10756TIP3    H232214   5.219   4.315   2.438
10757TIP3   OH232215   7.082   4.025   2.172
10757TIP3    H132216   7.124   4.110   2.181
10757TIP3    H232217   7.058   4.019   2.079
10758TIP3   OH232218   3.759   7.223   2.031
10758TIP3    H132219   3.776   7.146   1.976
10758TIP3    H232220   3.666   7.240   2.021
10759TIP3   OH232221   0.522   2.616   6.320
10759TIP3    H132222   0.562   2.531   6.304
10759TIP3    H232223   0.545   2.638   6.410
10760TIP3   OH232224   4.848   7.553   1.284
10760TIP3    H132225   4.815   7.617   1.347
10760TIP3    H232226   4.837   7.595   1.199
10761TIP3   OH232227   2.327   4.319   6.537
10761TIP3    H132228   2.250   4.305   6.591
10761TIP3    H232229   2.399   4.326   6.600
10762TIP3   OH232230   1.815   1.503   0.714
10762TIP3    H132231   1.900   1.505   0.670
10762TIP3    H232232   1.797   1.595   0.735
10763TIP3   OH232233   1.640   7.060   6.660
10763TIP3    H132234   1.607   7.118   6.730
10763TIP3    H232235   1.641   7.115   6.582
10764TIP3   OH232236   3.853   7.586   3.628
10764TIP3    H132237   3.939   7.573   3.590
10764TIP3    H232238   3.835   7.505   3.676
10765TIP3   OH232239   4.834   6.851   6.112
10765TIP3    H132240   4.902   6.902   6.156
10765TIP3    H232241   4.836   6.881   6.022
10766TIP3   OH232242   1.043   6.954   5.778
10766TIP3    H132243   0.969   6.897   5.757
10766TIP3    H232244   1.002   7.035   5.809
10767TIP3   OH232245   5.701   6.413   3.499
10767TIP3    H132246   5.786   6.377   3.473
10767TIP3    H232247   5.701   6.410   3.595
10768TIP3   OH232248   5.628   3.502   5.557
10768TIP3    H132249   5.621   3.407   5.570
10768TIP3    H232250   5.652   3.535   5.644
10769TIP3   OH232251   1.850   2.494   3.963
10769TIP3    H132252   1.794   2.565   3.931
10769TIP3    H232253   1.938   2.531   3.960
10770TIP3   OH232254   3.719   7.045   1.328
10770TIP3    H132255   3.758   6.967   1.288
10770TIP3    H232256   3.729   7.031   1.423
10771TIP3   OH232257   5.533   1.171   0.997
10771TIP3    H132258   5.491   1.107   0.939
10771TIP3    H232259   5.566   1.239   0.938
10772TIP3   OH232260   2.246   5.840   4.199
10772TIP3    H132261   2.276   5.913   4.144
10772TIP3    H232262   2.326   5.811   4.244
10773TIP3   OH232263   3.822   2.138   1.690
10773TIP3    H132264   3.837   2.047   1.662
10773TIP3    H232265   3.758   2.131   1.760
10774TIP3   OH232266   5.717   4.791   0.464
10774TIP3    H132267   5.682   4.763   0.379
10774TIP3    H232268   5.640   4.797   0.521
10775TIP3   OH232269   6.116   0.099   1.031
10775TIP3    H132270   6.138   0.017   1.076
10775TIP3    H232271   6.037   0.130   1.075
10776TIP3   OH232272   0.730   7.424   1.347
10776TIP3    H132273   0.754   7.341   1.306
10776TIP3    H232274   0.641   7.441   1.318
10777TIP3   OH232275   4.459   4.000   4.931
10777TIP3    H132276   4.425   4.089   4.929
10777TIP3    H232277   4.381   3.945   4.937
10778TIP3   OH232278   7.680   4.604   6.669
10778TIP3    H132279   7.751   4.541   6.684
10778TIP3    H232280   7.688   4.627   6.576
10779TIP3   OH232281   1.777   0.124   4.267
10779TIP3    H132282   1.752   0.036   4.296
10779TIP3    H232283   1.699   0.178   4.284
10780TIP3   OH232284   6.762   1.551   4.816
10780TIP3    H132285   6.758   1.457   4.831
10780TIP3    H232286   6.727   1.563   4.728
10781TIP3   OH232287   4.774   4.065   0.402
10781TIP3    H132288   4.709   4.052   0.333
10781TIP3    H232289   4.797   4.158   0.396
10782TIP3   OH232290   1.530   3.788   2.989
10782TIP3    H132291   1.502   3.861   3.045
10782TIP3    H232292   1.458   3.778   2.926
10783TIP3   OH232293   1.453   3.827   5.398
10783TIP3    H132294   1.542   3.860   5.390
10783TIP3    H232295   1.463   3.733   5.412
10784TIP3   OH232296   1.950   3.666   5.350
10784TIP3    H132297   1.927   3.734   5.288
10784TIP3    H232298   1.988   3.713   5.425
10785TIP3   OH232299   2.685   6.772   4.417
10785TIP3    H132300   2.681   6.747   4.509
10785TIP3    H232301   2.655   6.862   4.415
10786TIP3   OH232302   4.277   3.060   1.972
10786TIP3    H132303   4.211   3.129   1.981
10786TIP3    H232304   4.266   3.028   1.883
10787TIP3   OH232305   1.545   0.688   3.586
10787TIP3    H132306   1.508   0.775   3.604
10787TIP3    H232307   1.490   0.654   3.515
10788TIP3   OH232308   4.346   0.766   1.863
10788TIP3    H132309   4.336   0.797   1.774
10788TIP3    H232310   4.402   0.832   1.905
10789TIP3   OH232311   6.501   0.519   1.147
10789TIP3    H132312   6.452   0.523   1.230
10789TIP3    H232313   6.500   0.426   1.124
10790TIP3   OH232314   1.735   4.264   3.244
10790TIP3    H132315   1.819   4.232   3.277
10790TIP3    H232316   1.755   4.304   3.160
10791TIP3   OH232317   4.863   6.359   2.262
10791TIP3    H132318   4.845   6.282   2.316
10791TIP3    H232319   4.938   6.400   2.304
10792TIP3   OH232320   2.490   2.415   1.131
10792TIP3    H132321   2.416   2.366   1.165
10792TIP3    H232322   2.563   2.352   1.132
10793TIP3   OH232323   2.033   5.929   3.892
10793TIP3    H132324   2.028   5.908   3.798
10793TIP3    H232325   2.120   5.968   3.903
10794TIP3   OH232326   4.035   3.633   5.060
10794TIP3    H132327   4.025   3.708   5.002
10794TIP3    H232328   4.040   3.558   5.001
10795TIP3   OH232329   4.865   3.355   4.144
10795TIP3    H132330   4.898   3.408   4.216
10795TIP3    H232331   4.803   3.294   4.185
10796TIP3   OH232332   3.516   2.985   0.279
10796TIP3    H132333   3.468   2.971   0.198
10796TIP3    H232334   3.578   3.056   0.258
10797TIP3   OH232335   0.992   4.758   4.121
10797TIP3    H132336   0.988   4.732   4.029
10797TIP3    H232337   1.079   4.733   4.149
10798TIP3   OH232338   4.610   3.733   5.860
10798TIP3    H132339   4.547   3.752   5.930
10798TIP3    H232340   4.559   3.687   5.793
10799TIP3   OH232341   2.553   7.718   5.838
10799TIP3    H132342   2.470   7.732   5.793
10799TIP3    H232343   2.607   7.668   5.776
10800TIP3   OH232344   0.767   7.435   5.335
10800TIP3    H132345   0.785   7.347   5.370
10800TIP3    H232346   0.696   7.468   5.389
10801TIP3   OH232347   3.387   5.183   6.460
10801TIP3    H132348   3.360   5.105   6.411
10801TIP3    H232349   3.368   5.256   6.402
10802TIP3   OH232350   4.463   7.638   2.482
10802TIP3    H132351   4.430   7.661   2.569
10802TIP3    H232352   4.545   7.688   2.474
10803TIP3   OH232353   6.547   1.972   4.043
10803TIP3    H132354   6.563   2.047   3.985
10803TIP3    H232355   6.528   2.012   4.128
10804TIP3   OH232356   7.464   3.220   5.060
10804TIP3    H132357   7.423   3.141   5.093
10804TIP3    H232358   7.530   3.243   5.125
10805TIP3   OH232359   5.904   0.055   0.226
10805TIP3    H132360   5.861   0.011   0.299
10805TIP3    H232361   5.834   0.067   0.161
10806TIP3   OH232362   4.307   0.445   5.297
10806TIP3    H132363   4.242   0.427   5.229
10806TIP3    H232364   4.302   0.540   5.310
10807TIP3   OH232365   5.157   0.573   4.112
10807TIP3    H132366   5.244   0.609   4.092
10807TIP3    H232367   5.112   0.644   4.158
10808TIP3   OH232368   7.491   1.356   2.294
10808TIP3    H132369   7.409   1.341   2.246
10808TIP3    H232370   7.559   1.348   2.228
10809TIP3   OH232371   7.557   5.074   4.351
10809TIP3    H132372   7.633   5.052   4.405
10809TIP3    H232373   7.510   4.991   4.341
10810TIP3   OH232374   5.155   6.162   3.221
10810TIP3    H132375   5.167   6.245   3.175
10810TIP3    H232376   5.203   6.173   3.303
10811TIP3   OH232377   1.557   7.040   2.170
10811TIP3    H132378   1.471   7.081   2.156
10811TIP3    H232379   1.580   7.063   2.260
10812TIP3   OH232380   5.327   2.673   1.448
10812TIP3    H132381   5.278   2.751   1.424
10812TIP3    H232382   5.407   2.707   1.490
10813TIP3   OH232383   1.007   6.069   3.313
10813TIP3    H132384   1.057   6.103   3.239
10813TIP3    H232385   1.065   6.079   3.389
10814TIP3   OH232386   2.237   1.526   3.986
10814TIP3    H132387   2.198   1.446   3.951
10814TIP3    H232388   2.312   1.495   4.037
10815TIP3   OH232389   1.026   0.197   5.865
10815TIP3    H132390   1.023   0.101   5.864
10815TIP3    H232391   0.935   0.223   5.880
10816TIP3   OH232392   7.414   2.846   1.321
10816TIP3    H132393   7.451   2.830   1.408
10816TIP3    H232394   7.473   2.911   1.282
10817TIP3   OH232395   3.122   1.602   3.824
10817TIP3    H132396   3.166   1.686   3.838
10817TIP3    H232397   3.151   1.548   3.897
10818TIP3   OH232398   4.498   2.171   0.077
10818TIP3    H132399   4.561   2.229   0.120
10818TIP3    H232400   4.414   2.215   0.088
10819TIP3   OH232401   5.608   0.261   1.133
10819TIP3    H132402   5.521   0.282   1.100
10819TIP3    H232403   5.637   0.341   1.178
10820TIP3   OH232404   1.827   3.939   6.043
10820TIP3    H132405   1.922   3.945   6.035
10820TIP3    H232406   1.794   3.987   5.967
10821TIP3   OH232407   5.557   7.198   1.688
10821TIP3    H132408   5.520   7.110   1.694
10821TIP3    H232409   5.522   7.234   1.606
10822TIP3   OH232410   7.157   7.411   6.716
10822TIP3    H132411   7.249   7.439   6.715
10822TIP3    H232412   7.159   7.323   6.677
10823TIP3   OH232413   7.592   5.521   6.331
10823TIP3    H132414   7.499   5.543   6.321
10823TIP3    H232415   7.622   5.501   6.243
10824TIP3   OH232416   6.201   1.805   2.831
10824TIP3    H132417   6.107   1.792   2.843
10824TIP3    H232418   6.212   1.811   2.736
10825TIP3   OH232419   7.462   5.618   1.406
10825TIP3    H132420   7.475   5.591   1.497
10825TIP3    H232421   7.520   5.693   1.395
10826TIP3   OH232422   0.756   3.232   5.455
10826TIP3    H132423   0.819   3.160   5.459
10826TIP3    H232424   0.758   3.261   5.364
10827TIP3   OH232425   7.234   7.494   1.366
10827TIP3    H132426   7.214   7.556   1.297
10827TIP3    H232427   7.153   7.484   1.415
10828TIP3   OH232428   7.629   0.908   5.747
10828TIP3    H132429   7.606   0.832   5.693
10828TIP3    H232430   7.564   0.907   5.817
10829TIP3   OH232431   7.062   6.411   2.192
10829TIP3    H132432   7.012   6.415   2.111
10829TIP3    H232433   6.996   6.411   2.261
10830TIP3   OH232434   4.948   1.305   0.908
10830TIP3    H132435   5.000   1.328   0.832
10830TIP3    H232436   4.859   1.334   0.886
10831TIP3   OH232437   1.434   0.635   6.080
10831TIP3    H132438   1.369   0.697   6.046
10831TIP3    H232439   1.383   0.558   6.103
10832TIP3   OH232440   2.943   6.375   0.692
10832TIP3    H132441   2.850   6.354   0.690
10832TIP3    H232442   2.951   6.454   0.640
10833TIP3   OH232443   5.892   7.659   3.608
10833TIP3    H132444   5.880   7.728   3.673
10833TIP3    H232445   5.819   7.670   3.548
10834TIP3   OH232446   7.183   2.047   5.143
10834TIP3    H132447   7.150   1.958   5.133
10834TIP3    H232448   7.213   2.051   5.233
10835TIP3   OH232449   4.714   7.076   5.157
10835TIP3    H132450   4.736   7.085   5.250
10835TIP3    H232451   4.749   6.991   5.133
10836TIP3   OH232452   2.977   6.007   2.569
10836TIP3    H132453   3.039   5.941   2.538
10836TIP3    H232454   3.027   6.061   2.630
10837TIP3   OH232455   4.984   5.454   1.546
10837TIP3    H132456   5.030   5.383   1.590
10837TIP3    H232457   5.053   5.508   1.508
10838TIP3   OH232458   6.238   2.012   0.781
10838TIP3    H132459   6.260   1.965   0.861
10838TIP3    H232460   6.149   1.985   0.760
10839TIP3   OH232461   6.523   1.212   1.342
10839TIP3    H132462   6.515   1.118   1.323
10839TIP3    H232463   6.598   1.217   1.402
10840TIP3   OH232464   3.096   2.435   0.420
10840TIP3    H132465   3.161   2.494   0.458
10840TIP3    H232466   3.136   2.407   0.337
10841TIP3   OH232467   4.294   3.289   3.607
10841TIP3    H132468   4.261   3.282   3.697
10841TIP3    H232469   4.332   3.203   3.589
10842TIP3   OH232470   4.324   6.122   2.654
10842TIP3    H132471   4.324   6.150   2.746
10842TIP3    H232472   4.285   6.195   2.607
10843TIP3   OH232473   5.864   7.501   3.959
10843TIP3    H132474   5.950   7.540   3.973
10843TIP3    H232475   5.802   7.569   3.984
10844TIP3   OH232476   5.627   1.313   6.670
10844TIP3    H132477   5.632   1.218   6.674
10844TIP3    H232478   5.545   1.331   6.623
10845TIP3   OH232479   0.856   2.889   1.076
10845TIP3    H132480   0.932   2.904   1.132
10845TIP3    H232481   0.783   2.876   1.137
10846TIP3   OH232482   8.284   7.186   1.822
10846TIP3    H132483   8.191   7.209   1.821
10846TIP3    H232484   8.323   7.244   1.887
10847TIP3   OH232485   3.772   3.013   4.606
10847TIP3    H132486   3.747   3.097   4.644
10847TIP3    H232487   3.776   2.953   4.680
10848TIP3   OH232488   0.072   1.831   0.828
10848TIP3    H132489   0.128   1.897   0.868
10848TIP3    H232490   0.043   1.777   0.902
10849TIP3   OH232491   7.504   6.077   3.993
10849TIP3    H132492   7.492   6.055   4.085
10849TIP3    H232493   7.551   6.002   3.956
10850TIP3   OH232494   4.737   2.591   5.514
10850TIP3    H132495   4.677   2.552   5.577
10850TIP3    H232496   4.721   2.542   5.433
10851TIP3   OH232497   0.304   0.555   4.411
10851TIP3    H132498   0.344   0.482   4.364
10851TIP3    H232499   0.316   0.630   4.353
10852TIP3   OH232500   2.794   5.179   1.794
10852TIP3    H132501   2.769   5.265   1.760
10852TIP3    H232502   2.727   5.160   1.860
10853TIP3   OH232503   2.784   7.252   5.187
10853TIP3    H132504   2.768   7.279   5.096
10853TIP3    H232505   2.873   7.219   5.187
10854TIP3   OH232506   2.545   5.449   4.612
10854TIP3    H132507   2.561   5.364   4.654
10854TIP3    H232508   2.611   5.454   4.543
10855TIP3   OH232509   0.147   2.651   6.710
10855TIP3    H132510   0.224   2.596   6.696
10855TIP3    H232511   0.154   2.720   6.644
10856TIP3   OH232512   6.178   1.723   3.378
10856TIP3    H132513   6.107   1.785   3.365
10856TIP3    H232514   6.201   1.732   3.471
10857TIP3   OH232515   7.210   3.043   2.997
10857TIP3    H132516   7.275   3.113   3.002
10857TIP3    H232517   7.127   3.088   2.988
10858TIP3   OH232518   0.964   7.214   5.457
10858TIP3    H132519   0.973   7.281   5.525
10858TIP3    H232520   0.879   7.173   5.475
10859TIP3   OH232521   2.307   2.920   2.274
10859TIP3    H132522   2.281   2.905   2.183
10859TIP3    H232523   2.245   2.985   2.307
10860TIP3   OH232524   3.397   2.073   4.200
10860TIP3    H132525   3.302   2.073   4.208
10860TIP3    H232526   3.424   1.984   4.224
10861TIP3   OH232527   4.018   3.462   5.956
10861TIP3    H132528   3.944   3.463   6.017
10861TIP3    H232529   4.015   3.375   5.917
10862TIP3   OH232530   7.147   2.264   0.970
10862TIP3    H132531   7.120   2.241   0.881
10862TIP3    H232532   7.078   2.321   1.002
10863TIP3   OH232533   5.772   2.767   0.996
10863TIP3    H132534   5.850   2.720   1.027
10863TIP3    H232535   5.738   2.712   0.926
10864TIP3   OH232536   1.724   3.239   0.199
10864TIP3    H132537   1.656   3.202   0.256
10864TIP3    H232538   1.694   3.221   0.110
10865TIP3   OH232539   6.599   6.292   6.193
10865TIP3    H132540   6.620   6.200   6.213
10865TIP3    H232541   6.641   6.341   6.263
10866TIP3   OH232542   8.035   3.710   5.623
10866TIP3    H132543   8.057   3.617   5.614
10866TIP3    H232544   8.002   3.718   5.713
10867TIP3   OH232545   4.087   2.829   5.081
10867TIP3    H132546   4.062   2.748   5.037
10867TIP3    H232547   4.034   2.831   5.161
10868TIP3   OH232548   5.756   3.461   6.500
10868TIP3    H132549   5.761   3.553   6.526
10868TIP3    H232550   5.716   3.417   6.575
10869TIP3   OH232551   8.210   7.199   5.039
10869TIP3    H132552   8.252   7.162   4.961
10869TIP3    H232553   8.179   7.285   5.011
10870TIP3   OH232554   8.179   0.841   5.175
10870TIP3    H132555   8.141   0.915   5.223
10870TIP3    H232556   8.116   0.822   5.105
10871TIP3   OH232557   2.125   3.502   2.080
10871TIP3    H132558   2.147   3.542   2.164
10871TIP3    H232559   2.042   3.457   2.096
10872TIP3   OH232560   0.136   0.886   3.605
10872TIP3    H132561   0.145   0.981   3.602
10872TIP3    H232562   0.222   0.855   3.634
10873TIP3   OH232563   5.038   5.203   4.394
10873TIP3    H132564   5.049   5.121   4.441
10873TIP3    H232565   5.052   5.180   4.302
10874TIP3   OH232566   7.609   1.180   6.366
10874TIP3    H132567   7.556   1.159   6.289
10874TIP3    H232568   7.640   1.269   6.351
10875TIP3   OH232569   3.308   3.649   3.217
10875TIP3    H132570   3.306   3.560   3.254
10875TIP3    H232571   3.245   3.698   3.270
10876TIP3   OH232572   0.658   0.017   0.166
10876TIP3    H132573   0.749  -0.013   0.154
10876TIP3    H232574   0.663   0.112   0.157
10877TIP3   OH232575   3.162   3.783   1.700
10877TIP3    H132576   3.100   3.811   1.633
10877TIP3    H232577   3.236   3.746   1.651
10878TIP3   OH232578   5.250   2.842   2.853
10878TIP3    H132579   5.195   2.872   2.781
10878TIP3    H232580   5.244   2.911   2.919
10879TIP3   OH232581   3.679   2.362   5.203
10879TIP3    H132582   3.723   2.327   5.126
10879TIP3    H232583   3.586   2.342   5.189
10880TIP3   OH232584   7.040   4.860   4.899
10880TIP3    H132585   6.948   4.887   4.902
10880TIP3    H232586   7.038   4.775   4.854
10881TIP3   OH232587   4.276   0.405   4.787
10881TIP3    H132588   4.272   0.499   4.807
10881TIP3    H232589   4.186   0.382   4.765
10882TIP3   OH232590   3.138   5.731   2.729
10882TIP3    H132591   3.196   5.760   2.800
10882TIP3    H232592   3.171   5.644   2.706
10883TIP3   OH232593   8.215   5.009   5.135
10883TIP3    H132594   8.176   4.994   5.049
10883TIP3    H232595   8.220   4.921   5.174
10884TIP3   OH232596   7.479   5.873   0.126
10884TIP3    H132597   7.467   5.850   0.218
10884TIP3    H232598   7.416   5.818   0.079
10885TIP3   OH232599   5.078   4.916   4.901
10885TIP3    H132600   5.068   4.905   4.996
10885TIP3    H232601   5.114   4.833   4.870
10886TIP3   OH232602   5.058   6.701   5.920
10886TIP3    H132603   4.979   6.744   5.887
10886TIP3    H232604   5.129   6.741   5.870
10887TIP3   OH232605   4.620   0.221   4.511
10887TIP3    H132606   4.604   0.258   4.597
10887TIP3    H232607   4.647   0.130   4.529
10888TIP3   OH232608   3.455   1.099   3.276
10888TIP3    H132609   3.544   1.092   3.242
10888TIP3    H232610   3.404   1.134   3.203
10889TIP3   OH232611   7.720   1.711   0.766
10889TIP3    H132612   7.677   1.737   0.685
10889TIP3    H232613   7.673   1.633   0.794
10890TIP3   OH232614   1.167   3.109   1.931
10890TIP3    H132615   1.198   3.199   1.934
10890TIP3    H232616   1.125   3.094   2.015
10891TIP3   OH232617   5.625   0.646   2.549
10891TIP3    H132618   5.655   0.683   2.632
10891TIP3    H232619   5.554   0.704   2.521
10892TIP3   OH232620   1.467   4.678   3.626
10892TIP3    H132621   1.454   4.733   3.703
10892TIP3    H232622   1.404   4.710   3.562
10893TIP3   OH232623   1.690   4.982   3.762
10893TIP3    H132624   1.622   4.933   3.808
10893TIP3    H232625   1.742   5.021   3.833
10894TIP3   OH232626   2.118   0.353   3.955
10894TIP3    H132627   2.060   0.373   4.028
10894TIP3    H232628   2.078   0.277   3.913
10895TIP3   OH232629   3.385   3.389   5.223
10895TIP3    H132630   3.474   3.389   5.257
10895TIP3    H232631   3.394   3.417   5.131
10896TIP3   OH232632   5.321   2.924   6.114
10896TIP3    H132633   5.345   3.006   6.072
10896TIP3    H232634   5.309   2.947   6.206
10897TIP3   OH232635   2.619   7.444   1.042
10897TIP3    H132636   2.524   7.433   1.051
10897TIP3    H232637   2.635   7.537   1.057
10898TIP3   OH232638   0.064   4.333   3.149
10898TIP3    H132639  -0.014   4.278   3.143
10898TIP3    H232640   0.093   4.324   3.240
10899TIP3   OH232641   7.942   3.571   0.161
10899TIP3    H132642   7.935   3.638   0.093
10899TIP3    H232643   8.033   3.540   0.155
10900TIP3   OH232644   6.488   3.284   1.473
10900TIP3    H132645   6.440   3.357   1.435
10900TIP3    H232646   6.578   3.317   1.483
10901TIP3   OH232647   1.506   0.592   2.463
10901TIP3    H132648   1.479   0.645   2.388
10901TIP3    H232649   1.597   0.570   2.445
10902TIP3   OH232650   6.674   5.259   0.477
10902TIP3    H132651   6.686   5.287   0.386
10902TIP3    H232652   6.644   5.169   0.471
10903TIP3   OH232653   4.077   2.795   3.909
10903TIP3    H132654   4.015   2.786   3.836
10903TIP3    H232655   4.038   2.745   3.980
10904TIP3   OH232656   5.700   2.866   1.252
10904TIP3    H132657   5.729   2.823   1.172
10904TIP3    H232658   5.620   2.911   1.228
10905TIP3   OH232659   0.196   3.576   4.152
10905TIP3    H132660   0.275   3.577   4.207
10905TIP3    H232661   0.204   3.653   4.096
10906TIP3   OH232662   7.809   1.897   5.660
10906TIP3    H132663   7.787   1.804   5.669
10906TIP3    H232664   7.756   1.927   5.586
10907TIP3   OH232665   4.729   5.268   2.029
10907TIP3    H132666   4.822   5.269   2.007
10907TIP3    H232667   4.721   5.200   2.097
10908TIP3   OH232668   7.659   1.739   1.425
10908TIP3    H132669   7.633   1.703   1.340
10908TIP3    H232670   7.630   1.830   1.423
10909TIP3   OH232671   6.183   7.046   2.804
10909TIP3    H132672   6.142   7.037   2.890
10909TIP3    H232673   6.239   7.123   2.812
10910TIP3   OH232674   7.591   2.989   6.122
10910TIP3    H132675   7.530   3.018   6.054
10910TIP3    H232676   7.671   2.968   6.074
10911TIP3   OH232677   1.944   7.648   0.567
10911TIP3    H132678   1.971   7.619   0.655
10911TIP3    H232679   1.954   7.570   0.513
10912TIP3   OH232680   7.782   6.940   5.204
10912TIP3    H132681   7.853   6.909   5.259
10912TIP3    H232682   7.810   7.027   5.176
10913TIP3   OH232683   7.793   2.981   5.915
10913TIP3    H132684   7.876   3.028   5.911
10913TIP3    H232685   7.771   2.963   5.823
10914TIP3   OH232686   3.631   0.927   3.652
10914TIP3    H132687   3.666   1.016   3.647
10914TIP3    H232688   3.649   0.900   3.743
10915TIP3   OH232689   0.576   4.849   3.347
10915TIP3    H132690   0.628   4.861   3.427
10915TIP3    H232691   0.625   4.784   3.297
10916TIP3   OH232692   4.304   2.758   4.232
10916TIP3    H132693   4.323   2.672   4.269
10916TIP3    H232694   4.251   2.739   4.154
10917TIP3   OH232695   6.419   1.262   0.242
10917TIP3    H132696   6.492   1.231   0.296
10917TIP3    H232697   6.366   1.314   0.302
10918TIP3   OH232698   5.112   7.154   3.924
10918TIP3    H132699   5.041   7.144   3.988
10918TIP3    H232700   5.164   7.074   3.934
10919TIP3   OH232701   0.375   0.564   1.440
10919TIP3    H132702   0.405   0.484   1.396
10919TIP3    H232703   0.426   0.634   1.400
10920TIP3   OH232704   2.646   4.023   4.161
10920TIP3    H132705   2.586   4.047   4.091
10920TIP3    H232706   2.634   3.929   4.173
10921TIP3   OH232707   7.739   0.635   2.309
10921TIP3    H132708   7.676   0.657   2.378
10921TIP3    H232709   7.820   0.617   2.356
10922TIP3   OH232710   4.484   0.251   1.138
10922TIP3    H132711   4.576   0.268   1.119
10922TIP3    H232712   4.445   0.234   1.052
10923TIP3   OH232713   4.914   1.653   1.264
10923TIP3    H132714   4.833   1.617   1.226
10923TIP3    H232715   4.891   1.671   1.355
10924TIP3   OH232716   2.929   2.369   0.635
10924TIP3    H132717   2.933   2.449   0.687
10924TIP3    H232718   2.980   2.388   0.557
10925TIP3   OH232719   0.580   6.839   4.070
10925TIP3    H132720   0.553   6.918   4.116
10925TIP3    H232721   0.606   6.778   4.139
10926TIP3   OH232722   0.694   0.345   1.299
10926TIP3    H132723   0.758   0.416   1.296
10926TIP3    H232724   0.737   0.273   1.253
10927TIP3   OH232725   4.592   3.591   0.649
10927TIP3    H132726   4.556   3.641   0.722
10927TIP3    H232727   4.562   3.638   0.571
10928TIP3   OH232728   7.440   5.289   5.210
10928TIP3    H132729   7.495   5.349   5.161
10928TIP3    H232730   7.502   5.236   5.260
10929TIP3   OH232731   4.061   4.261   0.577
10929TIP3    H132732   4.095   4.172   0.578
10929TIP3    H232733   3.991   4.260   0.512
10930TIP3   OH232734   5.443   1.264   3.925
10930TIP3    H132735   5.369   1.205   3.915
10930TIP3    H232736   5.520   1.207   3.923
10931TIP3   OH232737   3.961   3.358   3.814
10931TIP3    H132738   3.981   3.284   3.757
10931TIP3    H232739   3.966   3.322   3.903
10932TIP3   OH232740   7.087   7.812   6.639
10932TIP3    H132741   7.066   7.749   6.708
10932TIP3    H232742   7.002   7.841   6.606
10933TIP3   OH232743   6.449   3.603   4.538
10933TIP3    H132744   6.461   3.568   4.450
10933TIP3    H232745   6.391   3.540   4.582
10934TIP3   OH232746   2.523   4.860   0.750
10934TIP3    H132747   2.584   4.899   0.812
10934TIP3    H232748   2.462   4.930   0.728
10935TIP3   OH232749   5.115   0.156   2.046
10935TIP3    H132750   5.084   0.071   2.013
10935TIP3    H232751   5.210   0.153   2.031
10936TIP3   OH232752   1.811   0.220   0.653
10936TIP3    H132753   1.859   0.290   0.610
10936TIP3    H232754   1.782   0.163   0.582
10937TIP3   OH232755   3.347   1.097   0.743
10937TIP3    H132756   3.264   1.117   0.699
10937TIP3    H232757   3.394   1.041   0.681
10938TIP3   OH232758   5.639   4.472   2.091
10938TIP3    H132759   5.659   4.557   2.130
10938TIP3    H232760   5.557   4.446   2.132
10939TIP3   OH232761   5.422   4.056   0.566
10939TIP3    H132762   5.434   4.110   0.488
10939TIP3    H232763   5.414   3.967   0.533
10940TIP3   OH232764   7.153   3.879   0.263
10940TIP3    H132765   7.237   3.834   0.264
10940TIP3    H232766   7.148   3.925   0.346
10941TIP3   OH232767   2.083   6.614   1.759
10941TIP3    H132768   2.051   6.699   1.731
10941TIP3    H232769   2.103   6.568   1.678
10942TIP3   OH232770   2.800   5.114   3.473
10942TIP3    H132771   2.881   5.076   3.439
10942TIP3    H232772   2.824   5.203   3.497
10943TIP3   OH232773   6.378   0.799   3.662
10943TIP3    H132774   6.287   0.788   3.633
10943TIP3    H232775   6.370   0.852   3.742
10944TIP3   OH232776   2.930   1.596   5.330
10944TIP3    H132777   3.023   1.619   5.341
10944TIP3    H232778   2.922   1.569   5.239
10945TIP3   OH232779   4.187   6.128   5.442
10945TIP3    H132780   4.263   6.138   5.499
10945TIP3    H232781   4.180   6.034   5.427
10946TIP3   OH232782   6.353   4.107   3.941
10946TIP3    H132783   6.375   4.094   3.849
10946TIP3    H232784   6.342   4.202   3.950
10947TIP3   OH232785   5.781   1.034   6.005
10947TIP3    H132786   5.813   1.104   5.949
10947TIP3    H232787   5.690   1.057   6.023
10948TIP3   OH232788   4.138   2.470   2.391
10948TIP3    H132789   4.069   2.515   2.341
10948TIP3    H232790   4.186   2.539   2.434
10949TIP3   OH232791   1.149   0.322   6.665
10949TIP3    H132792   1.091   0.350   6.594
10949TIP3    H232793   1.102   0.343   6.745
10950TIP3   OH232794   4.092   1.435   4.662
10950TIP3    H132795   4.029   1.411   4.594
10950TIP3    H232796   4.102   1.529   4.653
10951TIP3   OH232797   6.872   1.333   3.663
10951TIP3    H132798   6.824   1.308   3.741
10951TIP3    H232799   6.935   1.398   3.694
10952TIP3   OH232800   1.243   2.037   3.947
10952TIP3    H132801   1.184   1.965   3.923
10952TIP3    H232802   1.261   2.024   4.040
10953TIP3   OH232803   7.310   5.986   6.600
10953TIP3    H132804   7.278   6.031   6.678
10953TIP3    H232805   7.387   5.937   6.631
10954TIP3   OH232806   5.489   4.218   5.930
10954TIP3    H132807   5.492   4.314   5.922
10954TIP3    H232808   5.404   4.200   5.972
10955TIP3   OH232809   4.932   7.635   3.099
10955TIP3    H132810   4.975   7.708   3.054
10955TIP3    H232811   5.004   7.577   3.125
10956TIP3   OH232812   1.216   3.840   0.609
10956TIP3    H132813   1.198   3.839   0.515
10956TIP3    H232814   1.159   3.909   0.643
10957TIP3   OH232815   6.899   0.061   5.297
10957TIP3    H132816   6.830   0.066   5.364
10957TIP3    H232817   6.867   0.115   5.225
10958TIP3   OH232818   7.955   3.554   2.067
10958TIP3    H132819   7.963   3.464   2.037
10958TIP3    H232820   7.966   3.550   2.162
10959TIP3   OH232821   1.592   7.601   5.723
10959TIP3    H132822   1.582   7.637   5.635
10959TIP3    H232823   1.524   7.644   5.775
10960TIP3   OH232824   3.347   0.403   2.162
10960TIP3    H132825   3.325   0.482   2.211
10960TIP3    H232826   3.443   0.403   2.157
10961TIP3   OH232827   2.492   6.709   1.168
10961TIP3    H132828   2.491   6.796   1.208
10961TIP3    H232829   2.584   6.685   1.167
10962TIP3   OH232830   0.385   7.031   6.338
10962TIP3    H132831   0.443   7.033   6.414
10962TIP3    H232832   0.390   7.120   6.302
10963TIP3   OH232833   4.320   0.318   5.996
10963TIP3    H132834   4.225   0.311   5.998
10963TIP3    H232835   4.350   0.234   5.962
10964TIP3   OH232836   3.572   4.832   0.344
10964TIP3    H132837   3.663   4.810   0.326
10964TIP3    H232838   3.523   4.752   0.325
10965TIP3   OH232839   7.913   1.819   2.420
10965TIP3    H132840   7.876   1.731   2.427
10965TIP3    H232841   7.873   1.869   2.491
10966TIP3   OH232842   1.084   0.149   0.412
10966TIP3    H132843   1.067   0.214   0.344
10966TIP3    H232844   1.178   0.132   0.406
10967TIP3   OH232845   4.438   7.493   1.598
10967TIP3    H132846   4.416   7.544   1.676
10967TIP3    H232847   4.478   7.557   1.539
10968TIP3   OH232848   4.001   4.509   2.640
10968TIP3    H132849   4.076   4.560   2.671
10968TIP3    H232850   3.927   4.569   2.647
10969TIP3   OH232851   5.034   1.178   2.430
10969TIP3    H132852   5.045   1.172   2.335
10969TIP3    H232853   5.122   1.192   2.464
10970TIP3   OH232854   1.433   0.130   5.229
10970TIP3    H132855   1.391   0.091   5.152
10970TIP3    H232856   1.441   0.058   5.291
10971TIP3   OH232857   7.713   7.205   4.547
10971TIP3    H132858   7.789   7.225   4.492
10971TIP3    H232859   7.724   7.261   4.624
10972TIP3   OH232860   4.682   6.214   3.816
10972TIP3    H132861   4.695   6.282   3.750
10972TIP3    H232862   4.612   6.248   3.872
10973TIP3   OH232863   6.909   3.853   1.671
10973TIP3    H132864   6.882   3.929   1.619
10973TIP3    H232865   7.001   3.840   1.648
10974TIP3   OH232866   5.282   5.213   2.012
10974TIP3    H132867   5.200   5.258   1.991
10974TIP3    H232868   5.350   5.274   1.986
10975TIP3   OH232869   0.668   3.585   3.234
10975TIP3    H132870   0.645   3.553   3.321
10975TIP3    H232871   0.590   3.567   3.181
10976TIP3   OH232872   8.106   1.689   3.784
10976TIP3    H132873   8.149   1.771   3.808
10976TIP3    H232874   8.097   1.694   3.689
10977TIP3   OH232875   0.635   3.011   2.811
10977TIP3    H132876   0.548   3.004   2.774
10977TIP3    H232877   0.634   3.091   2.863
10978TIP3   OH232878   5.880   1.344   1.019
10978TIP3    H132879   5.974   1.353   1.005
10978TIP3    H232880   5.871   1.259   1.063
10979TIP3   OH232881   4.574   1.989   1.988
10979TIP3    H132882   4.614   1.930   2.051
10979TIP3    H232883   4.499   2.026   2.033
10980TIP3   OH232884   2.508   2.108   4.642
10980TIP3    H132885   2.508   2.013   4.628
10980TIP3    H232886   2.484   2.118   4.734
10981TIP3   OH232887   5.042   2.790   1.745
10981TIP3    H132888   5.006   2.850   1.679
10981TIP3    H232889   5.039   2.840   1.826
10982TIP3   OH232890   0.217   3.925   5.751
10982TIP3    H132891   0.239   3.837   5.781
10982TIP3    H232892   0.278   3.942   5.679
10983TIP3   OH232893   3.927   6.215   6.561
10983TIP3    H132894   3.910   6.123   6.578
10983TIP3    H232895   3.938   6.255   6.647
10984TIP3   OH232896   3.771   2.684   6.028
10984TIP3    H132897   3.797   2.691   6.120
10984TIP3    H232898   3.854   2.682   5.980
10985TIP3   OH232899   1.562   2.971   4.607
10985TIP3    H132900   1.494   2.964   4.675
10985TIP3    H232901   1.597   2.882   4.598
10986TIP3   OH232902   2.815   5.883   4.874
10986TIP3    H132903   2.796   5.975   4.891
10986TIP3    H232904   2.786   5.837   4.952
10987TIP3   OH232905   3.582   4.253   5.960
10987TIP3    H132906   3.584   4.196   6.037
10987TIP3    H232907   3.673   4.261   5.934
10988TIP3   OH232908   7.024   5.159   5.486
10988TIP3    H132909   7.110   5.197   5.472
10988TIP3    H232910   7.020   5.086   5.424
10989TIP3   OH232911   3.157   7.423   6.515
10989TIP3    H132912   3.083   7.481   6.529
10989TIP3    H232913   3.194   7.409   6.602
10990TIP3   OH232914   5.177   4.786   5.829
10990TIP3    H132915   5.112   4.775   5.760
10990TIP3    H232916   5.178   4.702   5.875
10991TIP3   OH232917   5.462   6.427   6.241
10991TIP3    H132918   5.502   6.385   6.165
10991TIP3    H232919   5.531   6.483   6.277
10992TIP3   OH232920   1.080   0.526   2.851
10992TIP3    H132921   1.166   0.513   2.810
10992TIP3    H232922   1.049   0.437   2.869
10993TIP3   OH232923   5.370   7.176   5.230
10993TIP3    H132924   5.406   7.134   5.152
10993TIP3    H232925   5.411   7.263   5.232
10994TIP3   OH232926   4.509   1.763   2.283
10994TIP3    H132927   4.535   1.804   2.366
10994TIP3    H232928   4.590   1.760   2.232
10995TIP3   OH232929   4.984   2.721   2.693
10995TIP3    H132930   5.024   2.807   2.679
10995TIP3    H232931   4.894   2.740   2.719
10996TIP3   OH232932   5.478   0.963   0.398
10996TIP3    H132933   5.401   0.907   0.412
10996TIP3    H232934   5.505   0.944   0.309
10997TIP3   OH232935   6.801   4.774   6.649
10997TIP3    H132936   6.793   4.789   6.555
10997TIP3    H232937   6.859   4.698   6.656
10998TIP3   OH232938   5.588   5.972   2.832
10998TIP3    H132939   5.576   5.982   2.926
10998TIP3    H232940   5.588   6.062   2.799
10999TIP3   OH232941   6.225   1.132   5.063
10999TIP3    H132942   6.158   1.163   5.123
10999TIP3    H232943   6.191   1.153   4.976
11000TIP3   OH232944   6.871   0.270   0.667
11000TIP3    H132945   6.791   0.254   0.716
11000TIP3    H232946   6.923   0.191   0.679
11001TIP3   OH232947   8.281   7.065   5.261
11001TIP3    H132948   8.273   7.129   5.190
11001TIP3    H232949   8.276   6.980   5.218
11002TIP3   OH232950   2.665   2.924   1.918
11002TIP3    H132951   2.641   2.884   2.002
11002TIP3    H232952   2.665   2.851   1.856
11003TIP3   OH232953   5.283   0.409   4.295
11003TIP3    H132954   5.260   0.389   4.386
11003TIP3    H232955   5.210   0.463   4.263
11004TIP3   OH232956   6.684   4.326   1.443
11004TIP3    H132957   6.651   4.406   1.402
11004TIP3    H232958   6.616   4.300   1.505
11005TIP3   OH232959   6.051   4.491   0.331
11005TIP3    H132960   6.001   4.410   0.318
11005TIP3    H232961   6.139   4.470   0.301
11006TIP3   OH232962   4.758   6.638   4.199
11006TIP3    H132963   4.813   6.696   4.252
11006TIP3    H232964   4.816   6.568   4.172
11007TIP3   OH232965   4.735   3.348   0.003
11007TIP3    H132966   4.748   3.413   0.071
11007TIP3    H232967   4.793   3.375  -0.068
11008TIP3   OH232968   4.396   3.429   4.962
11008TIP3    H132969   4.454   3.496   4.998
11008TIP3    H232970   4.454   3.375   4.907
11009TIP3   OH232971   3.769   3.360   4.270
11009TIP3    H132972   3.718   3.373   4.189
11009TIP3    H232973   3.764   3.266   4.286
11010TIP3   OH232974   8.199   5.628   2.432
11010TIP3    H132975   8.269   5.584   2.481
11010TIP3    H232976   8.233   5.634   2.342
11011TIP3   OH232977   1.527   4.151   1.424
11011TIP3    H132978   1.455   4.165   1.486
11011TIP3    H232979   1.515   4.219   1.358
11012TIP3   OH232980   5.558   4.083   0.858
11012TIP3    H132981   5.496   4.082   0.784
11012TIP3    H232982   5.522   4.021   0.920
11013TIP3   OH232983   1.512   5.799   1.685
11013TIP3    H132984   1.554   5.770   1.767
11013TIP3    H232985   1.533   5.892   1.679
11014TIP3   OH232986   3.524   0.485   0.123
11014TIP3    H132987   3.603   0.433   0.142
11014TIP3    H232988   3.452   0.431   0.156
11015TIP3   OH232989   7.727   7.201   5.886
11015TIP3    H132990   7.790   7.152   5.939
11015TIP3    H232991   7.726   7.289   5.925
11016TIP3   OH232992   0.704   4.558   5.628
11016TIP3    H132993   0.620   4.524   5.599
11016TIP3    H232994   0.682   4.627   5.691
11017TIP3   OH232995   0.978   4.186   3.266
11017TIP3    H132996   0.989   4.104   3.315
11017TIP3    H232997   0.943   4.159   3.181
11018TIP3   OH232998   2.742   5.919   1.946
11018TIP3    H132999   2.678   5.969   1.996
11018TIP3    H233000   2.823   5.925   1.997
11019TIP3   OH233001   0.751   3.511   0.082
11019TIP3    H133002   0.803   3.581   0.043
11019TIP3    H233003   0.720   3.459   0.007
11020TIP3   OH233004   6.289   7.463   2.509
11020TIP3    H133005   6.366   7.479   2.564
11020TIP3    H233006   6.269   7.370   2.521
11021TIP3   OH233007   4.168   2.866   1.728
11021TIP3    H133008   4.080   2.900   1.741
11021TIP3    H233009   4.182   2.807   1.802
11022TIP3   OH233010   1.368   5.983   0.195
11022TIP3    H133011   1.405   6.064   0.160
11022TIP3    H233012   1.295   5.962   0.136
11023TIP3   OH233013   5.593   5.598   1.498
11023TIP3    H133014   5.686   5.607   1.522
11023TIP3    H233015   5.561   5.688   1.494
11024TIP3   OH233016   2.894   6.920   4.232
11024TIP3    H133017   2.927   7.009   4.243
11024TIP3    H233018   2.918   6.876   4.314
11025TIP3   OH233019   7.943   2.651   4.922
11025TIP3    H133020   7.902   2.639   4.836
11025TIP3    H233021   7.944   2.746   4.935
11026TIP3   OH233022   7.339   3.573   5.418
11026TIP3    H133023   7.244   3.570   5.431
11026TIP3    H233024   7.376   3.557   5.505
11027TIP3   OH233025   6.989   2.781   2.547
11027TIP3    H133026   6.992   2.818   2.635
11027TIP3    H233027   7.046   2.704   2.551
11028TIP3   OH233028   0.275   7.631   2.462
11028TIP3    H133029   0.317   7.551   2.494
11028TIP3    H233030   0.236   7.671   2.540
11029TIP3   OH233031   4.474   7.218   3.627
11029TIP3    H133032   4.472   7.206   3.721
11029TIP3    H233033   4.404   7.280   3.608
11030TIP3   OH233034   2.005   1.430   2.594
11030TIP3    H133035   2.017   1.521   2.621
11030TIP3    H233036   1.923   1.403   2.635
11031TIP3   OH233037   6.641   1.967   5.784
11031TIP3    H133038   6.637   1.994   5.692
11031TIP3    H233039   6.553   1.933   5.802
11032TIP3   OH233040   6.714   6.966   6.398
11032TIP3    H133041   6.620   6.985   6.405
11032TIP3    H233042   6.733   6.973   6.304
11033TIP3   OH233043   4.969   5.818   1.097
11033TIP3    H133044   4.958   5.907   1.063
11033TIP3    H233045   4.880   5.782   1.099
11034TIP3   OH233046   6.869   5.350   4.026
11034TIP3    H133047   6.827   5.421   3.977
11034TIP3    H233048   6.797   5.290   4.046
11035TIP3   OH233049   1.332   1.050   3.039
11035TIP3    H133050   1.259   0.988   3.041
11035TIP3    H233051   1.349   1.063   2.945
11036TIP3   OH233052   1.067   3.043   0.273
11036TIP3    H133053   1.157   3.021   0.251
11036TIP3    H233054   1.018   3.030   0.192
11037TIP3   OH233055   2.850   6.644   2.373
11037TIP3    H133056   2.793   6.598   2.312
11037TIP3    H233057   2.791   6.698   2.426
11038TIP3   OH233058   2.304   6.449   4.882
11038TIP3    H133059   2.287   6.375   4.824
11038TIP3    H233060   2.235   6.511   4.861
11039TIP3   OH233061   5.061   1.430   4.448
11039TIP3    H133062   5.143   1.454   4.490
11039TIP3    H233063   4.993   1.466   4.506
11040TIP3   OH233064   7.954   6.181   4.562
11040TIP3    H133065   8.014   6.239   4.609
11040TIP3    H233066   7.884   6.239   4.532
11041TIP3   OH233067   2.758   7.398   6.295
11041TIP3    H133068   2.849   7.417   6.271
11041TIP3    H233069   2.727   7.339   6.227
11042TIP3   OH233070   4.166   4.638   1.060
11042TIP3    H133071   4.122   4.556   1.084
11042TIP3    H233072   4.101   4.686   1.008
11043TIP3   OH233073   1.787   1.359   4.532
11043TIP3    H133074   1.868   1.408   4.515
11043TIP3    H233075   1.788   1.343   4.627
11044TIP3   OH233076   7.051   5.279   1.071
11044TIP3    H133077   7.058   5.185   1.087
11044TIP3    H233078   7.080   5.290   0.980
11045TIP3   OH233079   4.369   5.110   1.297
11045TIP3    H133080   4.392   5.023   1.328
11045TIP3    H233081   4.277   5.103   1.269
11046TIP3   OH233082   2.392   0.877   0.505
11046TIP3    H133083   2.317   0.825   0.476
11046TIP3    H233084   2.469   0.827   0.478
11047TIP3   OH233085   6.398   7.338   4.655
11047TIP3    H133086   6.371   7.391   4.731
11047TIP3    H233087   6.473   7.385   4.619
11048TIP3   OH233088   2.838   1.162   1.364
11048TIP3    H133089   2.769   1.115   1.317
11048TIP3    H233090   2.836   1.251   1.328
11049TIP3   OH233091   6.754   7.279   4.377
11049TIP3    H133092   6.717   7.196   4.407
11049TIP3    H233093   6.679   7.336   4.364
11050TIP3   OH233094   2.535   2.249   2.986
11050TIP3    H133095   2.605   2.222   3.046
11050TIP3    H233096   2.564   2.218   2.900
11051TIP3   OH233097   4.173   2.584   1.515
11051TIP3    H133098   4.143   2.671   1.489
11051TIP3    H233099   4.182   2.589   1.610
11052TIP3   OH233100   2.571   2.733   1.715
11052TIP3    H133101   2.516   2.669   1.761
11052TIP3    H233102   2.645   2.682   1.682
11053TIP3   OH233103   6.529   2.460   6.484
11053TIP3    H133104   6.572   2.376   6.501
11053TIP3    H233105   6.526   2.465   6.388
11054TIP3   OH233106   5.592   3.409   5.879
11054TIP3    H133107   5.573   3.493   5.838
11054TIP3    H233108   5.681   3.388   5.851
11055TIP3   OH233109   7.971   6.707   1.673
11055TIP3    H133110   7.892   6.721   1.620
11055TIP3    H233111   8.042   6.701   1.610
11056TIP3   OH233112   7.950   1.908   1.812
11056TIP3    H133113   7.875   1.853   1.793
11056TIP3    H233114   7.914   1.997   1.819
11057TIP3   OH233115   8.282   0.967   2.153
11057TIP3    H133116   8.187   0.968   2.142
11057TIP3    H233117   8.302   1.048   2.200
11058TIP3   OH233118   3.073   6.318   5.906
11058TIP3    H133119   3.070   6.253   5.835
11058TIP3    H233120   3.166   6.336   5.918
11059TIP3   OH233121   1.403   4.045   4.050
11059TIP3    H133122   1.436   4.130   4.021
11059TIP3    H233123   1.315   4.040   4.013
11060TIP3   OH233124   4.860   1.966   3.922
11060TIP3    H133125   4.870   1.923   3.837
11060TIP3    H233126   4.778   2.013   3.916
11061TIP3   OH233127   5.015   1.183   6.069
11061TIP3    H133128   5.096   1.197   6.118
11061TIP3    H233129   4.967   1.265   6.079
11062TIP3   OH233130   1.552   6.886   3.489
11062TIP3    H133131   1.545   6.792   3.501
11062TIP3    H233132   1.533   6.922   3.576
11063TIP3   OH233133   6.513   6.016   4.941
11063TIP3    H133134   6.502   5.961   5.019
11063TIP3    H233135   6.512   5.955   4.868
11064TIP3   OH233136   2.489   7.309   0.799
11064TIP3    H133137   2.536   7.371   0.856
11064TIP3    H233138   2.404   7.299   0.841
11065TIP3   OH233139   6.017   5.979   1.707
11065TIP3    H133140   5.975   6.028   1.778
11065TIP3    H233141   6.086   6.037   1.676
11066TIP3   OH233142   0.536   6.143   1.443
11066TIP3    H133143   0.465   6.192   1.485
11066TIP3    H233144   0.616   6.175   1.486
11067TIP3   OH233145   1.667   7.522   6.072
11067TIP3    H133146   1.668   7.585   6.144
11067TIP3    H233147   1.716   7.447   6.106
11068TIP3   OH233148   4.992   6.849   0.488
11068TIP3    H133149   4.941   6.898   0.423
11068TIP3    H233150   5.006   6.912   0.559
11069TIP3   OH233151   2.275   6.866   6.438
11069TIP3    H133152   2.183   6.880   6.415
11069TIP3    H233153   2.313   6.954   6.437
11070TIP3   OH233154   4.563   1.639   0.100
11070TIP3    H133155   4.581   1.599   0.016
11070TIP3    H233156   4.647   1.636   0.147
11071TIP3   OH233157   0.954   2.717   2.172
11071TIP3    H133158   0.956   2.720   2.267
11071TIP3    H233159   0.906   2.795   2.146
11072TIP3   OH233160   5.299   1.663   2.747
11072TIP3    H133161   5.234   1.705   2.691
11072TIP3    H233162   5.276   1.692   2.836
11073TIP3   OH233163   0.946   4.426   3.403
11073TIP3    H133164   0.997   4.477   3.465
11073TIP3    H233165   0.987   4.339   3.405
11074TIP3   OH233166   5.363   5.591   0.048
11074TIP3    H133167   5.288   5.637   0.086
11074TIP3    H233168   5.425   5.581   0.120
11075TIP3   OH233169   3.196   0.978   3.614
11075TIP3    H133170   3.236   0.893   3.596
11075TIP3    H233171   3.194   1.022   3.529
11076TIP3   OH233172   1.781   6.744   6.699
11076TIP3    H133173   1.868   6.704   6.689
11076TIP3    H233174   1.799   6.833   6.728
11077TIP3   OH233175   2.605   2.290   1.725
11077TIP3    H133176   2.655   2.354   1.675
11077TIP3    H233177   2.516   2.324   1.726
11078TIP3   OH233178   5.785   6.399   5.179
11078TIP3    H133179   5.733   6.479   5.174
11078TIP3    H233180   5.859   6.422   5.235
11079TIP3   OH233181   1.529   5.469   4.273
11079TIP3    H133182   1.493   5.544   4.225
11079TIP3    H233183   1.620   5.464   4.243
11080TIP3   OH233184   1.928   5.817   5.619
11080TIP3    H133185   1.891   5.819   5.707
11080TIP3    H233186   2.008   5.870   5.625
11081TIP3   OH233187   7.786   3.616   4.004
11081TIP3    H133188   7.813   3.573   3.922
11081TIP3    H233189   7.868   3.638   4.047
11082TIP3   OH233190   0.025   4.599   3.918
11082TIP3    H133191   0.004   4.529   3.857
11082TIP3    H233192   0.114   4.625   3.894
11083TIP3   OH233193   4.970   4.540   0.785
11083TIP3    H133194   4.912   4.553   0.711
11083TIP3    H233195   4.912   4.548   0.862
11084TIP3   OH233196   5.094   5.855   4.520
11084TIP3    H133197   5.086   5.793   4.593
11084TIP3    H233198   5.005   5.889   4.508
11085TIP3   OH233199   5.035   4.032   0.504
11085TIP3    H133200   5.118   4.056   0.546
11085TIP3    H233201   4.974   4.101   0.529
11086TIP3   OH233202   5.235   1.969   5.418
11086TIP3    H133203   5.309   2.020   5.452
11086TIP3    H233204   5.161   1.995   5.472
11087TIP3   OH233205   1.281   6.263   5.198
11087TIP3    H133206   1.186   6.260   5.197
11087TIP3    H233207   1.306   6.243   5.107
11088TIP3   OH233208   2.792   0.480   3.131
11088TIP3    H133209   2.855   0.417   3.166
11088TIP3    H233210   2.762   0.529   3.208
11089TIP3   OH233211   4.775   5.644   2.063
11089TIP3    H133212   4.825   5.654   1.982
11089TIP3    H233213   4.684   5.662   2.037
11090TIP3   OH233214   7.132   4.903   3.572
11090TIP3    H133215   7.189   4.834   3.540
11090TIP3    H233216   7.101   4.871   3.657
11091TIP3   OH233217   8.193   6.249   0.823
11091TIP3    H133218   8.242   6.227   0.744
11091TIP3    H233219   8.239   6.326   0.858
11092TIP3   OH233220   4.915   4.759   0.599
11092TIP3    H133221   5.001   4.800   0.608
11092TIP3    H233222   4.909   4.735   0.507
11093TIP3   OH233223   2.965   6.604   2.660
11093TIP3    H133224   2.890   6.599   2.600
11093TIP3    H233225   2.972   6.516   2.696
11094TIP3   OH233226   2.255   0.927   0.783
11094TIP3    H133227   2.325   0.903   0.722
11094TIP3    H233228   2.253   0.855   0.846
11095TIP3   OH233229   4.556   7.652   4.972
11095TIP3    H133230   4.549   7.624   5.063
11095TIP3    H233231   4.634   7.607   4.939
11096TIP3   OH233232   3.917   3.805   5.969
11096TIP3    H133233   3.927   3.711   5.983
11096TIP3    H233234   3.948   3.845   6.050
11097TIP3   OH233235   7.556   4.258   5.546
11097TIP3    H133236   7.605   4.262   5.628
11097TIP3    H233237   7.470   4.294   5.569
11098TIP3   OH233238   0.047   5.293   0.320
11098TIP3    H133239   0.143   5.293   0.314
11098TIP3    H233240   0.018   5.243   0.244
11099TIP3   OH233241   2.082   2.412   4.886
11099TIP3    H133242   2.007   2.352   4.883
11099TIP3    H233243   2.144   2.376   4.823
11100TIP3   OH233244   6.966   1.015   2.479
11100TIP3    H133245   7.032   1.078   2.508
11100TIP3    H233246   6.882   1.057   2.500
11101TIP3   OH233247   4.610   6.169   0.655
11101TIP3    H133248   4.648   6.081   0.644
11101TIP3    H233249   4.546   6.158   0.724
11102TIP3   OH233250   4.292   7.648   4.878
11102TIP3    H133251   4.382   7.646   4.910
11102TIP3    H233252   4.244   7.591   4.938
11103TIP3   OH233253   2.245   7.472   1.509
11103TIP3    H133254   2.311   7.540   1.523
11103TIP3    H233255   2.297   7.394   1.488
11104TIP3   OH233256   2.200   5.769   1.627
11104TIP3    H133257   2.269   5.834   1.639
11104TIP3    H233258   2.136   5.812   1.571
11105TIP3   OH233259   4.451   7.215   1.806
11105TIP3    H133260   4.400   7.295   1.792
11105TIP3    H233261   4.448   7.169   1.722
11106TIP3   OH233262   2.648   3.510   0.931
11106TIP3    H133263   2.719   3.448   0.949
11106TIP3    H233264   2.656   3.529   0.837
11107TIP3   OH233265   4.587   3.038   2.523
11107TIP3    H133266   4.512   3.034   2.464
11107TIP3    H233267   4.652   2.980   2.484
11108TIP3   OH233268   2.229   4.880   5.412
11108TIP3    H133269   2.282   4.844   5.484
11108TIP3    H233270   2.291   4.931   5.360
11109TIP3   OH233271   4.278   6.363   5.283
11109TIP3    H133272   4.286   6.280   5.329
11109TIP3    H233273   4.367   6.383   5.253
11110TIP3   OH233274   0.195   3.382   6.579
11110TIP3    H133275   0.252   3.433   6.521
11110TIP3    H233276   0.117   3.364   6.526
11111TIP3   OH233277   0.076   5.073   5.644
11111TIP3    H133278   0.075   5.168   5.638
11111TIP3    H233279   0.147   5.046   5.585
11112TIP3   OH233280   2.921   2.838   2.672
11112TIP3    H133281   2.850   2.883   2.627
11112TIP3    H233282   2.925   2.878   2.759
11113TIP3   OH233283   4.005   5.158   5.600
11113TIP3    H133284   4.033   5.067   5.610
11113TIP3    H233285   4.081   5.203   5.564
11114TIP3   OH233286   5.299   3.713   1.154
11114TIP3    H133287   5.352   3.771   1.099
11114TIP3    H233288   5.361   3.677   1.217
11115TIP3   OH233289   5.381   7.276   4.555
11115TIP3    H133290   5.412   7.266   4.465
11115TIP3    H233291   5.289   7.302   4.546
11116TIP3   OH233292   0.228   4.163   0.334
11116TIP3    H133293   0.262   4.076   0.353
11116TIP3    H233294   0.174   4.184   0.410
11117TIP3   OH233295   0.493   0.657   5.746
11117TIP3    H133296   0.461   0.595   5.812
11117TIP3    H233297   0.464   0.743   5.778
11118TIP3   OH233298   3.250   0.569   2.796
11118TIP3    H133299   3.221   0.493   2.745
11118TIP3    H233300   3.267   0.637   2.730
11119TIP3   OH233301   2.178   4.748   6.582
11119TIP3    H133302   2.095   4.794   6.572
11119TIP3    H233303   2.191   4.704   6.497
11120TIP3   OH233304   6.925   5.085   2.936
11120TIP3    H133305   6.957   5.033   3.011
11120TIP3    H233306   6.857   5.030   2.897
11121TIP3   OH233307   5.170   4.392   6.713
11121TIP3    H133308   5.222   4.469   6.689
11121TIP3    H233309   5.213   4.319   6.668
11122TIP3   OH233310   5.281   1.251   5.883
11122TIP3    H133311   5.240   1.214   5.961
11122TIP3    H233312   5.318   1.334   5.912
11123TIP3   OH233313   6.597   1.176   0.476
11123TIP3    H133314   6.559   1.147   0.559
11123TIP3    H233315   6.596   1.097   0.421
11124TIP3   OH233316   6.724   5.741   5.626
11124TIP3    H133317   6.773   5.793   5.689
11124TIP3    H233318   6.754   5.652   5.638
11125TIP3   OH233319   5.863   1.415   6.075
11125TIP3    H133320   5.817   1.396   6.157
11125TIP3    H233321   5.794   1.419   6.009
11126TIP3   OH233322   6.185   1.313   3.666
11126TIP3    H133323   6.150   1.401   3.659
11126TIP3    H233324   6.278   1.325   3.686
11127TIP3   OH233325   5.400   7.523   3.290
11127TIP3    H133326   5.416   7.432   3.316
11127TIP3    H233327   5.306   7.535   3.300
11128TIP3   OH233328   1.645   4.357   4.210
11128TIP3    H133329   1.662   4.427   4.273
11128TIP3    H233330   1.554   4.332   4.225
11129TIP3   OH233331   3.603   6.849   5.947
11129TIP3    H133332   3.634   6.940   5.949
11129TIP3    H233333   3.516   6.853   5.987
11130TIP3   OH233334   8.275   4.675   0.596
11130TIP3    H133335   8.305   4.756   0.638
11130TIP3    H233336   8.211   4.704   0.530
11131TIP3   OH233337   7.991   6.047   0.307
11131TIP3    H133338   7.963   6.106   0.237
11131TIP3    H233339   7.934   5.970   0.297
11132TIP3   OH233340   2.387   2.961   1.983
11132TIP3    H133341   2.338   3.037   1.951
11132TIP3    H233342   2.457   2.999   2.037
11133TIP3   OH233343   4.120   4.185   3.713
11133TIP3    H133344   4.097   4.141   3.794
11133TIP3    H233345   4.165   4.264   3.740
11134TIP3   OH233346   1.985   1.685   1.458
11134TIP3    H133347   1.960   1.723   1.374
11134TIP3    H233348   2.080   1.699   1.464
11135TIP3   OH233349   0.365   1.800   2.797
11135TIP3    H133350   0.277   1.770   2.772
11135TIP3    H233351   0.407   1.723   2.834
11136TIP3   OH233352   6.513   0.798   6.591
11136TIP3    H133353   6.417   0.804   6.587
11136TIP3    H233354   6.532   0.782   6.683
11137TIP3   OH233355   3.315   3.686   4.085
11137TIP3    H133356   3.407   3.671   4.108
11137TIP3    H233357   3.271   3.701   4.168
11138TIP3   OH233358   2.728   2.495   1.588
11138TIP3    H133359   2.715   2.537   1.503
11138TIP3    H233360   2.809   2.445   1.578
11139TIP3   OH233361   7.689   4.318   0.976
11139TIP3    H133362   7.668   4.263   1.051
11139TIP3    H233363   7.781   4.342   0.990
11140TIP3   OH233364   3.492   1.716   5.563
11140TIP3    H133365   3.533   1.680   5.484
11140TIP3    H233366   3.446   1.641   5.602
11141TIP3   OH233367   1.679   2.083   3.499
11141TIP3    H133368   1.701   2.176   3.497
11141TIP3    H233369   1.763   2.039   3.514
11142TIP3   OH233370   2.793   4.045   6.578
11142TIP3    H133371   2.881   4.025   6.611
11142TIP3    H233372   2.735   3.990   6.630
11143TIP3   OH233373   0.544   0.646   0.676
11143TIP3    H133374   0.628   0.646   0.632
11143TIP3    H233375   0.565   0.642   0.769
11144TIP3   OH233376   1.677   4.992   6.248
11144TIP3    H133377   1.727   4.926   6.296
11144TIP3    H233378   1.740   5.031   6.187
11145TIP3   OH233379   4.462   4.297   4.926
11145TIP3    H133380   4.462   4.361   4.855
11145TIP3    H233381   4.551   4.299   4.961
11146TIP3   OH233382   5.395   2.180   0.340
11146TIP3    H133383   5.483   2.205   0.312
11146TIP3    H233384   5.378   2.096   0.297
11147TIP3   OH233385   5.373   0.021   6.076
11147TIP3    H133386   5.354  -0.013   5.988
11147TIP3    H233387   5.301   0.082   6.094
11148TIP3   OH233388   4.206   6.913   1.082
11148TIP3    H133389   4.228   6.831   1.125
11148TIP3    H233390   4.116   6.901   1.051
11149TIP3   OH233391   3.782   6.802   2.810
11149TIP3    H133392   3.756   6.710   2.806
11149TIP3    H233393   3.875   6.801   2.786
11150TIP3   OH233394   2.336   6.672   3.918
11150TIP3    H133395   2.394   6.720   3.977
11150TIP3    H233396   2.383   6.590   3.900
11151TIP3   OH233397   6.823   4.662   4.033
11151TIP3    H133398   6.865   4.660   4.119
11151TIP3    H233399   6.896   4.663   3.971
11152TIP3   OH233400   4.582   7.132   6.351
11152TIP3    H133401   4.576   7.128   6.256
11152TIP3    H233402   4.674   7.110   6.370
11153TIP3   OH233403   0.176   0.024   6.664
11153TIP3    H133404   0.145   0.088   6.600
11153TIP3    H233405   0.134  -0.058   6.638
11154TIP3   OH233406   6.888   2.517   3.920
11154TIP3    H133407   6.925   2.582   3.979
11154TIP3    H233408   6.868   2.442   3.976
11155TIP3   OH233409   7.454   6.557   5.179
11155TIP3    H133410   7.396   6.625   5.145
11155TIP3    H233411   7.542   6.594   5.170
11156TIP3   OH233412   4.473   4.040   2.060
11156TIP3    H133413   4.426   4.112   2.016
11156TIP3    H233414   4.518   4.082   2.133
11157TIP3   OH233415   0.984   7.303   2.298
11157TIP3    H133416   0.966   7.339   2.385
11157TIP3    H233417   0.991   7.379   2.241
11158TIP3   OH233418   5.813   7.059   5.630
11158TIP3    H133419   5.876   6.988   5.640
11158TIP3    H233420   5.795   7.088   5.719
11159TIP3   OH233421   5.758   7.696   1.324
11159TIP3    H133422   5.850   7.684   1.300
11159TIP3    H233423   5.756   7.685   1.420
11160TIP3   OH233424   1.952   4.928   6.590
11160TIP3    H133425   2.012   4.994   6.625
11160TIP3    H233426   1.866   4.954   6.624
11161TIP3   OH233427   2.424   1.635   5.800
11161TIP3    H133428   2.498   1.691   5.823
11161TIP3    H233429   2.354   1.697   5.777
11162TIP3   OH233430   4.595   7.005   4.381
11162TIP3    H133431   4.672   6.953   4.404
11162TIP3    H233432   4.572   6.976   4.292
11163TIP3   OH233433   2.965   3.953   1.189
11163TIP3    H133434   3.035   4.017   1.180
11163TIP3    H233435   2.899   3.980   1.125
11164TIP3   OH233436   6.638   1.575   6.680
11164TIP3    H133437   6.661   1.542   6.767
11164TIP3    H233438   6.722   1.581   6.634
11165TIP3   OH233439   4.827   5.661   1.500
11165TIP3    H133440   4.890   5.591   1.514
11165TIP3    H233441   4.800   5.688   1.588
11166TIP3   OH233442   7.549   5.962   4.461
11166TIP3    H133443   7.592   5.879   4.482
11166TIP3    H233444   7.493   5.979   4.536
11167TIP3   OH233445   2.392   3.285   1.335
11167TIP3    H133446   2.470   3.241   1.368
11167TIP3    H233447   2.421   3.330   1.256
11168TIP3   OH233448   0.142   2.071   5.633
11168TIP3    H133449   0.086   2.015   5.687
11168TIP3    H233450   0.231   2.043   5.653
11169TIP3   OH233451   2.080   7.616   3.963
11169TIP3    H133452   1.996   7.629   3.919
11169TIP3    H233453   2.141   7.671   3.914
11170TIP3   OH233454   6.954   1.181   4.134
11170TIP3    H133455   7.023   1.186   4.068
11170TIP3    H233456   6.983   1.242   4.203
11171TIP3   OH233457   7.772   7.543   3.836
11171TIP3    H133458   7.786   7.625   3.789
11171TIP3    H233459   7.835   7.482   3.798
11172TIP3   OH233460   7.354   2.786   4.917
11172TIP3    H133461   7.390   2.724   4.981
11172TIP3    H233462   7.262   2.761   4.909
11173TIP3   OH233463   1.542   1.701   2.561
11173TIP3    H133464   1.611   1.740   2.614
11173TIP3    H233465   1.562   1.727   2.472
11174TIP3   OH233466   5.295   6.825   6.434
11174TIP3    H133467   5.218   6.794   6.386
11174TIP3    H233468   5.352   6.748   6.441
11175TIP3   OH233469   6.049   6.765   2.289
11175TIP3    H133470   5.998   6.842   2.263
11175TIP3    H233471   6.139   6.796   2.296
11176TIP3   OH233472   2.506   4.469   1.095
11176TIP3    H133473   2.576   4.492   1.156
11176TIP3    H233474   2.515   4.531   1.023
11177TIP3   OH233475   6.649   1.722   4.257
11177TIP3    H133476   6.561   1.714   4.221
11177TIP3    H233477   6.699   1.651   4.216
11178TIP3   OH233478   3.883   6.856   3.925
11178TIP3    H133479   3.909   6.927   3.984
11178TIP3    H233480   3.961   6.837   3.874
11179TIP3   OH233481   4.961   7.341   4.786
11179TIP3    H133482   4.874   7.357   4.824
11179TIP3    H233483   4.999   7.274   4.842
11180TIP3   OH233484   3.217   1.875   5.538
11180TIP3    H133485   3.260   1.909   5.617
11180TIP3    H233486   3.249   1.785   5.530
11181TIP3   OH233487   1.290   3.721   0.860
11181TIP3    H133488   1.256   3.800   0.819
11181TIP3    H233489   1.381   3.743   0.882
11182TIP3   OH233490   1.718   5.931   4.749
11182TIP3    H133491   1.714   5.879   4.830
11182TIP3    H233492   1.719   6.022   4.778
11183TIP3   OH233493   6.104   1.498   3.112
11183TIP3    H133494   6.096   1.488   3.207
11183TIP3    H233495   6.116   1.408   3.080
11184TIP3   OH233496   7.460   5.573   4.156
11184TIP3    H133497   7.480   5.665   4.141
11184TIP3    H233498   7.545   5.530   4.158
11185TIP3   OH233499   4.608   3.841   1.939
11185TIP3    H133500   4.574   3.920   1.982
11185TIP3    H233501   4.623   3.868   1.848
11186TIP3   OH233502   5.211   2.320   2.308
11186TIP3    H133503   5.246   2.273   2.232
11186TIP3    H233504   5.121   2.340   2.284
11187TIP3   OH233505   0.014   5.416   3.865
11187TIP3    H133506   0.065   5.410   3.946
11187TIP3    H233507  -0.077   5.422   3.893
11188TIP3   OH233508   2.455   1.183   5.858
11188TIP3    H133509   2.518   1.116   5.883
11188TIP3    H233510   2.383   1.173   5.920
11189TIP3   OH233511   0.735   7.521   2.085
11189TIP3    H133512   0.783   7.438   2.080
11189TIP3    H233513   0.803   7.588   2.093
11190TIP3   OH233514   7.570   4.198   2.558
11190TIP3    H133515   7.632   4.134   2.523
11190TIP3    H233516   7.619   4.247   2.624
11191TIP3   OH233517   5.783   3.150   6.656
11191TIP3    H133518   5.738   3.151   6.572
11191TIP3    H233519   5.731   3.207   6.712
11192TIP3   OH233520   4.597   3.711   2.978
11192TIP3    H133521   4.578   3.727   3.071
11192TIP3    H233522   4.692   3.701   2.974
11193TIP3   OH233523   6.541   5.821   3.441
11193TIP3    H133524   6.474   5.753   3.443
11193TIP3    H233525   6.616   5.780   3.399
11194TIP3   OH233526   7.322   2.493   4.084
11194TIP3    H133527   7.389   2.484   4.152
11194TIP3    H233528   7.245   2.451   4.122
11195TIP3   OH233529   6.953   0.675   0.488
11195TIP3    H133530   6.906   0.659   0.407
11195TIP3    H233531   7.046   0.676   0.463
11196TIP3   OH233532   5.884   2.307   1.146
11196TIP3    H133533   5.933   2.323   1.226
11196TIP3    H233534   5.793   2.298   1.174
11197TIP3   OH233535   1.065   4.695   1.678
11197TIP3    H133536   1.099   4.668   1.594
11197TIP3    H233537   1.111   4.777   1.697
11198TIP3   OH233538   2.301   5.499   1.311
11198TIP3    H133539   2.293   5.446   1.390
11198TIP3    H233540   2.284   5.589   1.341
11199TIP3   OH233541   1.183   2.056   5.690
11199TIP3    H133542   1.103   2.105   5.670
11199TIP3    H233543   1.242   2.075   5.617
11200TIP3   OH233544   6.791   0.710   3.968
11200TIP3    H133545   6.817   0.735   4.057
11200TIP3    H233546   6.851   0.759   3.912
11201TIP3   OH233547   0.205   0.319   6.317
11201TIP3    H133548   0.228   0.412   6.325
11201TIP3    H233549   0.290   0.275   6.308
11202TIP3   OH233550   5.566   5.903   4.423
11202TIP3    H133551   5.571   5.926   4.515
11202TIP3    H233552   5.602   5.979   4.377
11203TIP3   OH233553   2.021   4.379   3.592
11203TIP3    H133554   1.987   4.346   3.675
11203TIP3    H233555   2.018   4.303   3.533
11204TIP3   OH233556   5.468   0.297   6.774
11204TIP3    H133557   5.460   0.344   6.691
11204TIP3    H233558   5.382   0.305   6.815
11205TIP3   OH233559   5.823   5.972   2.010
11205TIP3    H133560   5.789   5.957   2.099
11205TIP3    H233561   5.750   5.947   1.953
11206TIP3   OH233562   5.106   7.318   3.017
11206TIP3    H133563   5.087   7.283   3.104
11206TIP3    H233564   5.028   7.298   2.965
11207TIP3   OH233565   0.601   4.086   5.891
11207TIP3    H133566   0.694   4.065   5.900
11207TIP3    H233567   0.574   4.038   5.813
11208TIP3   OH233568   4.585   0.071   1.340
11208TIP3    H133569   4.526   0.045   1.411
11208TIP3    H233570   4.538   0.139   1.293
11209TIP3   OH233571   6.639   0.632   0.661
11209TIP3    H133572   6.704   0.589   0.717
11209TIP3    H233573   6.624   0.570   0.589
11210TIP3   OH233574   3.917   2.374   3.225
11210TIP3    H133575   3.827   2.398   3.250
11210TIP3    H233576   3.917   2.380   3.130
11211TIP3   OH233577   3.715   6.779   6.272
11211TIP3    H133578   3.761   6.741   6.197
11211TIP3    H233579   3.629   6.805   6.238
11212TIP3   OH233580   6.089   0.387   5.203
11212TIP3    H133581   6.068   0.478   5.225
11212TIP3    H233582   6.147   0.394   5.127
11213TIP3   OH233583   6.225   0.427   3.319
11213TIP3    H133584   6.140   0.384   3.305
11213TIP3    H233585   6.272   0.369   3.378
11214TIP3   OH233586   1.116   2.479   2.901
11214TIP3    H133587   1.024   2.478   2.928
11214TIP3    H233588   1.162   2.436   2.973
11215TIP3   OH233589   5.871   7.199   5.219
11215TIP3    H133590   5.894   7.129   5.281
11215TIP3    H233591   5.868   7.278   5.273
11216TIP3   OH233592   2.486   0.969   3.138
11216TIP3    H133593   2.410   0.946   3.192
11216TIP3    H233594   2.470   1.058   3.110
11217TIP3   OH233595   1.298   0.426   4.353
11217TIP3    H133596   1.288   0.433   4.258
11217TIP3    H233597   1.222   0.471   4.388
11218TIP3   OH233598   5.846   6.752   2.967
11218TIP3    H133599   5.926   6.761   2.916
11218TIP3    H233600   5.812   6.842   2.975
11219TIP3   OH233601   2.100   1.960   3.363
11219TIP3    H133602   2.094   2.056   3.366
11219TIP3    H233603   2.186   1.942   3.326
11220TIP3   OH233604   4.019   2.641   3.086
11220TIP3    H133605   4.008   2.728   3.125
11220TIP3    H233606   3.930   2.613   3.064
11221TIP3   OH233607   6.201   3.766   5.928
11221TIP3    H133608   6.147   3.836   5.890
11221TIP3    H233609   6.138   3.699   5.954
11222TIP3   OH233610   6.437   3.811   5.621
11222TIP3    H133611   6.432   3.774   5.709
11222TIP3    H233612   6.530   3.810   5.599
11223TIP3   OH233613   8.062   5.210   5.982
11223TIP3    H133614   8.051   5.140   5.918
11223TIP3    H233615   8.156   5.228   5.982
11224TIP3   OH233616   5.044   6.230   3.544
11224TIP3    H133617   4.974   6.199   3.486
11224TIP3    H233618   5.030   6.183   3.626
11225TIP3   OH233619   7.876   1.048   1.900
11225TIP3    H133620   7.944   0.983   1.882
11225TIP3    H233621   7.916   1.108   1.963
11226TIP3   OH233622   7.977   4.526   1.911
11226TIP3    H133623   8.025   4.579   1.848
11226TIP3    H233624   8.036   4.518   1.986
11227TIP3   OH233625   1.960   6.076   3.072
11227TIP3    H133626   2.038   6.054   3.022
11227TIP3    H233627   1.938   6.166   3.045
11228TIP3   OH233628   4.139   0.942   3.928
11228TIP3    H133629   4.175   0.857   3.901
11228TIP3    H233630   4.211   1.004   3.912
11229TIP3   OH233631   4.685   2.830   6.188
11229TIP3    H133632   4.661   2.865   6.102
11229TIP3    H233633   4.689   2.735   6.175
11230TIP3   OH233634   2.289   3.458   0.745
11230TIP3    H133635   2.304   3.450   0.839
11230TIP3    H233636   2.194   3.458   0.735
11231TIP3   OH233637   3.574   3.682   0.078
11231TIP3    H133638   3.668   3.703   0.082
11231TIP3    H233639   3.540   3.710   0.162
11232TIP3   OH233640   3.629   3.792   1.363
11232TIP3    H133641   3.607   3.868   1.418
11232TIP3    H233642   3.545   3.747   1.352
11233TIP3   OH233643   5.607   3.699   0.949
11233TIP3    H133644   5.647   3.746   0.876
11233TIP3    H233645   5.654   3.616   0.953
11234TIP3   OH233646   4.371   0.899   2.403
11234TIP3    H133647   4.440   0.849   2.360
11234TIP3    H233648   4.335   0.839   2.469
11235TIP3   OH233649   5.884   2.192   2.485
11235TIP3    H133650   5.828   2.203   2.562
11235TIP3    H233651   5.926   2.277   2.474
11236TIP3   OH233652   1.927   6.267   4.852
11236TIP3    H133653   1.955   6.176   4.855
11236TIP3    H233654   2.000   6.313   4.811
11237TIP3   OH233655   3.792   0.441   5.903
11237TIP3    H133656   3.718   0.474   5.954
11237TIP3    H233657   3.753   0.413   5.820
11238TIP3   OH233658   7.609   6.295   3.290
11238TIP3    H133659   7.539   6.297   3.356
11238TIP3    H233660   7.619   6.387   3.264
11239TIP3   OH233661   1.211   4.225   0.504
11239TIP3    H133662   1.176   4.146   0.545
11239TIP3    H233663   1.276   4.258   0.566
11240TIP3   OH233664   4.857   5.065   3.724
11240TIP3    H133665   4.812   5.141   3.688
11240TIP3    H233666   4.896   5.022   3.648
11241TIP3   OH233667   1.955   2.139   6.042
11241TIP3    H133668   1.951   2.183   5.958
11241TIP3    H233669   1.958   2.046   6.020
11242TIP3   OH233670   1.928   6.719   4.684
11242TIP3    H133671   1.998   6.683   4.739
11242TIP3    H233672   1.954   6.694   4.595
11243TIP3   OH233673   2.186   3.647   5.189
11243TIP3    H133674   2.153   3.641   5.099
11243TIP3    H233675   2.111   3.628   5.244
11244TIP3   OH233676   4.534   2.880   3.163
11244TIP3    H133677   4.614   2.829   3.162
11244TIP3    H233678   4.542   2.938   3.239
11245TIP3   OH233679   5.926   5.727   5.903
11245TIP3    H133680   6.014   5.764   5.905
11245TIP3    H233681   5.872   5.790   5.951
11246TIP3   OH233682   0.786   4.823   5.308
11246TIP3    H133683   0.767   4.902   5.257
11246TIP3    H233684   0.704   4.774   5.308
11247TIP3   OH233685   7.810   6.718   0.063
11247TIP3    H133686   7.832   6.801   0.105
11247TIP3    H233687   7.757   6.672   0.128
11248TIP3   OH233688   4.566   6.662   3.946
11248TIP3    H133689   4.598   6.715   4.019
11248TIP3    H233690   4.563   6.722   3.872
11249TIP3   OH233691   6.508   1.982   2.416
11249TIP3    H133692   6.474   2.064   2.378
11249TIP3    H233693   6.524   2.003   2.508
11250TIP3   OH233694   5.831   1.545   2.744
11250TIP3    H133695   5.832   1.571   2.837
11250TIP3    H233696   5.748   1.579   2.711
11251TIP3   OH233697   6.625   4.834   4.098
11251TIP3    H133698   6.571   4.796   4.028
11251TIP3    H233699   6.707   4.786   4.092
11252TIP3   OH233700   5.376   1.397   1.943
11252TIP3    H133701   5.449   1.336   1.931
11252TIP3    H233702   5.298   1.341   1.940
11253TIP3   OH233703   1.612   6.868   0.538
11253TIP3    H133704   1.583   6.802   0.601
11253TIP3    H233705   1.661   6.931   0.590
11254TIP3   OH233706   8.056   0.055   2.476
11254TIP3    H133707   8.148   0.061   2.449
11254TIP3    H233708   8.053   0.099   2.561
11255TIP3   OH233709   3.560   4.466   0.967
11255TIP3    H133710   3.469   4.475   0.996
11255TIP3    H233711   3.563   4.381   0.924
11256TIP3   OH233712   1.686   2.248   6.468
11256TIP3    H133713   1.685   2.341   6.444
11256TIP3    H233714   1.775   2.219   6.447
11257TIP3   OH233715   2.634   6.519   4.993
11257TIP3    H133716   2.711   6.491   4.944
11257TIP3    H233717   2.588   6.578   4.933
11258TIP3   OH233718   4.527   2.645   1.906
11258TIP3    H133719   4.574   2.575   1.861
11258TIP3    H233720   4.582   2.723   1.894
11259TIP3   OH233721   3.281   3.647   5.334
11259TIP3    H133722   3.301   3.570   5.281
11259TIP3    H233723   3.292   3.617   5.425
11260TIP3   OH233724   2.811   1.259   4.572
11260TIP3    H133725   2.811   1.343   4.617
11260TIP3    H233726   2.793   1.281   4.480
11261TIP3   OH233727   7.242   0.291   6.663
11261TIP3    H133728   7.244   0.198   6.687
11261TIP3    H233729   7.186   0.332   6.730
11262TIP3   OH233730   3.219   7.223   3.579
11262TIP3    H133731   3.179   7.259   3.658
11262TIP3    H233732   3.235   7.299   3.523
11263TIP3   OH233733   2.736   5.430   1.668
11263TIP3    H133734   2.667   5.462   1.725
11263TIP3    H233735   2.790   5.507   1.650
11264TIP3   OH233736   6.480   1.908   6.652
11264TIP3    H133737   6.387   1.883   6.655
11264TIP3    H233738   6.515   1.859   6.578
11265TIP3   OH233739   0.627   0.032   5.758
11265TIP3    H133740   0.534   0.052   5.760
11265TIP3    H233741   0.638  -0.038   5.823
11266TIP3   OH233742   4.872   5.206   3.473
11266TIP3    H133743   4.865   5.289   3.520
11266TIP3    H233744   4.962   5.177   3.488
11267TIP3   OH233745   0.967   6.012   1.029
11267TIP3    H133746   0.980   5.975   1.117
11267TIP3    H233747   0.932   5.939   0.978
11268TIP3   OH233748   0.012   3.276   4.433
11268TIP3    H133749   0.068   3.206   4.400
11268TIP3    H233750  -0.044   3.233   4.497
11269TIP3   OH233751   4.108   0.681   0.247
11269TIP3    H133752   4.055   0.760   0.258
11269TIP3    H233753   4.163   0.677   0.325
11270TIP3   OH233754   3.803   2.640   1.989
11270TIP3    H133755   3.729   2.688   1.949
11270TIP3    H233756   3.845   2.597   1.915
11271TIP3   OH233757   3.757   3.559   1.887
11271TIP3    H133758   3.742   3.470   1.919
11271TIP3    H233759   3.777   3.610   1.966
11272TIP3   OH233760   0.027   4.175   2.442
11272TIP3    H133761   0.064   4.257   2.474
11272TIP3    H233762  -0.060   4.198   2.411
11273TIP3   OH233763   3.429   0.645   2.981
11273TIP3    H133764   3.516   0.622   2.947
11273TIP3    H233765   3.369   0.601   2.921
11274TIP3   OH233766   7.294   6.999   3.143
11274TIP3    H133767   7.278   6.920   3.195
11274TIP3    H233768   7.284   6.971   3.052
11275TIP3   OH233769   3.380   1.264   3.495
11275TIP3    H133770   3.407   1.197   3.431
11275TIP3    H233771   3.287   1.245   3.511
11276TIP3   OH233772   0.823   4.657   1.544
11276TIP3    H133773   0.876   4.645   1.465
11276TIP3    H233774   0.884   4.694   1.608
11277TIP3   OH233775   7.912   7.308   4.118
11277TIP3    H133776   7.981   7.350   4.066
11277TIP3    H233777   7.928   7.214   4.107
11278TIP3   OH233778   4.211   1.430   5.477
11278TIP3    H133779   4.227   1.512   5.430
11278TIP3    H233780   4.253   1.364   5.422
11279TIP3   OH233781   3.699   4.818   4.875
11279TIP3    H133782   3.787   4.782   4.868
11279TIP3    H233783   3.665   4.815   4.786
11280TIP3   OH233784   0.993   3.099   2.162
11280TIP3    H133785   0.930   3.165   2.132
11280TIP3    H233786   0.986   3.101   2.258
11281TIP3   OH233787   4.053   1.286   3.441
11281TIP3    H133788   3.961   1.265   3.452
11281TIP3    H233789   4.062   1.375   3.473
11282TIP3   OH233790   5.023   5.353   2.295
11282TIP3    H133791   4.980   5.438   2.294
11282TIP3    H233792   5.081   5.356   2.371
11283TIP3   OH233793   1.372   5.085   2.698
11283TIP3    H133794   1.306   5.112   2.634
11283TIP3    H233795   1.324   5.078   2.780
11284TIP3   OH233796   0.784   7.197   3.847
11284TIP3    H133797   0.775   7.284   3.807
11284TIP3    H233798   0.699   7.156   3.832
11285TIP3   OH233799   2.980   2.954   4.417
11285TIP3    H133800   3.044   2.922   4.480
11285TIP3    H233801   3.025   2.953   4.333
11286TIP3   OH233802   0.528   6.185   3.486
11286TIP3    H133803   0.440   6.155   3.461
11286TIP3    H233804   0.587   6.121   3.446
11287TIP3   OH233805   6.553   6.986   0.876
11287TIP3    H133806   6.532   7.014   0.964
11287TIP3    H233807   6.473   6.999   0.826
11288TIP3   OH233808   6.674   5.307   6.366
11288TIP3    H133809   6.642   5.380   6.419
11288TIP3    H233810   6.640   5.229   6.410
11289TIP3   OH233811   6.787   6.273   1.492
11289TIP3    H133812   6.764   6.327   1.416
11289TIP3    H233813   6.729   6.198   1.487
11290TIP3   OH233814   6.382   4.876   5.514
11290TIP3    H133815   6.317   4.946   5.505
11290TIP3    H233816   6.456   4.906   5.461
11291TIP3   OH233817   5.550   2.280   4.509
11291TIP3    H133818   5.520   2.320   4.590
11291TIP3    H233819   5.548   2.352   4.445
11292TIP3   OH233820   1.775   4.542   3.009
11292TIP3    H133821   1.757   4.581   2.923
11292TIP3    H233822   1.694   4.497   3.032
11293TIP3   OH233823   7.422   1.937   0.768
11293TIP3    H133824   7.327   1.935   0.779
11293TIP3    H233825   7.455   1.872   0.831
11294TIP3   OH233826   5.950   0.567   5.502
11294TIP3    H133827   5.998   0.606   5.429
11294TIP3    H233828   5.903   0.493   5.464
11295TIP3   OH233829   4.246   6.336   2.521
11295TIP3    H133830   4.292   6.372   2.445
11295TIP3    H233831   4.166   6.388   2.528
11296TIP3   OH233832   5.126   4.779   4.378
11296TIP3    H133833   5.185   4.716   4.337
11296TIP3    H233834   5.185   4.846   4.413
11297TIP3   OH233835   8.052   2.646   5.324
11297TIP3    H133836   7.965   2.615   5.350
11297TIP3    H233837   8.038   2.735   5.294
11298TIP3   OH233838   1.502   6.589   1.884
11298TIP3    H133839   1.581   6.642   1.871
11298TIP3    H233840   1.463   6.581   1.797
11299TIP3   OH233841   8.170   3.197   4.828
11299TIP3    H133842   8.191   3.206   4.921
11299TIP3    H233843   8.245   3.149   4.791
11300TIP3   OH233844   5.746   7.298   3.620
11300TIP3    H133845   5.804   7.309   3.695
11300TIP3    H233846   5.803   7.300   3.544
11301TIP3   OH233847   0.454   7.572   4.845
11301TIP3    H133848   0.486   7.635   4.781
11301TIP3    H233849   0.501   7.491   4.825
11302TIP3   OH233850   5.637   7.758   0.036
11302TIP3    H133851   5.628   7.772   0.131
11302TIP3    H233852   5.708   7.694   0.028
11303TIP3   OH233853   2.015   6.617   6.738
11303TIP3    H133854   2.090   6.674   6.756
11303TIP3    H233855   2.047   6.529   6.757
11304TIP3   OH233856   6.073   6.471   2.253
11304TIP3    H133857   6.094   6.379   2.235
11304TIP3    H233858   6.107   6.486   2.341
11305TIP3   OH233859   6.107   2.159   1.696
11305TIP3    H133860   6.055   2.094   1.744
11305TIP3    H233861   6.049   2.235   1.687
11306TIP3   OH233862   2.244   7.586   2.829
11306TIP3    H133863   2.194   7.506   2.810
11306TIP3    H233864   2.195   7.656   2.785
11307TIP3   OH233865   0.149   4.435   5.840
11307TIP3    H133866   0.141   4.530   5.836
11307TIP3    H233867   0.243   4.418   5.826
11308TIP3   OH233868   4.962   0.995   5.891
11308TIP3    H133869   4.913   0.930   5.942
11308TIP3    H233870   4.988   1.060   5.956
11309TIP3   OH233871   7.600   4.245   1.821
11309TIP3    H133872   7.680   4.296   1.837
11309TIP3    H233873   7.621   4.157   1.851
11310TIP3   OH233874   2.660   3.596   4.882
11310TIP3    H133875   2.648   3.649   4.961
11310TIP3    H233876   2.589   3.531   4.885
11311TIP3   OH233877   3.688   1.921   0.450
11311TIP3    H133878   3.647   1.933   0.364
11311TIP3    H233879   3.668   2.001   0.498
11312TIP3   OH233880   1.079   3.953   3.379
11312TIP3    H133881   1.135   3.876   3.392
11312TIP3    H233882   1.037   3.965   3.464
11313TIP3   OH233883   3.779   4.137   3.488
11313TIP3    H133884   3.687   4.152   3.509
11313TIP3    H233885   3.814   4.224   3.468
11314TIP3   OH233886   1.473   7.236   5.332
11314TIP3    H133887   1.428   7.320   5.320
11314TIP3    H233888   1.455   7.188   5.252
11315TIP3   OH233889   4.296   1.432   5.777
11315TIP3    H133890   4.218   1.383   5.804
11315TIP3    H233891   4.315   1.399   5.689
11316TIP3   OH233892   3.558   6.345   5.189
11316TIP3    H133893   3.512   6.339   5.106
11316TIP3    H233894   3.608   6.263   5.195
11317TIP3   OH233895   2.584   2.892   1.046
11317TIP3    H133896   2.498   2.851   1.036
11317TIP3    H233897   2.605   2.925   0.959
11318TIP3   OH233898   6.207   2.085   6.484
11318TIP3    H133899   6.207   2.025   6.559
11318TIP3    H233900   6.282   2.057   6.432
11319TIP3   OH233901   7.362   3.821   5.768
11319TIP3    H133902   7.440   3.870   5.742
11319TIP3    H233903   7.305   3.886   5.809
11320TIP3   OH233904   1.770   7.429   4.069
11320TIP3    H133905   1.735   7.494   4.007
11320TIP3    H233906   1.719   7.350   4.051
11321TIP3   OH233907   6.206   3.683   4.366
11321TIP3    H133908   6.279   3.727   4.409
11321TIP3    H233909   6.164   3.632   4.435
11322TIP3   OH233910   2.797   2.974   0.464
11322TIP3    H133911   2.735   3.045   0.447
11322TIP3    H233912   2.753   2.895   0.433
11323TIP3   OH233913   2.876   4.200   3.083
11323TIP3    H133914   2.791   4.206   3.038
11323TIP3    H233915   2.940   4.215   3.014
11324TIP3   OH233916   7.129   7.522   2.157
11324TIP3    H133917   7.081   7.574   2.222
11324TIP3    H233918   7.186   7.586   2.114
11325TIP3   OH233919   5.187   2.957   4.261
11325TIP3    H133920   5.117   2.963   4.196
11325TIP3    H233921   5.203   2.863   4.270
11326TIP3   OH233922   7.814   2.777   2.012
11326TIP3    H133923   7.875   2.785   2.085
11326TIP3    H233924   7.803   2.682   2.001
11327TIP3   OH233925   7.234   7.040   0.281
11327TIP3    H133926   7.226   6.989   0.362
11327TIP3    H233927   7.322   7.077   0.284
11328TIP3   OH233928   6.344   0.337   3.643
11328TIP3    H133929   6.381   0.305   3.725
11328TIP3    H233930   6.283   0.406   3.669
11329TIP3   OH233931   2.181   0.453   0.412
11329TIP3    H133932   2.202   0.425   0.323
11329TIP3    H233933   2.246   0.409   0.467
11330TIP3   OH233934   2.843   7.411   1.668
11330TIP3    H133935   2.886   7.400   1.583
11330TIP3    H233936   2.790   7.490   1.658
11331TIP3   OH233937   0.849   7.685   6.398
11331TIP3    H133938   0.834   7.692   6.303
11331TIP3    H233939   0.942   7.667   6.406
11332TIP3   OH233940   2.369   5.980   0.008
11332TIP3    H133941   2.424   6.053  -0.018
11332TIP3    H233942   2.302   6.018   0.064
11333TIP3   OH233943   5.836   5.153   6.221
11333TIP3    H133944   5.806   5.066   6.195
11333TIP3    H233945   5.763   5.211   6.200
11334TIP3   OH233946   7.829   5.755   2.409
11334TIP3    H133947   7.831   5.798   2.324
11334TIP3    H233948   7.737   5.739   2.427
11335TIP3   OH233949   0.395   5.111   1.818
11335TIP3    H133950   0.398   5.043   1.750
11335TIP3    H233951   0.456   5.178   1.788
11336TIP3   OH233952   6.522   1.299   6.774
11336TIP3    H133953   6.538   1.360   6.702
11336TIP3    H233954   6.609   1.278   6.808
11337TIP3   OH233955   0.794   0.851   0.405
11337TIP3    H133956   0.857   0.788   0.370
11337TIP3    H233957   0.794   0.836   0.499
11338TIP3   OH233958   1.430   2.844   1.780
11338TIP3    H133959   1.449   2.916   1.840
11338TIP3    H233960   1.374   2.883   1.712
11339TIP3   OH233961   7.664   4.029   5.938
11339TIP3    H133962   7.628   3.940   5.935
11339TIP3    H233963   7.735   4.024   6.002
11340TIP3   OH233964   4.861   1.898   1.870
11340TIP3    H133965   4.839   1.991   1.876
11340TIP3    H233966   4.947   1.891   1.911
11341TIP3   OH233967   6.245   0.045   6.158
11341TIP3    H133968   6.172   0.067   6.100
11341TIP3    H233969   6.281   0.129   6.185
11342TIP3   OH233970   0.794   3.774   5.051
11342TIP3    H133971   0.752   3.689   5.066
11342TIP3    H233972   0.723   3.832   5.025
11343TIP3   OH233973   4.570   7.189   3.131
11343TIP3    H133974   4.605   7.278   3.141
11343TIP3    H233975   4.646   7.137   3.106
11344TIP3   OH233976   1.676   1.352   5.579
11344TIP3    H133977   1.622   1.395   5.645
11344TIP3    H233978   1.622   1.279   5.547
11345TIP3   OH233979   5.711   2.045   3.828
11345TIP3    H133980   5.675   1.959   3.847
11345TIP3    H233981   5.708   2.052   3.732
11346TIP3   OH233982   3.037   4.231   0.082
11346TIP3    H133983   3.006   4.236   0.172
11346TIP3    H233984   2.991   4.301   0.036
11347TIP3   OH233985   3.420   3.024   2.272
11347TIP3    H133986   3.427   3.105   2.321
11347TIP3    H233987   3.368   3.047   2.195
11348TIP3   OH233988   4.844   5.829   4.021
11348TIP3    H133989   4.813   5.918   4.039
11348TIP3    H233990   4.872   5.796   4.106
11349TIP3   OH233991   8.093   1.426   0.913
11349TIP3    H133992   8.095   1.456   0.822
11349TIP3    H233993   8.014   1.373   0.920
11350TIP3   OH233994   1.241   6.367   3.597
11350TIP3    H133995   1.278   6.356   3.510
11350TIP3    H233996   1.231   6.462   3.607
11351TIP3   OH233997   7.592   7.555   1.311
11351TIP3    H133998   7.632   7.485   1.362
11351TIP3    H233999   7.665   7.614   1.290
11352TIP3   OH234000   0.364   4.506   3.533
11352TIP3    H134001   0.454   4.517   3.563
11352TIP3    H234002   0.350   4.576   3.470
11353TIP3   OH234003   4.249   7.465   1.995
11353TIP3    H134004   4.309   7.512   2.053
11353TIP3    H234005   4.163   7.502   2.015
11354TIP3   OH234006   5.969   2.960   2.742
11354TIP3    H134007   5.976   2.958   2.646
11354TIP3    H234008   6.053   2.924   2.772
11355TIP3   OH234009   1.829   1.685   4.969
11355TIP3    H134010   1.855   1.678   5.061
11355TIP3    H234011   1.813   1.779   4.956
11356TIP3   OH234012   6.652   4.852   1.291
11356TIP3    H134013   6.719   4.796   1.329
11356TIP3    H234014   6.574   4.834   1.343
11357TIP3   OH234015   7.191   0.781   0.670
11357TIP3    H134016   7.207   0.770   0.576
11357TIP3    H234017   7.102   0.816   0.675
11358TIP3   OH234018   7.553   6.197   2.106
11358TIP3    H134019   7.484   6.239   2.055
11358TIP3    H234020   7.622   6.179   2.043
11359TIP3   OH234021   0.518   4.109   4.464
11359TIP3    H134022   0.547   4.086   4.553
11359TIP3    H234023   0.430   4.144   4.476
11360TIP3   OH234024   5.771   7.487   1.954
11360TIP3    H134025   5.810   7.420   1.899
11360TIP3    H234026   5.714   7.536   1.895
11361TIP3   OH234027   1.094   1.908   1.981
11361TIP3    H134028   1.112   1.995   1.945
11361TIP3    H234029   1.094   1.849   1.906
11362TIP3   OH234030   7.269   6.021   5.778
11362TIP3    H134031   7.200   6.039   5.715
11362TIP3    H234032   7.348   6.055   5.737
11363TIP3   OH234033   6.269   6.748   4.976
11363TIP3    H134034   6.212   6.810   4.930
11363TIP3    H234035   6.357   6.784   4.965
11364TIP3   OH234036   5.362   4.562   6.593
11364TIP3    H134037   5.416   4.502   6.541
11364TIP3    H234038   5.425   4.606   6.650
11365TIP3   OH234039   3.516   3.828   0.742
11365TIP3    H134040   3.452   3.858   0.807
11365TIP3    H234041   3.588   3.792   0.794
11366TIP3   OH234042   4.817   4.365   1.881
11366TIP3    H134043   4.893   4.310   1.866
11366TIP3    H234044   4.844   4.424   1.952
11367TIP3   OH234045   2.439   0.243   6.263
11367TIP3    H134046   2.410   0.333   6.249
11367TIP3    H234047   2.481   0.245   6.349
11368TIP3   OH234048   5.540   7.519   4.537
11368TIP3    H134049   5.558   7.523   4.631
11368TIP3    H234050   5.481   7.444   4.527
11369TIP3   OH234051   2.959   2.820   3.525
11369TIP3    H134052   2.940   2.875   3.601
11369TIP3    H234053   3.005   2.744   3.560
11370TIP3   OH234054   3.743   3.553   5.480
11370TIP3    H134055   3.818   3.556   5.422
11370TIP3    H234056   3.773   3.503   5.556
11371TIP3   OH234057   1.045   2.273   6.264
11371TIP3    H134058   1.086   2.267   6.350
11371TIP3    H234059   1.078   2.196   6.217
11372TIP3   OH234060   1.582   4.057   0.411
11372TIP3    H134061   1.513   4.016   0.359
11372TIP3    H234062   1.649   3.988   0.420
11373TIP3   OH234063   4.121   6.632   0.940
11373TIP3    H134064   4.091   6.571   0.872
11373TIP3    H234065   4.217   6.627   0.936
11374TIP3   OH234066   1.195   3.847   5.550
11374TIP3    H134067   1.179   3.767   5.600
11374TIP3    H234068   1.278   3.831   5.505
11375TIP3   OH234069   1.359   7.544   3.281
11375TIP3    H134070   1.287   7.537   3.218
11375TIP3    H234071   1.433   7.576   3.230
11376TIP3   OH234072   1.024   2.749   0.402
11376TIP3    H134073   0.929   2.745   0.415
11376TIP3    H234074   1.041   2.839   0.374
11377TIP3   OH234075   2.480   2.533   0.882
11377TIP3    H134076   2.470   2.471   0.954
11377TIP3    H234077   2.392   2.564   0.863
11378TIP3   OH234078   4.987   5.859   5.361
11378TIP3    H134079   4.919   5.793   5.347
11378TIP3    H234080   5.054   5.813   5.411
11379TIP3   OH234081   6.208   6.531   2.523
11379TIP3    H134082   6.216   6.479   2.603
11379TIP3    H234083   6.292   6.574   2.512
11380TIP3   OH234084   8.232   4.854   2.954
11380TIP3    H134085   8.287   4.832   3.029
11380TIP3    H234086   8.294   4.870   2.883
11381TIP3   OH234087   2.327   7.340   5.865
11381TIP3    H134088   2.249   7.376   5.824
11381TIP3    H234089   2.319   7.364   5.957
11382TIP3   OH234090   3.565   2.928   4.061
11382TIP3    H134091   3.577   2.853   4.003
11382TIP3    H234092   3.470   2.941   4.064
11383TIP3   OH234093   6.230   2.863   5.576
11383TIP3    H134094   6.197   2.952   5.563
11383TIP3    H234095   6.310   2.874   5.628
11384TIP3   OH234096   7.504   2.506   0.646
11384TIP3    H134097   7.530   2.588   0.687
11384TIP3    H234098   7.457   2.532   0.567
11385TIP3   OH234099   0.236   0.796   2.075
11385TIP3    H134100   0.182   0.723   2.044
11385TIP3    H234101   0.175   0.850   2.125
11386TIP3   OH234102   7.570   1.531   4.861
11386TIP3    H134103   7.530   1.523   4.775
11386TIP3    H234104   7.650   1.478   4.856
11387TIP3   OH234105   7.044   6.459   1.494
11387TIP3    H134106   6.997   6.541   1.509
11387TIP3    H234107   7.002   6.421   1.417
11388TIP3   OH234108   5.776   2.754   1.885
11388TIP3    H134109   5.766   2.692   1.813
11388TIP3    H234110   5.822   2.829   1.846
11389TIP3   OH234111   7.880   4.275   1.860
11389TIP3    H134112   7.909   4.366   1.866
11389TIP3    H234113   7.955   4.224   1.888
11390TIP3   OH234114   7.213   1.341   3.105
11390TIP3    H134115   7.118   1.332   3.094
11390TIP3    H234116   7.250   1.315   3.021
11391TIP3   OH234117   6.956   1.764   4.638
11391TIP3    H134118   6.886   1.698   4.644
11391TIP3    H234119   7.035   1.718   4.667
11392TIP3   OH234120   2.521   2.392   3.493
11392TIP3    H134121   2.522   2.485   3.518
11392TIP3    H234122   2.440   2.383   3.442
11393TIP3   OH234123   2.530   0.333   3.082
11393TIP3    H134124   2.467   0.379   3.139
11393TIP3    H234125   2.597   0.399   3.062
11394TIP3   OH234126   7.594   2.160   2.056
11394TIP3    H134127   7.659   2.099   2.090
11394TIP3    H234128   7.628   2.246   2.081
11395TIP3   OH234129   7.811   7.486   3.101
11395TIP3    H134130   7.739   7.457   3.046
11395TIP3    H234131   7.812   7.424   3.174
11396TIP3   OH234132   7.287   6.833   0.469
11396TIP3    H134133   7.370   6.806   0.430
11396TIP3    H234134   7.247   6.751   0.500
11397TIP3   OH234135   3.576   0.506   6.048
11397TIP3    H134136   3.542   0.479   6.134
11397TIP3    H234137   3.573   0.602   6.050
11398TIP3   OH234138   0.945   6.086   3.749
11398TIP3    H134139   0.954   6.104   3.843
11398TIP3    H234140   0.852   6.073   3.736
11399TIP3   OH234141   2.382   1.212   3.074
11399TIP3    H134142   2.289   1.224   3.091
11399TIP3    H234143   2.409   1.291   3.027
11400TIP3   OH234144   2.265   5.461   4.854
11400TIP3    H134145   2.295   5.551   4.870
11400TIP3    H234146   2.325   5.428   4.787
11401TIP3   OH234147   3.771   3.511   3.903
11401TIP3    H134148   3.803   3.601   3.918
11401TIP3    H234149   3.845   3.467   3.862
11402TIP3   OH234150   2.248   3.254   5.052
11402TIP3    H134151   2.305   3.331   5.043
11402TIP3    H234152   2.162   3.290   5.073
11403TIP3   OH234153   4.911   6.957   2.138
11403TIP3    H134154   4.820   6.978   2.157
11403TIP3    H234155   4.947   7.037   2.099
11404TIP3   OH234156   1.241   4.105   0.173
11404TIP3    H134157   1.236   4.198   0.195
11404TIP3    H234158   1.214   4.060   0.252
11405TIP3   OH234159   4.132   7.209   1.941
11405TIP3    H134160   4.134   7.168   2.027
11405TIP3    H234161   4.205   7.271   1.943
11406TIP3   OH234162   1.838   4.831   4.354
11406TIP3    H134163   1.896   4.786   4.415
11406TIP3    H234164   1.818   4.914   4.398
11407TIP3   OH234165   5.082   5.596   0.434
11407TIP3    H134166   5.022   5.540   0.386
11407TIP3    H234167   5.144   5.628   0.369
11408TIP3   OH234168   3.868   5.047   2.347
11408TIP3    H134169   3.889   5.130   2.304
11408TIP3    H234170   3.837   5.072   2.434
11409TIP3   OH234171   6.178   4.908   1.251
11409TIP3    H134172   6.165   4.813   1.243
11409TIP3    H234173   6.124   4.945   1.182
11410TIP3   OH234174   0.322   4.019   3.593
11410TIP3    H134175   0.346   3.979   3.510
11410TIP3    H234176   0.398   4.074   3.616
11411TIP3   OH234177   4.495   6.108   6.515
11411TIP3    H134178   4.501   6.150   6.429
11411TIP3    H234179   4.418   6.051   6.508
11412TIP3   OH234180   1.743   1.272   4.160
11412TIP3    H134181   1.724   1.286   4.253
11412TIP3    H234182   1.837   1.288   4.152
11413TIP3   OH234183   5.553   4.593   5.031
11413TIP3    H134184   5.638   4.583   4.988
11413TIP3    H234185   5.574   4.614   5.122
11414TIP3   OH234186   7.397   0.037   4.792
11414TIP3    H134187   7.485   0.054   4.822
11414TIP3    H234188   7.350   0.005   4.869
11415TIP3   OH234189   7.413   7.680   1.495
11415TIP3    H134190   7.488   7.683   1.435
11415TIP3    H234191   7.357   7.610   1.461
11416TIP3   OH234192   4.304   0.474   6.703
11416TIP3    H134193   4.257   0.395   6.730
11416TIP3    H234194   4.383   0.441   6.660
11417TIP3   OH234195   2.096   1.172   0.166
11417TIP3    H134196   2.129   1.261   0.170
11417TIP3    H234197   2.156   1.121   0.220
11418TIP3   OH234198   4.245   6.508   4.938
11418TIP3    H134199   4.259   6.460   5.019
11418TIP3    H234200   4.184   6.454   4.888
11419TIP3   OH234201   0.196   7.155   3.443
11419TIP3    H134202   0.167   7.183   3.530
11419TIP3    H234203   0.214   7.061   3.454
11420TIP3   OH234204   0.090   6.716   2.514
11420TIP3    H134205   0.118   6.628   2.540
11420TIP3    H234206   0.041   6.749   2.590
11421TIP3   OH234207   6.840   3.783   4.196
11421TIP3    H134208   6.837   3.705   4.251
11421TIP3    H234209   6.934   3.797   4.180
11422TIP3   OH234210   4.296   7.266   4.328
11422TIP3    H134211   4.332   7.233   4.410
11422TIP3    H234212   4.238   7.338   4.355
11423TIP3   OH234213   4.423   5.471   5.189
11423TIP3    H134214   4.454   5.440   5.104
11423TIP3    H234215   4.454   5.562   5.194
11424TIP3   OH234216   5.291   2.375   5.802
11424TIP3    H134217   5.244   2.359   5.720
11424TIP3    H234218   5.348   2.449   5.782
11425TIP3   OH234219   1.829   7.509   2.320
11425TIP3    H134220   1.751   7.476   2.365
11425TIP3    H234221   1.901   7.492   2.381
11426TIP3   OH234222   1.172   6.979   4.062
11426TIP3    H134223   1.208   6.909   4.116
11426TIP3    H234224   1.128   7.037   4.123
11427TIP3   OH234225   4.961   4.139   4.354
11427TIP3    H134226   4.932   4.222   4.317
11427TIP3    H234227   5.057   4.141   4.344
11428TIP3   OH234228   1.308   1.018   4.538
11428TIP3    H134229   1.263   1.018   4.453
11428TIP3    H234230   1.303   1.108   4.569
11429TIP3   OH234231   4.673   0.497   1.142
11429TIP3    H134232   4.724   0.554   1.199
11429TIP3    H234233   4.731   0.425   1.120
11430TIP3   OH234234   4.483   0.848   3.778
11430TIP3    H134235   4.434   0.912   3.830
11430TIP3    H234236   4.531   0.901   3.715
11431TIP3   OH234237   0.675   1.229   3.355
11431TIP3    H134238   0.656   1.278   3.275
11431TIP3    H234239   0.685   1.138   3.327
11432TIP3   OH234240   5.773   5.046   3.620
11432TIP3    H134241   5.844   5.008   3.671
11432TIP3    H234242   5.805   5.132   3.593
11433TIP3   OH234243   1.543   4.012   2.783
11433TIP3    H134244   1.598   4.086   2.756
11433TIP3    H234245   1.512   4.036   2.870
11434TIP3   OH234246   7.356   0.373   3.848
11434TIP3    H134247   7.316   0.409   3.769
11434TIP3    H234248   7.307   0.292   3.865
11435TIP3   OH234249   2.202   3.722   1.310
11435TIP3    H134250   2.276   3.686   1.360
11435TIP3    H234251   2.175   3.799   1.360
11436TIP3   OH234252   1.089   0.842   1.299
11436TIP3    H134253   1.001   0.866   1.329
11436TIP3    H234254   1.079   0.754   1.263
11437TIP3   OH234255   7.310   0.308   5.850
11437TIP3    H134256   7.295   0.335   5.759
11437TIP3    H234257   7.380   0.243   5.845
11438TIP3   OH234258   6.187   7.567   0.535
11438TIP3    H134259   6.147   7.493   0.489
11438TIP3    H234260   6.274   7.536   0.558
11439TIP3   OH234261   4.493   6.381   0.004
11439TIP3    H134262   4.570   6.407  -0.047
11439TIP3    H234263   4.524   6.376   0.094
11440TIP3   OH234264   5.807   6.363   0.391
11440TIP3    H134265   5.875   6.360   0.324
11440TIP3    H234266   5.734   6.312   0.354
11441TIP3   OH234267   4.306   5.172   5.671
11441TIP3    H134268   4.291   5.184   5.577
11441TIP3    H234269   4.392   5.130   5.676
11442TIP3   OH234270   7.862   3.294   6.702
11442TIP3    H134271   7.909   3.211   6.694
11442TIP3    H234272   7.789   3.286   6.641
11443TIP3   OH234273   6.437   2.901   4.409
11443TIP3    H134274   6.426   2.971   4.474
11443TIP3    H234275   6.496   2.938   4.344
11444TIP3   OH234276   5.645   2.212   6.381
11444TIP3    H134277   5.615   2.274   6.315
11444TIP3    H234278   5.629   2.126   6.343
11445TIP3   OH234279   4.922   7.599   0.339
11445TIP3    H134280   4.905   7.583   0.246
11445TIP3    H234281   4.987   7.669   0.340
11446TIP3   OH234282   6.977   0.949   3.042
11446TIP3    H134283   7.007   0.984   3.126
11446TIP3    H234284   6.976   0.854   3.055
11447TIP3   OH234285   6.015   0.584   1.286
11447TIP3    H134286   6.089   0.595   1.346
11447TIP3    H234287   6.046   0.519   1.222
11448TIP3   OH234288   7.764   4.264   4.511
11448TIP3    H134289   7.710   4.342   4.521
11448TIP3    H234290   7.721   4.213   4.442
11449TIP3   OH234291   2.884   3.275   3.397
11449TIP3    H134292   2.874   3.370   3.395
11449TIP3    H234293   2.963   3.260   3.449
11450TIP3   OH234294   6.229   7.494   6.344
11450TIP3    H134295   6.255   7.541   6.423
11450TIP3    H234296   6.143   7.457   6.366
11451TIP3   OH234297   7.232   2.970   1.050
11451TIP3    H134298   7.144   3.006   1.064
11451TIP3    H234299   7.229   2.884   1.091
11452TIP3   OH234300   7.500   7.254   2.460
11452TIP3    H134301   7.504   7.255   2.364
11452TIP3    H234302   7.572   7.310   2.488
11453TIP3   OH234303   8.206   2.403   5.276
11453TIP3    H134304   8.187   2.369   5.363
11453TIP3    H234305   8.165   2.489   5.274
11454TIP3   OH234306   5.970   7.727   2.921
11454TIP3    H134307   5.991   7.697   3.010
11454TIP3    H234308   6.031   7.800   2.906
11455TIP3   OH234309   3.289   7.735   0.738
11455TIP3    H134310   3.347   7.662   0.719
11455TIP3    H234311   3.314   7.764   0.826
11456TIP3   OH234312   3.747   4.825   6.521
11456TIP3    H134313   3.746   4.879   6.441
11456TIP3    H234314   3.669   4.853   6.569
11457TIP3   OH234315   1.926   6.013  -0.013
11457TIP3    H134316   1.924   6.001   0.082
11457TIP3    H234317   1.999   5.958  -0.043
11458TIP3   OH234318   6.807   7.427   6.673
11458TIP3    H134319   6.841   7.381   6.750
11458TIP3    H234320   6.854   7.388   6.600
11459TIP3   OH234321   4.072   5.590   1.702
11459TIP3    H134322   4.000   5.635   1.746
11459TIP3    H234323   4.141   5.657   1.696
11460TIP3   OH234324   7.895   4.571   1.378
11460TIP3    H134325   7.803   4.556   1.402
11460TIP3    H234326   7.924   4.639   1.439
11461TIP3   OH234327   0.145   4.140   0.629
11461TIP3    H134328   0.105   4.219   0.666
11461TIP3    H234329   0.076   4.074   0.632
11462TIP3   OH234330   6.170   2.044   4.775
11462TIP3    H134331   6.221   2.005   4.846
11462TIP3    H234332   6.118   2.112   4.818
11463TIP3   OH234333   5.459   1.171   1.264
11463TIP3    H134334   5.498   1.206   1.184
11463TIP3    H234335   5.476   1.077   1.260
11464TIP3   OH234336   7.862   2.528   5.659
11464TIP3    H134337   7.828   2.456   5.711
11464TIP3    H234338   7.808   2.528   5.580
11465TIP3   OH234339   1.937   1.177   0.573
11465TIP3    H134340   1.939   1.248   0.637
11465TIP3    H234341   2.009   1.196   0.513
11466TIP3   OH234342   6.536   1.687   6.054
11466TIP3    H134343   6.573   1.774   6.074
11466TIP3    H234344   6.582   1.628   6.114
11467TIP3   OH234345   5.026   3.525   4.721
11467TIP3    H134346   5.097   3.471   4.685
11467TIP3    H234347   5.061   3.614   4.720
11468TIP3   OH234348   2.820   6.010   3.451
11468TIP3    H134349   2.821   5.918   3.476
11468TIP3    H234350   2.852   6.057   3.528
11469TIP3   OH234351   3.846   2.918   3.173
11469TIP3    H134352   3.937   2.923   3.201
11469TIP3    H234353   3.809   2.845   3.223
11470TIP3   OH234354   3.134   1.699   1.047
11470TIP3    H134355   3.164   1.618   1.005
11470TIP3    H234356   3.206   1.725   1.104
11471TIP3   OH234357   4.355   2.342   5.099
11471TIP3    H134358   4.293   2.323   5.169
11471TIP3    H234359   4.354   2.438   5.092
11472TIP3   OH234360   3.202   3.557   3.824
11472TIP3    H134361   3.222   3.563   3.918
11472TIP3    H234362   3.285   3.533   3.783
11473TIP3   OH234363   6.360   0.100   0.836
11473TIP3    H134364   6.374   0.181   0.885
11473TIP3    H234365   6.386   0.030   0.897
11474TIP3   OH234366   7.321   1.942   4.359
11474TIP3    H134367   7.234   1.923   4.394
11474TIP3    H234368   7.319   2.036   4.339
11475TIP3   OH234369   8.056   7.813   2.682
11475TIP3    H134370   7.972   7.849   2.655
11475TIP3    H234371   8.070   7.738   2.624
11476TIP3   OH234372   6.831   2.563   6.599
11476TIP3    H134373   6.788   2.488   6.559
11476TIP3    H234374   6.780   2.580   6.679
11477TIP3   OH234375   1.838   5.341   6.731
11477TIP3    H134376   1.870   5.251   6.722
11477TIP3    H234377   1.755   5.342   6.682
11478TIP3   OH234378   1.635   5.620   2.156
11478TIP3    H134379   1.683   5.556   2.209
11478TIP3    H234380   1.669   5.705   2.183
11479TIP3   OH234381   6.144   6.148   4.996
11479TIP3    H134382   6.155   6.073   4.938
11479TIP3    H234383   6.052   6.173   4.985
11480TIP3   OH234384   1.362   7.623   2.151
11480TIP3    H134385   1.346   7.534   2.180
11480TIP3    H234386   1.403   7.613   2.065
11481TIP3   OH234387   0.054   4.630   3.118
11481TIP3    H134388   0.098   4.592   3.042
11481TIP3    H234389   0.111   4.606   3.192
11482TIP3   OH234390   5.892   0.473   4.867
11482TIP3    H134391   5.804   0.446   4.894
11482TIP3    H234392   5.931   0.511   4.946
11483TIP3   OH234393   0.576   4.769   2.991
11483TIP3    H134394   0.546   4.687   2.951
11483TIP3    H234395   0.646   4.742   3.051
11484TIP3   OH234396   2.374   2.461   4.237
11484TIP3    H134397   2.369   2.428   4.147
11484TIP3    H234398   2.400   2.385   4.289
11485TIP3   OH234399   0.047   4.661   2.339
11485TIP3    H134400   0.132   4.619   2.333
11485TIP3    H234401   0.027   4.662   2.433
11486TIP3   OH234402   7.527   6.906   3.330
11486TIP3    H134403   7.562   6.911   3.419
11486TIP3    H234404   7.493   6.994   3.313
11487TIP3   OH234405   5.129   7.277   6.615
11487TIP3    H134406   5.107   7.184   6.617
11487TIP3    H234407   5.147   7.299   6.706
11488TIP3   OH234408   0.237   1.360   6.756
11488TIP3    H134409   0.269   1.336   6.669
11488TIP3    H234410   0.144   1.336   6.754
11489TIP3   OH234411   6.950   3.530   4.337
11489TIP3    H134412   6.898   3.452   4.352
11489TIP3    H234413   7.019   3.502   4.276
11490TIP3   OH234414   0.644   5.983   3.839
11490TIP3    H134415   0.629   5.921   3.767
11490TIP3    H234416   0.599   6.062   3.812
11491TIP3   OH234417   4.576   2.777   4.193
11491TIP3    H134418   4.567   2.865   4.157
11491TIP3    H234419   4.489   2.754   4.225
11492TIP3   OH234420   5.194   1.751   0.540
11492TIP3    H134421   5.231   1.709   0.463
11492TIP3    H234422   5.222   1.697   0.613
11493TIP3   OH234423   7.085   1.547   4.035
11493TIP3    H134424   7.102   1.459   4.001
11493TIP3    H234425   7.105   1.541   4.128
11494TIP3   OH234426   5.172   7.320   0.191
11494TIP3    H134427   5.231   7.360   0.255
11494TIP3    H234428   5.135   7.393   0.142
11495TIP3   OH234429   0.171   1.582   6.346
11495TIP3    H134430   0.165   1.621   6.259
11495TIP3    H234431   0.099   1.622   6.396
11496TIP3   OH234432   1.553   3.675   2.653
11496TIP3    H134433   1.560   3.609   2.584
11496TIP3    H234434   1.463   3.706   2.648
11497TIP3   OH234435   3.994   3.865   4.889
11497TIP3    H134436   3.967   3.901   4.804
11497TIP3    H234437   4.088   3.882   4.893
11498TIP3   OH234438   4.870   3.540   6.019
11498TIP3    H134439   4.795   3.558   5.962
11498TIP3    H234440   4.946   3.541   5.960
11499TIP3   OH234441   6.235   5.650   4.926
11499TIP3    H134442   6.276   5.565   4.908
11499TIP3    H234443   6.157   5.651   4.871
11500TIP3   OH234444   6.919   2.813   5.001
11500TIP3    H134445   6.826   2.817   4.980
11500TIP3    H234446   6.953   2.741   4.947
11501TIP3   OH234447   5.414   4.926   1.422
11501TIP3    H134448   5.465   4.974   1.487
11501TIP3    H234449   5.340   4.983   1.402
11502TIP3   OH234450   5.098   0.544   3.476
11502TIP3    H134451   5.036   0.475   3.451
11502TIP3    H234452   5.156   0.502   3.539
11503TIP3   OH234453   2.236   4.240   4.372
11503TIP3    H134454   2.299   4.312   4.380
11503TIP3    H234455   2.158   4.280   4.335
11504TIP3   OH234456   0.529   2.699   1.460
11504TIP3    H134457   0.532   2.606   1.437
11504TIP3    H234458   0.471   2.738   1.394
11505TIP3   OH234459   7.017   2.066   6.276
11505TIP3    H134460   7.003   2.029   6.363
11505TIP3    H234461   7.111   2.056   6.260
11506TIP3   OH234462   7.170   2.392   4.526
11506TIP3    H134463   7.230   2.317   4.521
11506TIP3    H234464   7.119   2.388   4.445
11507TIP3   OH234465   2.791   2.974   4.999
11507TIP3    H134466   2.846   3.043   4.962
11507TIP3    H234467   2.707   2.983   4.954
11508TIP3   OH234468   7.137   4.146   1.631
11508TIP3    H134469   7.155   4.069   1.576
11508TIP3    H234470   7.197   4.136   1.705
11509TIP3   OH234471   7.487   6.043   0.651
11509TIP3    H134472   7.519   6.130   0.673
11509TIP3    H234473   7.564   5.986   0.663
11510TIP3   OH234474   4.352   2.318   5.811
11510TIP3    H134475   4.280   2.379   5.826
11510TIP3    H234476   4.344   2.254   5.882
11511TIP3   OH234477   0.062   4.291   1.965
11511TIP3    H134478   0.114   4.213   1.985
11511TIP3    H234479   0.015   4.267   1.884
11512TIP3   OH234480   5.404   5.487   4.826
11512TIP3    H134481   5.428   5.419   4.890
11512TIP3    H234482   5.472   5.481   4.759
11513TIP3   OH234483   5.158   5.421   4.660
11513TIP3    H134484   5.204   5.361   4.602
11513TIP3    H234485   5.227   5.462   4.712
11514TIP3   OH234486   5.744   0.027   5.809
11514TIP3    H134487   5.766   0.120   5.815
11514TIP3    H234488   5.825  -0.019   5.829
11515TIP3   OH234489   3.806   5.950   2.453
11515TIP3    H134490   3.808   6.007   2.376
11515TIP3    H234491   3.816   5.861   2.417
11516TIP3   OH234492   3.521   7.464   3.695
11516TIP3    H134493   3.460   7.477   3.767
11516TIP3    H234494   3.533   7.552   3.659
11517TIP3   OH234495   0.468   1.699   5.697
11517TIP3    H134496   0.560   1.689   5.673
11517TIP3    H234497   0.456   1.639   5.771
11518TIP3   OH234498   4.124   2.560   4.382
11518TIP3    H134499   4.076   2.605   4.451
11518TIP3    H234500   4.192   2.510   4.428
11519TIP3   OH234501   5.427   5.318   0.580
11519TIP3    H134502   5.395   5.347   0.665
11519TIP3    H234503   5.494   5.253   0.600
11520TIP3   OH234504   6.842   6.499   5.776
11520TIP3    H134505   6.808   6.468   5.860
11520TIP3    H234506   6.888   6.424   5.739
11521TIP3   OH234507   5.341   0.708   3.268
11521TIP3    H134508   5.254   0.744   3.286
11521TIP3    H234509   5.332   0.615   3.288
11522TIP3   OH234510   7.893   6.874   6.761
11522TIP3    H134511   7.801   6.853   6.747
11522TIP3    H234512   7.941   6.806   6.714
11523TIP3   OH234513   1.976   6.870   1.987
11523TIP3    H134514   1.932   6.815   1.923
11523TIP3    H234515   1.954   6.960   1.961
11524TIP3   OH234516   4.319   1.822   4.165
11524TIP3    H134517   4.317   1.892   4.230
11524TIP3    H234518   4.293   1.744   4.213
11525TIP3   OH234519   8.078   1.363   5.868
11525TIP3    H134520   8.169   1.334   5.871
11525TIP3    H234521   8.057   1.369   5.775
11526TIP3   OH234522   3.272   4.683   3.993
11526TIP3    H134523   3.315   4.714   4.073
11526TIP3    H234524   3.220   4.758   3.964
11527TIP3   OH234525   7.856   0.484   4.692
11527TIP3    H134526   7.936   0.522   4.730
11527TIP3    H234527   7.857   0.393   4.721
11528TIP3   OH234528   7.224   6.433   4.649
11528TIP3    H134529   7.305   6.385   4.665
11528TIP3    H234530   7.213   6.431   4.553
11529TIP3   OH234531   3.000   6.643   1.348
11529TIP3    H134532   3.083   6.637   1.300
11529TIP3    H234533   3.022   6.691   1.428
11530TIP3   OH234534   5.197   4.810   6.265
11530TIP3    H134535   5.120   4.805   6.208
11530TIP3    H234536   5.168   4.775   6.349
11531TIP3   OH234537   2.405   4.925   0.014
11531TIP3    H134538   2.395   4.949   0.106
11531TIP3    H234539   2.328   4.962  -0.029
11532TIP3   OH234540   7.326   5.438   2.059
11532TIP3    H134541   7.394   5.495   2.023
11532TIP3    H234542   7.258   5.436   1.991
11533TIP3   OH234543   2.428   6.584   1.588
11533TIP3    H134544   2.356   6.538   1.545
11533TIP3    H234545   2.502   6.574   1.528
11534TIP3   OH234546   0.575   5.980   5.224
11534TIP3    H134547   0.512   5.961   5.154
11534TIP3    H234548   0.595   6.073   5.214
11535TIP3   OH234549   0.940   0.115   3.443
11535TIP3    H134550   0.952   0.105   3.537
11535TIP3    H234551   1.003   0.054   3.404
11536TIP3   OH234552   7.795   7.352   4.783
11536TIP3    H134553   7.721   7.298   4.811
11536TIP3    H234554   7.848   7.363   4.862
11537TIP3   OH234555   0.361   5.465   1.716
11537TIP3    H134556   0.448   5.427   1.722
11537TIP3    H234557   0.374   5.559   1.732
11538TIP3   OH234558   3.159   3.350   6.736
11538TIP3    H134559   3.137   3.441   6.756
11538TIP3    H234560   3.143   3.342   6.642
11539TIP3   OH234561   2.398   7.139   6.349
11539TIP3    H134562   2.420   7.152   6.257
11539TIP3    H234563   2.328   7.202   6.366
11540TIP3   OH234564   3.676   2.860   5.424
11540TIP3    H134565   3.620   2.783   5.416
11540TIP3    H234566   3.618   2.934   5.408
11541TIP3   OH234567   0.118   5.304   6.511
11541TIP3    H134568   0.102   5.247   6.586
11541TIP3    H234569   0.193   5.265   6.467
11542TIP3   OH234570   3.383   1.672   3.111
11542TIP3    H134571   3.290   1.657   3.129
11542TIP3    H234572   3.393   1.767   3.111
11543TIP3   OH234573   2.436   7.007   3.443
11543TIP3    H134574   2.487   7.068   3.497
11543TIP3    H234575   2.366   7.060   3.406
11544TIP3   OH234576   2.304   5.569   2.528
11544TIP3    H134577   2.390   5.584   2.488
11544TIP3    H234578   2.241   5.602   2.463
11545TIP3   OH234579   7.062   1.827   4.391
11545TIP3    H134580   6.987   1.834   4.332
11545TIP3    H234581   7.024   1.839   4.478
11546TIP3   OH234582   5.372   5.369   2.553
11546TIP3    H134583   5.312   5.310   2.507
11546TIP3    H234584   5.390   5.326   2.636
11547TIP3   OH234585   4.451   1.002   1.980
11547TIP3    H134586   4.452   0.975   2.072
11547TIP3    H234587   4.517   1.071   1.975
11548TIP3   OH234588   2.320   0.077   2.511
11548TIP3    H134589   2.281   0.074   2.423
11548TIP3    H234590   2.251   0.046   2.569
11549TIP3   OH234591   3.938   2.120   0.130
11549TIP3    H134592   4.019   2.153   0.090
11549TIP3    H234593   3.967   2.073   0.208
11550TIP3   OH234594   5.867   5.218   1.053
11550TIP3    H134595   5.880   5.301   1.100
11550TIP3    H234596   5.935   5.160   1.087
11551TIP3   OH234597   0.834   4.541   0.232
11551TIP3    H134598   0.889   4.476   0.276
11551TIP3    H234599   0.895   4.607   0.201
11552TIP3   OH234600   3.959   4.047   1.337
11552TIP3    H134601   3.940   4.015   1.425
11552TIP3    H234602   3.914   4.131   1.332
11553TIP3   OH234603   7.184   1.785   5.812
11553TIP3    H134604   7.136   1.840   5.751
11553TIP3    H234605   7.145   1.803   5.897
11554TIP3   OH234606   7.204   1.839   0.186
11554TIP3    H134607   7.109   1.850   0.183
11554TIP3    H234608   7.227   1.811   0.097
11555TIP3   OH234609   1.993   4.789   5.196
11555TIP3    H134610   1.930   4.841   5.246
11555TIP3    H234611   1.976   4.812   5.104
11556TIP3   OH234612   7.033   7.812   6.373
11556TIP3    H134613   6.945   7.842   6.351
11556TIP3    H234614   7.061   7.762   6.297
11557TIP3   OH234615   4.453   2.014   1.719
11557TIP3    H134616   4.478   2.105   1.707
11557TIP3    H234617   4.478   1.994   1.809
11558TIP3   OH234618   1.170   1.233   3.380
11558TIP3    H134619   1.221   1.153   3.376
11558TIP3    H234620   1.082   1.205   3.404
11559TIP3   OH234621   4.013   5.519   4.339
11559TIP3    H134622   4.032   5.452   4.274
11559TIP3    H234623   4.098   5.558   4.360
11560TIP3   OH234624   2.367   0.760   4.137
11560TIP3    H134625   2.336   0.758   4.228
11560TIP3    H234626   2.446   0.707   4.138
11561TIP3   OH234627   0.548   7.740   2.024
11561TIP3    H134628   0.573   7.653   2.055
11561TIP3    H234629   0.622   7.796   2.049
11562TIP3   OH234630   4.278   7.653   5.518
11562TIP3    H134631   4.278   7.591   5.591
11562TIP3    H234632   4.188   7.655   5.488
11563TIP3   OH234633   0.769   6.548   0.363
11563TIP3    H134634   0.864   6.551   0.370
11563TIP3    H234635   0.738   6.585   0.446
11564TIP3   OH234636   3.536   1.459   4.461
11564TIP3    H134637   3.520   1.451   4.367
11564TIP3    H234638   3.609   1.519   4.468
11565TIP3   OH234639   2.086   6.386   6.450
11565TIP3    H134640   2.179   6.379   6.429
11565TIP3    H234641   2.077   6.344   6.536
11566TIP3   OH234642   7.748   3.101   3.573
11566TIP3    H134643   7.819   3.151   3.615
11566TIP3    H234644   7.790   3.019   3.545
11567TIP3   OH234645   6.068   7.284   4.497
11567TIP3    H134646   6.025   7.316   4.577
11567TIP3    H234647   6.052   7.352   4.432
11568TIP3   OH234648   6.742   4.348   6.564
11568TIP3    H134649   6.782   4.363   6.650
11568TIP3    H234650   6.691   4.427   6.547
11569TIP3   OH234651   6.925   3.296   3.574
11569TIP3    H134652   6.995   3.309   3.638
11569TIP3    H234653   6.971   3.295   3.489
11570TIP3   OH234654   4.890   5.446   3.602
11570TIP3    H134655   4.882   5.457   3.697
11570TIP3    H234656   4.834   5.514   3.565
11571TIP3   OH234657   6.389   0.380   3.930
11571TIP3    H134658   6.312   0.341   3.972
11571TIP3    H234659   6.433   0.427   4.000
11572TIP3   OH234660   8.048   4.568   3.019
11572TIP3    H134661   8.032   4.571   3.113
11572TIP3    H234662   8.141   4.547   3.011
11573TIP3   OH234663   1.905   7.033   1.390
11573TIP3    H134664   1.984   7.075   1.426
11573TIP3    H234665   1.839   7.044   1.458
11574TIP3   OH234666   0.595   3.661   5.456
11574TIP3    H134667   0.572   3.726   5.389
11574TIP3    H234668   0.626   3.585   5.407
11575TIP3   OH234669   6.523   0.115   2.528
11575TIP3    H134670   6.584   0.165   2.582
11575TIP3    H234671   6.509   0.033   2.577
11576TIP3   OH234672   1.284   5.877   4.120
11576TIP3    H134673   1.291   5.944   4.052
11576TIP3    H234674   1.227   5.810   4.082
11577TIP3   OH234675   1.263   0.822   6.013
11577TIP3    H134676   1.183   0.873   6.019
11577TIP3    H234677   1.243   0.752   5.951
11578TIP3   OH234678   4.110   7.346   5.325
11578TIP3    H134679   4.084   7.322   5.414
11578TIP3    H234680   4.087   7.439   5.318
11579TIP3   OH234681   7.536   6.566   5.612
11579TIP3    H134682   7.574   6.564   5.700
11579TIP3    H234683   7.450   6.525   5.622
11580TIP3   OH234684   0.675   4.336   6.096
11580TIP3    H134685   0.737   4.263   6.098
11580TIP3    H234686   0.598   4.300   6.050
11581TIP3   OH234687   7.196   5.918   4.033
11581TIP3    H134688   7.275   5.937   4.083
11581TIP3    H234689   7.155   5.845   4.079
11582TIP3   OH234690   2.929   4.978   1.084
11582TIP3    H134691   2.877   4.898   1.078
11582TIP3    H234692   2.873   5.038   1.134
11583TIP3   OH234693   0.299   2.240   3.968
11583TIP3    H134694   0.273   2.309   3.907
11583TIP3    H234695   0.277   2.274   4.054
11584TIP3   OH234696   6.523   6.534   1.984
11584TIP3    H134697   6.615   6.555   1.998
11584TIP3    H234698   6.487   6.612   1.941
11585TIP3   OH234699   5.604   1.386   0.875
11585TIP3    H134700   5.692   1.417   0.894
11585TIP3    H234701   5.572   1.444   0.806
11586TIP3   OH234702   1.276   0.522   1.053
11586TIP3    H134703   1.343   0.546   1.117
11586TIP3    H234704   1.209   0.478   1.104
11587TIP3   OH234705   3.297   2.955   4.030
11587TIP3    H134706   3.275   2.998   3.947
11587TIP3    H234707   3.240   2.879   4.033
11588TIP3   OH234708   2.165   1.824   2.333
11588TIP3    H134709   2.163   1.865   2.247
11588TIP3    H234710   2.224   1.749   2.322
11589TIP3   OH234711   0.316   4.868   2.448
11589TIP3    H134712   0.391   4.923   2.471
11589TIP3    H234713   0.258   4.927   2.399
11590TIP3   OH234714   4.612   6.230   1.896
11590TIP3    H134715   4.589   6.226   1.804
11590TIP3    H234716   4.681   6.297   1.901
11591TIP3   OH234717   6.167   1.797   5.023
11591TIP3    H134718   6.236   1.733   5.042
11591TIP3    H234719   6.214   1.880   5.011
11592TIP3   OH234720   2.616   6.533   3.303
11592TIP3    H134721   2.605   6.512   3.396
11592TIP3    H234722   2.631   6.628   3.302
11593TIP3   OH234723   7.417   3.575   5.712
11593TIP3    H134724   7.359   3.511   5.753
11593TIP3    H234725   7.390   3.659   5.750
11594TIP3   OH234726   1.973   2.942   4.706
11594TIP3    H134727   1.956   2.965   4.797
11594TIP3    H234728   2.068   2.947   4.698
11595TIP3   OH234729   1.470   7.564   2.719
11595TIP3    H134730   1.528   7.612   2.779
11595TIP3    H234731   1.495   7.473   2.731
11596TIP3   OH234732   5.297   0.919   3.610
11596TIP3    H134733   5.388   0.898   3.587
11596TIP3    H234734   5.279   0.865   3.687
11597TIP3   OH234735   4.213   4.863   4.795
11597TIP3    H134736   4.173   4.846   4.709
11597TIP3    H234737   4.303   4.889   4.775
11598TIP3   OH234738   5.044   5.479   4.365
11598TIP3    H134739   5.017   5.391   4.390
11598TIP3    H234740   5.001   5.537   4.428
11599TIP3   OH234741   8.302   1.562   3.195
11599TIP3    H134742   8.315   1.548   3.289
11599TIP3    H234743   8.207   1.569   3.184
11600TIP3   OH234744   8.101   3.959   1.454
11600TIP3    H134745   8.118   3.941   1.361
11600TIP3    H234746   8.147   4.041   1.471
11601TIP3   OH234747   7.571   5.544   3.592
11601TIP3    H134748   7.492   5.489   3.589
11601TIP3    H234749   7.619   5.514   3.669
11602TIP3   OH234750   4.174   6.444   2.015
11602TIP3    H134751   4.102   6.476   1.961
11602TIP3    H234752   4.132   6.381   2.075
11603TIP3   OH234753   6.594   6.154   4.751
11603TIP3    H134754   6.541   6.110   4.817
11603TIP3    H234755   6.561   6.244   4.749
11604TIP3   OH234756   3.921   7.520   3.128
11604TIP3    H134757   4.012   7.538   3.104
11604TIP3    H234758   3.875   7.516   3.044
11605TIP3   OH234759   8.120   3.483   5.493
11605TIP3    H134760   8.159   3.479   5.405
11605TIP3    H234761   8.178   3.430   5.547
11606TIP3   OH234762   6.017   7.500   2.395
11606TIP3    H134763   6.016   7.405   2.382
11606TIP3    H234764   6.109   7.519   2.417
11607TIP3   OH234765   7.547   5.600   2.013
11607TIP3    H134766   7.625   5.576   2.063
11607TIP3    H234767   7.554   5.694   2.000
11608TIP3   OH234768   1.573   2.200   6.729
11608TIP3    H134769   1.627   2.274   6.699
11608TIP3    H234770   1.579   2.136   6.658
11609TIP3   OH234771   7.673   7.286   0.209
11609TIP3    H134772   7.719   7.343   0.147
11609TIP3    H234773   7.742   7.240   0.256
11610TIP3   OH234774   1.315   3.477   3.889
11610TIP3    H134775   1.348   3.406   3.835
11610TIP3    H234776   1.291   3.546   3.827
11611TIP3   OH234777   6.140   7.704   1.597
11611TIP3    H134778   6.146   7.634   1.663
11611TIP3    H234779   6.107   7.660   1.519
11612TIP3   OH234780   1.778   2.357   3.576
11612TIP3    H134781   1.749   2.297   3.644
11612TIP3    H234782   1.786   2.442   3.621
11613TIP3   OH234783   5.855   1.121   4.921
11613TIP3    H134784   5.777   1.176   4.929
11613TIP3    H234785   5.901   1.157   4.845
11614TIP3   OH234786   2.145   6.391   5.392
11614TIP3    H134787   2.200   6.462   5.358
11614TIP3    H234788   2.064   6.434   5.417
11615TIP3   OH234789   4.161   3.197   6.185
11615TIP3    H134790   4.067   3.181   6.195
11615TIP3    H234791   4.196   3.116   6.148
11616TIP3   OH234792   1.095   1.444   6.580
11616TIP3    H134793   1.147   1.503   6.635
11616TIP3    H234794   1.038   1.397   6.641
11617TIP3   OH234795   3.621   7.423   4.753
11617TIP3    H134796   3.554   7.433   4.684
11617TIP3    H234797   3.687   7.488   4.731
11618TIP3   OH234798   0.382   2.388   1.368
11618TIP3    H134799   0.424   2.329   1.305
11618TIP3    H234800   0.396   2.346   1.453
11619TIP3   OH234801   1.125   6.592   1.592
11619TIP3    H134802   1.112   6.498   1.581
11619TIP3    H234803   1.162   6.601   1.680
11620TIP3   OH234804   3.646   1.852   2.308
11620TIP3    H134805   3.665   1.771   2.355
11620TIP3    H234806   3.730   1.880   2.273
11621TIP3   OH234807   4.772   6.467   0.010
11621TIP3    H134808   4.743   6.498   0.096
11621TIP3    H234809   4.802   6.377   0.026
11622TIP3   OH234810   3.317   1.650   5.166
11622TIP3    H134811   3.315   1.628   5.259
11622TIP3    H234812   3.251   1.719   5.156
11623TIP3   OH234813   4.308   5.470   5.556
11623TIP3    H134814   4.256   5.468   5.636
11623TIP3    H234815   4.394   5.437   5.583
11624TIP3   OH234816   3.001   0.958   3.803
11624TIP3    H134817   3.065   0.972   3.734
11624TIP3    H234818   3.053   0.927   3.878
11625TIP3   OH234819   8.086   6.713   3.115
11625TIP3    H134820   8.036   6.654   3.059
11625TIP3    H234821   8.074   6.799   3.077
11626TIP3   OH234822   7.846   0.602   2.703
11626TIP3    H134823   7.766   0.565   2.740
11626TIP3    H234824   7.839   0.696   2.721
11627TIP3   OH234825   2.980   3.775   3.583
11627TIP3    H134826   3.008   3.691   3.619
11627TIP3    H234827   2.914   3.753   3.517
11628TIP3   OH234828   7.699   0.305   1.929
11628TIP3    H134829   7.774   0.320   1.871
11628TIP3    H234830   7.669   0.217   1.908
11629TIP3   OH234831   0.236   2.125   5.392
11629TIP3    H134832   0.200   2.117   5.481
11629TIP3    H234833   0.163   2.100   5.335
11630TIP3   OH234834   2.254   4.677   1.601
11630TIP3    H134835   2.346   4.655   1.615
11630TIP3    H234836   2.255   4.766   1.567
11631TIP3   OH234837   8.238   4.282   1.687
11631TIP3    H134838   8.284   4.362   1.660
11631TIP3    H234839   8.163   4.277   1.628
11632TIP3   OH234840   5.583   3.848   2.170
11632TIP3    H134841   5.634   3.875   2.093
11632TIP3    H234842   5.557   3.758   2.151
11633TIP3   OH234843   6.027   7.099   3.640
11633TIP3    H134844   5.991   7.178   3.682
11633TIP3    H234845   6.059   7.130   3.555
11634TIP3   OH234846   1.744   0.132   1.458
11634TIP3    H134847   1.819   0.074   1.473
11634TIP3    H234848   1.678   0.076   1.418
11635TIP3   OH234849   3.797   5.228   0.353
11635TIP3    H134850   3.808   5.322   0.367
11635TIP3    H234851   3.880   5.190   0.381
11636TIP3   OH234852   7.468   4.507   2.694
11636TIP3    H134853   7.436   4.587   2.735
11636TIP3    H234854   7.420   4.502   2.611
11637TIP3   OH234855   3.309   5.403   3.760
11637TIP3    H134856   3.237   5.339   3.752
11637TIP3    H234857   3.387   5.349   3.770
11638TIP3   OH234858   2.669   2.075   6.323
11638TIP3    H134859   2.656   2.050   6.231
11638TIP3    H234860   2.726   2.007   6.358
11639TIP3   OH234861   2.114   5.153   2.178
11639TIP3    H134862   2.164   5.094   2.121
11639TIP3    H234863   2.180   5.208   2.219
11640TIP3   OH234864   5.489   7.012   6.384
11640TIP3    H134865   5.466   7.081   6.446
11640TIP3    H234866   5.423   6.944   6.398
11641TIP3   OH234867   5.526   2.551   6.415
11641TIP3    H134868   5.539   2.639   6.381
11641TIP3    H234869   5.536   2.494   6.339
11642TIP3   OH234870   7.211   5.621   0.383
11642TIP3    H134871   7.213   5.611   0.478
11642TIP3    H234872   7.236   5.535   0.349
11643TIP3   OH234873   6.888   3.860   6.524
11643TIP3    H134874   6.843   3.786   6.483
11643TIP3    H234875   6.834   3.883   6.599
11644TIP3   OH234876   2.006   5.540   2.490
11644TIP3    H134877   2.050   5.572   2.411
11644TIP3    H234878   1.914   5.531   2.465
11645TIP3   OH234879   5.063   4.599   3.286
11645TIP3    H134880   5.075   4.693   3.271
11645TIP3    H234881   5.016   4.594   3.369
11646TIP3   OH234882   6.120   1.626   5.341
11646TIP3    H134883   6.164   1.653   5.421
11646TIP3    H234884   6.182   1.646   5.271
11647TIP3   OH234885   3.558   2.141   0.879
11647TIP3    H134886   3.523   2.207   0.939
11647TIP3    H234887   3.500   2.065   0.891
11648TIP3   OH234888   6.590   4.787   4.551
11648TIP3    H134889   6.680   4.770   4.523
11648TIP3    H234890   6.553   4.843   4.482
11649TIP3   OH234891   1.232   4.907   5.128
11649TIP3    H134892   1.300   4.842   5.112
11649TIP3    H234893   1.157   4.856   5.159
11650TIP3   OH234894   3.533   3.857   2.805
11650TIP3    H134895   3.518   3.842   2.899
11650TIP3    H234896   3.534   3.952   2.796
11651TIP3   OH234897   6.840   5.840   1.456
11651TIP3    H134898   6.838   5.749   1.425
11651TIP3    H234899   6.933   5.858   1.471
11652TIP3   OH234900   1.668   7.059   0.794
11652TIP3    H134901   1.733   7.100   0.851
11652TIP3    H234902   1.654   7.123   0.724
11653TIP3   OH234903   7.973   4.270   3.281
11653TIP3    H134904   7.974   4.231   3.368
11653TIP3    H234905   7.883   4.258   3.251
11654TIP3   OH234906   0.992   2.388   0.167
11654TIP3    H134907   0.903   2.419   0.181
11654TIP3    H234908   1.033   2.456   0.114
11655TIP3   OH234909   4.421   1.084   0.853
11655TIP3    H134910   4.440   1.006   0.803
11655TIP3    H234911   4.438   1.157   0.793
11656TIP3   OH234912   3.144   0.328   2.006
11656TIP3    H134913   3.142   0.258   2.072
11656TIP3    H234914   3.222   0.379   2.029
11657TIP3   OH234915   7.591   6.754   0.758
11657TIP3    H134916   7.554   6.842   0.765
11657TIP3    H234917   7.576   6.714   0.843
11658TIP3   OH234918   5.575   5.096   0.340
11658TIP3    H134919   5.511   5.165   0.323
11658TIP3    H234920   5.658   5.134   0.312
11659TIP3   OH234921   2.329   0.091   1.018
11659TIP3    H134922   2.260   0.036   1.055
11659TIP3    H234923   2.392   0.102   1.089
11660TIP3   OH234924   1.559   1.369   5.091
11660TIP3    H134925   1.630   1.305   5.078
11660TIP3    H234926   1.535   1.360   5.184
11661TIP3   OH234927   3.326   0.189   1.607
11661TIP3    H134928   3.326   0.099   1.573
11661TIP3    H234929   3.299   0.242   1.532
11662TIP3   OH234930   5.570   6.246   4.580
11662TIP3    H134931   5.484   6.280   4.603
11662TIP3    H234932   5.583   6.271   4.489
11663TIP3   OH234933   7.533   3.886   2.249
11663TIP3    H134934   7.554   3.906   2.158
11663TIP3    H234935   7.611   3.913   2.298
11664TIP3   OH234936   4.553   5.115   5.541
11664TIP3    H134937   4.519   5.205   5.538
11664TIP3    H234938   4.598   5.109   5.625
11665TIP3   OH234939   5.462   7.009   0.621
11665TIP3    H134940   5.521   6.933   0.629
11665TIP3    H234941   5.388   6.976   0.570
11666TIP3   OH234942   7.532   0.856   2.824
11666TIP3    H134943   7.459   0.893   2.774
11666TIP3    H234944   7.499   0.851   2.914
11667TIP3   OH234945   7.231   7.160   2.030
11667TIP3    H134946   7.186   7.238   1.999
11667TIP3    H234947   7.220   7.162   2.125
11668TIP3   OH234948   7.227   0.907   5.149
11668TIP3    H134949   7.211   0.962   5.226
11668TIP3    H234950   7.188   0.822   5.172
11669TIP3   OH234951   3.494   5.659   4.503
11669TIP3    H134952   3.505   5.569   4.471
11669TIP3    H234953   3.508   5.652   4.597
11670TIP3   OH234954   4.386   5.323   1.087
11670TIP3    H134955   4.410   5.247   1.140
11670TIP3    H234956   4.292   5.314   1.074
11671TIP3   OH234957   3.045   7.224   5.728
11671TIP3    H134958   3.019   7.202   5.817
11671TIP3    H234959   3.071   7.141   5.689
11672TIP3   OH234960   0.861   1.848   3.505
11672TIP3    H134961   0.817   1.910   3.562
11672TIP3    H234962   0.790   1.798   3.464
11673TIP3   OH234963   0.823   4.693   6.541
11673TIP3    H134964   0.866   4.629   6.484
11673TIP3    H234965   0.788   4.641   6.613
11674TIP3   OH234966   0.653   1.064   3.691
11674TIP3    H134967   0.718   1.134   3.694
11674TIP3    H234968   0.653   1.027   3.779
11675TIP3   OH234969   7.033   0.646   3.564
11675TIP3    H134970   7.096   0.573   3.564
11675TIP3    H234971   6.979   0.631   3.642
11676TIP3   OH234972   4.892   3.880   1.680
11676TIP3    H134973   4.882   3.941   1.753
11676TIP3    H234974   4.861   3.928   1.603
11677TIP3   OH234975   2.867   3.018   6.328
11677TIP3    H134976   2.804   2.990   6.394
11677TIP3    H234977   2.865   3.114   6.332
11678TIP3   OH234978   6.793   6.719   5.042
11678TIP3    H134979   6.886   6.740   5.030
11678TIP3    H234980   6.791   6.624   5.051
11679TIP3   OH234981   1.243   3.848   0.333
11679TIP3    H134982   1.194   3.841   0.251
11679TIP3    H234983   1.333   3.826   0.308
11680TIP3   OH234984   5.226   4.640   0.915
11680TIP3    H134985   5.264   4.553   0.928
11680TIP3    H234986   5.159   4.627   0.848
11681TIP3   OH234987   5.870   6.522   1.696
11681TIP3    H134988   5.883   6.604   1.648
11681TIP3    H234989   5.904   6.454   1.638
11682TIP3   OH234990   6.334   5.930   2.881
11682TIP3    H134991   6.380   5.966   2.956
11682TIP3    H234992   6.394   5.943   2.807
11683TIP3   OH234993   3.123   1.345   1.137
11683TIP3    H134994   3.028   1.351   1.150
11683TIP3    H234995   3.137   1.374   1.047
11684TIP3   OH234996   1.069   4.670   0.105
11684TIP3    H134997   1.065   4.760   0.138
11684TIP3    H234998   1.162   4.648   0.107
11685TIP3   OH234999   7.307   1.848   4.741
11685TIP3    H135000   7.267   1.917   4.689
11685TIP3    H235001   7.381   1.890   4.785
11686TIP3   OH235002   7.129   6.649   0.862
11686TIP3    H135003   7.156   6.563   0.893
11686TIP3    H235004   7.207   6.704   0.871
11687TIP3   OH235005   6.046   2.796   5.821
11687TIP3    H135006   6.108   2.754   5.762
11687TIP3    H235007   6.033   2.884   5.784
11688TIP3   OH235008   0.445   7.524   4.186
11688TIP3    H135009   0.534   7.549   4.164
11688TIP3    H235010   0.390   7.593   4.149
11689TIP3   OH235011   1.436   4.487   5.381
11689TIP3    H135012   1.439   4.458   5.472
11689TIP3    H235013   1.467   4.578   5.384
11690TIP3   OH235014   6.995   0.028   3.359
11690TIP3    H135015   6.925   0.044   3.423
11690TIP3    H235016   7.046   0.109   3.359
11691TIP3   OH235017   4.318   0.070   2.068
11691TIP3    H135018   4.331  -0.025   2.074
11691TIP3    H235019   4.306   0.098   2.159
11692TIP3   OH235020   8.053   4.752   4.701
11692TIP3    H135021   8.009   4.776   4.620
11692TIP3    H235022   8.037   4.658   4.711
11693TIP3   OH235023   0.135   4.996   1.485
11693TIP3    H135024   0.048   5.011   1.520
11693TIP3    H235025   0.128   5.019   1.392
11694TIP3   OH235026   0.568   6.904   2.067
11694TIP3    H135027   0.627   6.921   2.141
11694TIP3    H235028   0.481   6.895   2.107
11695TIP3   OH235029   2.244   6.168   0.191
11695TIP3    H135030   2.165   6.183   0.243
11695TIP3    H235031   2.284   6.255   0.182
11696TIP3   OH235032   4.360   4.274   1.934
11696TIP3    H135033   4.365   4.277   1.838
11696TIP3    H235034   4.318   4.356   1.959
11697TIP3   OH235035   7.385   7.765   6.605
11697TIP3    H135036   7.457   7.799   6.552
11697TIP3    H235037   7.371   7.833   6.672
11698TIP3   OH235038   7.723   3.256   1.157
11698TIP3    H135039   7.648   3.201   1.180
11698TIP3    H235040   7.686   3.326   1.102
11699TIP3   OH235041   5.867   5.452   3.741
11699TIP3    H135042   5.882   5.379   3.681
11699TIP3    H235043   5.946   5.455   3.795
11700TIP3   OH235044   4.559   6.386   4.684
11700TIP3    H135045   4.613   6.440   4.742
11700TIP3    H235046   4.487   6.356   4.740
11701TIP3   OH235047   7.849   3.818   6.403
11701TIP3    H135048   7.839   3.758   6.329
11701TIP3    H235049   7.760   3.834   6.434
11702TIP3   OH235050   7.641   5.807   4.020
11702TIP3    H135051   7.705   5.878   4.016
11702TIP3    H235052   7.660   5.753   3.944
11703TIP3   OH235053   6.251   0.952   2.075
11703TIP3    H135054   6.313   0.901   2.022
11703TIP3    H235055   6.213   0.889   2.135
11704TIP3   OH235056   4.131   2.796   6.509
11704TIP3    H135057   4.160   2.758   6.426
11704TIP3    H235058   4.037   2.808   6.499
11705TIP3   OH235059   5.898   7.327   2.734
11705TIP3    H135060   5.917   7.246   2.782
11705TIP3    H235061   5.975   7.382   2.748
11706TIP3   OH235062   0.639   4.902   3.640
11706TIP3    H135063   0.642   4.998   3.643
11706TIP3    H235064   0.568   4.879   3.701
11707TIP3   OH235065   1.091   5.686   3.012
11707TIP3    H135066   1.050   5.612   2.966
11707TIP3    H235067   1.167   5.648   3.055
11708TIP3   OH235068   7.381   5.080   5.666
11708TIP3    H135069   7.462   5.067   5.715
11708TIP3    H235070   7.312   5.059   5.729
11709TIP3   OH235071   5.427   1.749   3.237
11709TIP3    H135072   5.483   1.687   3.283
11709TIP3    H235073   5.441   1.731   3.144
11710TIP3   OH235074   7.127   1.260   6.045
11710TIP3    H135075   7.148   1.350   6.021
11710TIP3    H235076   7.126   1.261   6.141
11711TIP3   OH235077   3.548   0.723   5.130
11711TIP3    H135078   3.502   0.806   5.141
11711TIP3    H235079   3.538   0.679   5.214
11712TIP3   OH235080   7.655   7.736   2.691
11712TIP3    H135081   7.658   7.640   2.682
11712TIP3    H235082   7.711   7.755   2.765
11713TIP3   OH235083   1.476   7.041   3.150
11713TIP3    H135084   1.533   7.003   3.217
11713TIP3    H235085   1.427   7.110   3.196
11714TIP3   OH235086   5.396   6.243   4.985
11714TIP3    H135087   5.332   6.172   4.992
11714TIP3    H235088   5.425   6.258   5.075
11715TIP3   OH235089   8.028   4.529   3.281
11715TIP3    H135090   7.979   4.547   3.361
11715TIP3    H235091   8.013   4.436   3.264
11716TIP3   OH235092   7.659   5.125   0.085
11716TIP3    H135093   7.720   5.094   0.152
11716TIP3    H235094   7.700   5.204   0.049
11717TIP3   OH235095   1.143   0.647   4.496
11717TIP3    H135096   1.103   0.614   4.576
11717TIP3    H235097   1.080   0.711   4.462
11718TIP3   OH235098   7.151   7.733   3.987
11718TIP3    H135099   7.214   7.699   4.049
11718TIP3    H235100   7.070   7.684   4.005
11719TIP3   OH235101   0.579   3.478   1.905
11719TIP3    H135102   0.668   3.474   1.938
11719TIP3    H235103   0.528   3.423   1.965
11720TIP3   OH235104   4.988   1.804   5.205
11720TIP3    H135105   4.913   1.849   5.167
11720TIP3    H235106   5.055   1.871   5.215
11721TIP3   OH235107   2.718   4.115   5.979
11721TIP3    H135108   2.756   4.200   6.000
11721TIP3    H235109   2.624   4.128   5.989
11722TIP3   OH235110   4.278   7.367   0.578
11722TIP3    H135111   4.306   7.326   0.496
11722TIP3    H235112   4.201   7.419   0.554
11723TIP3   OH235113   3.479   4.737   1.255
11723TIP3    H135114   3.432   4.713   1.335
11723TIP3    H235115   3.571   4.732   1.279
11724TIP3   OH235116   7.087   6.803   4.802
11724TIP3    H135117   7.175   6.840   4.796
11724TIP3    H235118   7.052   6.836   4.885
11725TIP3   OH235119   7.162   3.457   2.460
11725TIP3    H135120   7.094   3.523   2.446
11725TIP3    H235121   7.205   3.448   2.375
11726TIP3   OH235122   2.283   7.069   5.789
11726TIP3    H135123   2.307   7.161   5.781
11726TIP3    H235124   2.260   7.058   5.881
11727TIP3   OH235125   0.064   1.253   3.556
11727TIP3    H135126   0.158   1.236   3.562
11727TIP3    H235127   0.057   1.343   3.524
11728TIP3   OH235128   3.157   1.406   2.349
11728TIP3    H135129   3.127   1.465   2.417
11728TIP3    H235130   3.133   1.318   2.380
11729TIP3   OH235131   1.421   1.336   4.068
11729TIP3    H135132   1.453   1.258   4.114
11729TIP3    H235133   1.336   1.354   4.108
11730TIP3   OH235134   4.056   0.979   3.328
11730TIP3    H135135   3.967   0.975   3.362
11730TIP3    H235136   4.097   1.053   3.373
11731TIP3   OH235137   0.055   7.244   1.245
11731TIP3    H135138  -0.018   7.300   1.270
11731TIP3    H235139   0.079   7.198   1.326
11732TIP3   OH235140   3.214   5.204   0.153
11732TIP3    H135141   3.157   5.272   0.116
11732TIP3    H235142   3.240   5.151   0.078
11733TIP3   OH235143   2.519   0.549   6.265
11733TIP3    H135144   2.550   0.607   6.196
11733TIP3    H235145   2.589   0.485   6.276
11734TIP3   OH235146   4.256   2.493   3.982
11734TIP3    H135147   4.284   2.458   4.066
11734TIP3    H235148   4.336   2.499   3.929
11735TIP3   OH235149   0.327   4.683   1.978
11735TIP3    H135150   0.412   4.703   2.019
11735TIP3    H235151   0.293   4.609   2.028
11736TIP3   OH235152   4.458   5.333   3.079
11736TIP3    H135153   4.518   5.406   3.094
11736TIP3    H235154   4.427   5.345   2.989
11737TIP3   OH235155   5.152   1.734   2.985
11737TIP3    H135156   5.074   1.756   2.935
11737TIP3    H235157   5.147   1.789   3.063
11738TIP3   OH235158   5.107   4.918   3.552
11738TIP3    H135159   5.181   4.975   3.531
11738TIP3    H235160   5.063   4.903   3.469
11739TIP3   OH235161   1.368   3.861   2.636
11739TIP3    H135162   1.444   3.905   2.672
11739TIP3    H235163   1.299   3.928   2.636
11740TIP3   OH235164   1.949   1.058   5.607
11740TIP3    H135165   2.041   1.050   5.633
11740TIP3    H235166   1.944   1.141   5.560
11741TIP3   OH235167   2.362   1.608   6.094
11741TIP3    H135168   2.356   1.614   5.999
11741TIP3    H235169   2.298   1.672   6.126
11742TIP3   OH235170   4.606   2.114   2.909
11742TIP3    H135171   4.668   2.074   2.848
11742TIP3    H235172   4.652   2.118   2.992
11743TIP3   OH235173   2.555   2.487   6.700
11743TIP3    H135174   2.625   2.443   6.652
11743TIP3    H235175   2.599   2.532   6.772
11744TIP3   OH235176   0.059   7.215   2.204
11744TIP3    H135177  -0.014   7.236   2.146
11744TIP3    H235178   0.029   7.139   2.253
11745TIP3   OH235179   0.178   0.462   3.766
11745TIP3    H135180   0.225   0.474   3.848
11745TIP3    H235181   0.100   0.516   3.775
11746TIP3   OH235182   4.766   2.730   3.673
11746TIP3    H135183   4.849   2.689   3.699
11746TIP3    H235184   4.748   2.794   3.741
11747TIP3   OH235185   2.398   2.248   4.429
11747TIP3    H135186   2.427   2.206   4.510
11747TIP3    H235187   2.315   2.206   4.409
11748TIP3   OH235188   0.902   1.613   3.685
11748TIP3    H135189   0.977   1.609   3.626
11748TIP3    H235190   0.835   1.660   3.635
11749TIP3   OH235191   0.722   0.301   0.210
11749TIP3    H135192   0.775   0.257   0.276
11749TIP3    H235193   0.699   0.385   0.249
11750TIP3   OH235194   4.709   7.122   3.514
11750TIP3    H135195   4.774   7.144   3.580
11750TIP3    H235196   4.625   7.148   3.554
11751TIP3   OH235197   6.566   5.142   6.091
11751TIP3    H135198   6.653   5.178   6.108
11751TIP3    H235199   6.554   5.075   6.158
11752TIP3   OH235200   3.932   0.564   5.558
11752TIP3    H135201   3.853   0.510   5.563
11752TIP3    H235202   3.933   0.597   5.469
11753TIP3   OH235203   1.177   3.879   6.153
11753TIP3    H135204   1.126   3.871   6.073
11753TIP3    H235205   1.201   3.789   6.176
11754TIP3   OH235206   7.111   2.183   2.308
11754TIP3    H135207   7.057   2.154   2.235
11754TIP3    H235208   7.176   2.114   2.320
11755TIP3   OH235209   7.436   4.042   0.232
11755TIP3    H135210   7.489   4.034   0.153
11755TIP3    H235211   7.475   4.115   0.280
11756TIP3   OH235212   8.102   0.503   5.379
11756TIP3    H135213   8.072   0.444   5.447
11756TIP3    H235214   8.155   0.568   5.425
11757TIP3   OH235215   3.152   5.170   3.764
11757TIP3    H135216   3.072   5.174   3.711
11757TIP3    H235217   3.216   5.127   3.708
11758TIP3   OH235218   6.649   2.538   0.198
11758TIP3    H135219   6.643   2.450   0.161
11758TIP3    H235220   6.701   2.587   0.135
11759TIP3   OH235221   2.323   3.064   6.665
11759TIP3    H135222   2.285   2.976   6.657
11759TIP3    H235223   2.335   3.092   6.574
11760TIP3   OH235224   7.966   0.208   3.484
11760TIP3    H135225   7.956   0.252   3.569
11760TIP3    H235226   7.950   0.277   3.420
11761TIP3   OH235227   2.795   7.335   0.347
11761TIP3    H135228   2.785   7.308   0.438
11761TIP3    H235229   2.725   7.399   0.333
11762TIP3   OH235230   4.597   2.548   6.205
11762TIP3    H135231   4.556   2.542   6.118
11762TIP3    H235232   4.527   2.527   6.266
11763TIP3   OH235233   3.671   6.003   4.698
11763TIP3    H135234   3.688   5.978   4.607
11763TIP3    H235235   3.702   5.929   4.749
11764TIP3   OH235236   4.148   4.434   3.392
11764TIP3    H135237   4.244   4.436   3.394
11764TIP3    H235238   4.126   4.341   3.398
11765TIP3   OH235239   2.212   4.630   2.324
11765TIP3    H135240   2.186   4.572   2.253
11765TIP3    H235241   2.296   4.666   2.295
11766TIP3   OH235242   7.314   5.737   5.728
11766TIP3    H135243   7.344   5.828   5.734
11766TIP3    H235244   7.311   5.707   5.819
11767TIP3   OH235245   4.233   7.829   2.162
11767TIP3    H135246   4.156   7.777   2.185
11767TIP3    H235247   4.307   7.776   2.190
11768TIP3   OH235248   4.399   2.911   2.156
11768TIP3    H135249   4.388   2.978   2.223
11768TIP3    H235250   4.341   2.938   2.085
11769TIP3   OH235251   1.594   7.221   4.081
11769TIP3    H135252   1.563   7.262   4.162
11769TIP3    H235253   1.518   7.219   4.024
11770TIP3   OH235254   8.118   5.316   2.071
11770TIP3    H135255   8.069   5.393   2.100
11770TIP3    H235256   8.057   5.243   2.082
11771TIP3   OH235257   7.576   2.500   5.836
11771TIP3    H135258   7.556   2.546   5.754
11771TIP3    H235259   7.578   2.569   5.902
11772TIP3   OH235260   4.768   1.365   0.573
11772TIP3    H135261   4.863   1.356   0.573
11772TIP3    H235262   4.751   1.442   0.518
11773TIP3   OH235263   0.408   0.467   5.947
11773TIP3    H135264   0.442   0.464   6.036
11773TIP3    H235265   0.314   0.475   5.958
11774TIP3   OH235266   5.084   5.309   2.843
11774TIP3    H135267   5.002   5.295   2.891
11774TIP3    H235268   5.077   5.398   2.809
11775TIP3   OH235269   6.682   0.185   5.408
11775TIP3    H135270   6.686   0.175   5.503
11775TIP3    H235271   6.604   0.136   5.382
11776TIP3   OH235272   7.873   4.934   1.034
11776TIP3    H135273   7.813   4.861   1.050
11776TIP3    H235274   7.943   4.896   0.981
11777TIP3   OH235275   6.351   4.389   6.590
11777TIP3    H135276   6.442   4.419   6.584
11777TIP3    H235277   6.339   4.368   6.682
11778TIP3   OH235278   3.132   7.296   2.479
11778TIP3    H135279   3.209   7.320   2.531
11778TIP3    H235280   3.150   7.207   2.448
11779TIP3   OH235281   6.889   0.418   5.627
11779TIP3    H135282   6.895   0.322   5.622
11779TIP3    H235283   6.889   0.437   5.721
11780TIP3   OH235284   3.880   7.243   2.287
11780TIP3    H135285   3.807   7.296   2.319
11780TIP3    H235286   3.853   7.218   2.198
11781TIP3   OH235287   8.109   6.278   6.416
11781TIP3    H135288   8.109   6.222   6.339
11781TIP3    H235289   8.020   6.315   6.419
11782TIP3   OH235290   1.323   6.935   1.632
11782TIP3    H135291   1.397   6.896   1.585
11782TIP3    H235292   1.330   7.029   1.616
11783TIP3   OH235293   7.000   6.868   0.690
11783TIP3    H135294   7.093   6.890   0.679
11783TIP3    H235295   6.958   6.905   0.612
11784TIP3   OH235296   4.716   3.532   0.192
11784TIP3    H135297   4.633   3.544   0.239
11784TIP3    H235298   4.783   3.548   0.258
11785TIP3   OH235299   3.859   2.962   5.980
11785TIP3    H135300   3.786   2.947   5.920
11785TIP3    H235301   3.855   2.889   6.041
11786TIP3   OH235302   2.824   2.706   6.157
11786TIP3    H135303   2.882   2.719   6.233
11786TIP3    H235304   2.793   2.794   6.136
11787TIP3   OH235305   0.040  -0.006   0.317
11787TIP3    H135306   0.123   0.000   0.364
11787TIP3    H235307  -0.011   0.068   0.349
11788TIP3   OH235308   7.401   4.151   1.515
11788TIP3    H135309   7.416   4.067   1.558
11788TIP3    H235310   7.367   4.129   1.429
11789TIP3   OH235311   2.138   2.275   4.607
11789TIP3    H135312   2.114   2.350   4.553
11789TIP3    H235313   2.217   2.303   4.654
11790TIP3   OH235314   7.205   5.648   3.374
11790TIP3    H135315   7.192   5.556   3.397
11790TIP3    H235316   7.189   5.651   3.280
11791TIP3   OH235317   3.601   4.585   6.522
11791TIP3    H135318   3.669   4.653   6.526
11791TIP3    H235319   3.601   4.558   6.431
11792TIP3   OH235320   3.592   3.442   2.758
11792TIP3    H135321   3.552   3.439   2.845
11792TIP3    H235322   3.676   3.484   2.771
11793TIP3   OH235323   7.350   3.890   1.887
11793TIP3    H135324   7.438   3.898   1.923
11793TIP3    H235325   7.332   3.976   1.849
11794TIP3   OH235326   3.854   5.330   1.060
11794TIP3    H135327   3.806   5.250   1.083
11794TIP3    H235328   3.797   5.376   0.999
11795TIP3   OH235329   1.915   7.774   3.638
11795TIP3    H135330   1.925   7.681   3.655
11795TIP3    H235331   1.884   7.811   3.721
11796TIP3   OH235332   0.160   0.891   5.933
11796TIP3    H135333   0.186   0.890   6.025
11796TIP3    H235334   0.065   0.883   5.935
11797TIP3   OH235335   0.631   6.856   4.409
11797TIP3    H135336   0.724   6.879   4.404
11797TIP3    H235337   0.585   6.933   4.376
11798TIP3   OH235338   1.317   1.109   0.369
11798TIP3    H135339   1.246   1.171   0.385
11798TIP3    H235340   1.393   1.165   0.351
11799TIP3   OH235341   6.575   2.141   6.076
11799TIP3    H135342   6.482   2.139   6.052
11799TIP3    H235343   6.580   2.207   6.145
11800TIP3   OH235344   2.968   3.059   2.400
11800TIP3    H135345   3.028   3.059   2.475
11800TIP3    H235346   3.024   3.062   2.323
11801TIP3   OH235347   4.545   5.491   2.751
11801TIP3    H135348   4.530   5.544   2.829
11801TIP3    H235349   4.500   5.538   2.681
11802TIP3   OH235350   4.785   4.363   1.485
11802TIP3    H135351   4.753   4.453   1.475
11802TIP3    H235352   4.874   4.374   1.521
11803TIP3   OH235353   7.766   0.129   5.146
11803TIP3    H135354   7.718   0.121   5.063
11803TIP3    H235355   7.718   0.196   5.194
11804TIP3   OH235356   7.688   4.230   3.307
11804TIP3    H135357   7.702   4.171   3.381
11804TIP3    H235358   7.661   4.313   3.348
11805TIP3   OH235359   8.051   0.411   6.285
11805TIP3    H135360   8.045   0.462   6.366
11805TIP3    H235361   8.143   0.418   6.259
11806TIP3   OH235362   5.114   7.818   3.321
11806TIP3    H135363   5.140   7.863   3.401
11806TIP3    H235364   5.137   7.727   3.336
11807TIP3   OH235365   5.438   3.380   5.307
11807TIP3    H135366   5.365   3.330   5.344
11807TIP3    H235367   5.400   3.465   5.286
11808TIP3   OH235368   0.960   5.287   5.222
11808TIP3    H135369   1.019   5.213   5.235
11808TIP3    H235370   0.967   5.337   5.304
11809TIP3   OH235371   3.359   4.169   4.163
11809TIP3    H135372   3.292   4.121   4.212
11809TIP3    H235373   3.437   4.114   4.167
11810TIP3   OH235374   3.919   0.280   3.247
11810TIP3    H135375   3.945   0.226   3.172
11810TIP3    H235376   3.951   0.367   3.226
11811TIP3   OH235377   1.532   1.851   0.631
11811TIP3    H135378   1.438   1.839   0.625
11811TIP3    H235379   1.569   1.790   0.567
11812TIP3   OH235380   7.868   2.290   3.443
11812TIP3    H135381   7.897   2.374   3.477
11812TIP3    H235382   7.778   2.280   3.474
11813TIP3   OH235383   0.466   3.234   5.495
11813TIP3    H135384   0.429   3.207   5.411
11813TIP3    H235385   0.560   3.219   5.484
11814TIP3   OH235386   4.872   0.282   5.625
11814TIP3    H135387   4.914   0.351   5.676
11814TIP3    H235388   4.820   0.234   5.689
11815TIP3   OH235389   3.085   3.834   2.989
11815TIP3    H135390   3.068   3.795   3.075
11815TIP3    H235391   3.103   3.926   3.007
11816TIP3   OH235392   3.552   5.912   5.774
11816TIP3    H135393   3.580   5.935   5.863
11816TIP3    H235394   3.632   5.918   5.722
11817TIP3   OH235395   2.548   3.893   3.675
11817TIP3    H135396   2.454   3.895   3.658
11817TIP3    H235397   2.588   3.913   3.590
11818TIP3   OH235398   1.895   0.402   1.730
11818TIP3    H135399   1.906   0.488   1.688
11818TIP3    H235400   1.962   0.347   1.689
11819TIP3   OH235401   5.494   6.275   5.239
11819TIP3    H135402   5.547   6.315   5.308
11819TIP3    H235403   5.525   6.185   5.234
11820TIP3   OH235404   3.226   4.435   4.642
11820TIP3    H135405   3.174   4.383   4.703
11820TIP3    H235406   3.175   4.437   4.561
11821TIP3   OH235407   4.377   6.453   2.306
11821TIP3    H135408   4.429   6.404   2.242
11821TIP3    H235409   4.344   6.529   2.257
11822TIP3   OH235410   4.869   2.481   6.241
11822TIP3    H135411   4.936   2.535   6.198
11822TIP3    H235412   4.786   2.514   6.208
11823TIP3   OH235413   4.136   4.444   4.514
11823TIP3    H135414   4.059   4.497   4.494
11823TIP3    H235415   4.116   4.402   4.597
11824TIP3   OH235416   6.980   3.058   6.412
11824TIP3    H135417   6.935   3.015   6.485
11824TIP3    H235418   7.037   3.122   6.453
11825TIP3   OH235419   4.116   5.357   4.680
11825TIP3    H135420   4.167   5.436   4.666
11825TIP3    H235421   4.073   5.371   4.765
11826TIP3   OH235422   1.062   2.436   5.756
11826TIP3    H135423   1.110   2.365   5.798
11826TIP3    H235424   1.124   2.509   5.753
11827TIP3   OH235425   7.780   7.077   3.103
11827TIP3    H135426   7.752   6.988   3.126
11827TIP3    H235427   7.724   7.101   3.029
11828TIP3   OH235428   6.382   1.344   5.871
11828TIP3    H135429   6.399   1.411   5.805
11828TIP3    H235430   6.443   1.365   5.942
11829TIP3   OH235431   5.257   6.974   6.657
11829TIP3    H135432   5.322   7.044   6.671
11829TIP3    H235433   5.282   6.935   6.574
11830TIP3   OH235434   2.889   6.004   1.664
11830TIP3    H135435   2.834   5.945   1.714
11830TIP3    H235436   2.977   5.992   1.700
11831TIP3   OH235437   4.381   4.258   4.468
11831TIP3    H135438   4.438   4.219   4.402
11831TIP3    H235439   4.315   4.307   4.418
11832TIP3   OH235440   3.708   5.795   5.422
11832TIP3    H135441   3.760   5.792   5.341
11832TIP3    H235442   3.692   5.703   5.443
11833TIP3   OH235443   6.479   6.287   5.660
11833TIP3    H135444   6.476   6.373   5.701
11833TIP3    H235445   6.407   6.238   5.700
11834TIP3   OH235446   7.713   7.368   2.584
11834TIP3    H135447   7.779   7.298   2.585
11834TIP3    H235448   7.710   7.400   2.674
11835TIP3   OH235449   6.495   7.332   6.030
11835TIP3    H135450   6.516   7.322   5.937
11835TIP3    H235451   6.442   7.255   6.051
11836TIP3   OH235452   6.709   5.277   4.386
11836TIP3    H135453   6.767   5.207   4.414
11836TIP3    H235454   6.753   5.358   4.412
11837TIP3   OH235455   2.701   6.246   0.921
11837TIP3    H135456   2.697   6.287   0.834
11837TIP3    H235457   2.740   6.313   0.977
11838TIP3   OH235458   6.962   1.018   4.353
11838TIP3    H135459   6.959   1.072   4.274
11838TIP3    H235460   6.948   0.928   4.322
11839TIP3   OH235461   1.165   6.598   5.869
11839TIP3    H135462   1.169   6.642   5.784
11839TIP3    H235463   1.164   6.505   5.847
11840TIP3   OH235464   0.440   0.106   1.996
11840TIP3    H135465   0.519   0.120   2.048
11840TIP3    H235466   0.463   0.138   1.909
11841TIP3   OH235467   4.734   2.728   2.953
11841TIP3    H135468   4.679   2.690   3.022
11841TIP3    H235469   4.716   2.674   2.876
11842TIP3   OH235470   4.858   3.845   0.295
11842TIP3    H135471   4.869   3.888   0.210
11842TIP3    H235472   4.850   3.917   0.358
11843TIP3   OH235473   5.990   6.407   4.058
11843TIP3    H135474   5.983   6.334   3.997
11843TIP3    H235475   5.903   6.447   4.058
11844TIP3   OH235476   6.060   2.129   2.032
11844TIP3    H135477   6.140   2.076   2.040
11844TIP3    H235478   6.018   2.098   1.952
11845TIP3   OH235479   7.686   5.242   5.902
11845TIP3    H135480   7.707   5.150   5.884
11845TIP3    H235481   7.591   5.248   5.893
11846TIP3   OH235482   3.420   0.093   3.694
11846TIP3    H135483   3.354   0.064   3.632
11846TIP3    H235484   3.370   0.127   3.769
11847TIP3   OH235485  -0.010   0.702   1.216
11847TIP3    H135486   0.050   0.768   1.250
11847TIP3    H235487  -0.002   0.709   1.121
11848TIP3   OH235488   4.110   2.891   3.214
11848TIP3    H135489   4.188   2.888   3.159
11848TIP3    H235490   4.121   2.819   3.276
11849TIP3   OH235491   0.686   0.002   3.897
11849TIP3    H135492   0.712   0.000   3.805
11849TIP3    H235493   0.769   0.005   3.945
11850TIP3   OH235494   5.850   3.768   1.780
11850TIP3    H135495   5.905   3.782   1.703
11850TIP3    H235496   5.823   3.856   1.806
11851TIP3   OH235497   0.112   1.778   5.420
11851TIP3    H135498   0.120   1.744   5.509
11851TIP3    H235499   0.090   1.701   5.367
11852TIP3   OH235500   4.045   7.477   3.398
11852TIP3    H135501   4.136   7.455   3.381
11852TIP3    H235502   4.010   7.503   3.313
11853TIP3   OH235503   4.432   2.522   3.271
11853TIP3    H135504   4.495   2.458   3.303
11853TIP3    H235505   4.485   2.587   3.225
11854TIP3   OH235506   5.916   1.222   5.844
11854TIP3    H135507   5.901   1.310   5.808
11854TIP3    H235508   6.011   1.214   5.848
11855TIP3   OH235509   5.214   0.926   5.032
11855TIP3    H135510   5.145   0.974   4.987
11855TIP3    H235511   5.293   0.978   5.018
11856TIP3   OH235512   1.781   2.081   2.050
11856TIP3    H135513   1.806   2.041   2.134
11856TIP3    H235514   1.822   2.168   2.053
11857TIP3   OH235515   4.694   7.356   4.169
11857TIP3    H135516   4.645   7.401   4.237
11857TIP3    H235517   4.628   7.310   4.117
11858TIP3   OH235518   0.796   3.295   6.571
11858TIP3    H135519   0.819   3.300   6.478
11858TIP3    H235520   0.714   3.344   6.578
11859TIP3   OH235521   5.281   6.437   4.831
11859TIP3    H135522   5.237   6.498   4.890
11859TIP3    H235523   5.297   6.359   4.885
11860TIP3   OH235524   0.972   5.419   1.764
11860TIP3    H135525   0.985   5.489   1.699
11860TIP3    H235526   0.959   5.340   1.712
11861TIP3   OH235527   3.417   1.923   5.718
11861TIP3    H135528   3.462   1.844   5.689
11861TIP3    H235529   3.435   1.929   5.812
11862TIP3   OH235530   4.263   6.305   0.196
11862TIP3    H135531   4.309   6.269   0.120
11862TIP3    H235532   4.262   6.399   0.182
11863TIP3   OH235533   2.787   5.607   3.755
11863TIP3    H135534   2.724   5.542   3.785
11863TIP3    H235535   2.808   5.658   3.834
11864TIP3   OH235536   0.725   1.851   5.158
11864TIP3    H135537   0.750   1.763   5.186
11864TIP3    H235538   0.773   1.910   5.216
11865TIP3   OH235539   3.012   2.728   0.112
11865TIP3    H135540   3.027   2.813   0.154
11865TIP3    H235541   2.926   2.700   0.143
11866TIP3   OH235542   3.471   5.699   1.240
11866TIP3    H135543   3.506   5.788   1.246
11866TIP3    H235544   3.548   5.644   1.232
11867TIP3   OH235545   5.285   0.532   5.598
11867TIP3    H135546   5.269   0.623   5.572
11867TIP3    H235547   5.200   0.500   5.628
11868TIP3   OH235548   1.577   4.990   5.438
11868TIP3    H135549   1.510   5.018   5.376
11868TIP3    H235550   1.660   5.014   5.397
11869TIP3   OH235551   2.754   0.385   6.279
11869TIP3    H135552   2.716   0.305   6.242
11869TIP3    H235553   2.765   0.365   6.372
11870TIP3   OH235554   4.039   2.190   3.414
11870TIP3    H135555   4.111   2.150   3.366
11870TIP3    H235556   4.028   2.277   3.374
11871TIP3   OH235557   0.795   4.514   4.354
11871TIP3    H135558   0.720   4.521   4.412
11871TIP3    H235559   0.871   4.526   4.410
11872TIP3   OH235560   3.335   2.274   4.664
11872TIP3    H135561   3.348   2.208   4.597
11872TIP3    H235562   3.369   2.355   4.626
11873TIP3   OH235563   0.504   2.367   4.799
11873TIP3    H135564   0.508   2.414   4.883
11873TIP3    H235565   0.455   2.287   4.819
11874TIP3   OH235566   4.551   2.148   5.096
11874TIP3    H135567   4.497   2.226   5.088
11874TIP3    H235568   4.488   2.077   5.110
11875TIP3   OH235569   5.206   7.077   2.694
11875TIP3    H135570   5.228   7.105   2.783
11875TIP3    H235571   5.121   7.034   2.703
11876TIP3   OH235572   6.406   4.068   4.198
11876TIP3    H135573   6.372   4.060   4.108
11876TIP3    H235574   6.427   4.160   4.208
11877TIP3   OH235575   5.759   5.013   1.347
11877TIP3    H135576   5.742   5.092   1.400
11877TIP3    H235577   5.672   4.988   1.314
11878TIP3   OH235578   7.176   4.664   1.515
11878TIP3    H135579   7.142   4.617   1.591
11878TIP3    H235580   7.204   4.595   1.455
11879TIP3   OH235581   6.622   6.374   3.503
11879TIP3    H135582   6.717   6.361   3.505
11879TIP3    H235583   6.608   6.435   3.430
11880TIP3   OH235584   7.571   3.035   5.702
11880TIP3    H135585   7.560   3.130   5.715
11880TIP3    H235586   7.510   2.995   5.765
11881TIP3   OH235587   0.716   0.078   6.632
11881TIP3    H135588   0.790   0.059   6.689
11881TIP3    H235589   0.694   0.169   6.651
11882TIP3   OH235590   4.872   1.882   6.523
11882TIP3    H135591   4.946   1.822   6.513
11882TIP3    H235592   4.819   1.844   6.594
11883TIP3   OH235593   5.062   0.597   3.015
11883TIP3    H135594   5.151   0.569   3.035
11883TIP3    H235595   5.066   0.693   3.016
11884TIP3   OH235596   0.712   2.549   1.637
11884TIP3    H135597   0.648   2.507   1.697
11884TIP3    H235598   0.775   2.590   1.696
11885TIP3   OH235599   4.732   2.661   3.212
11885TIP3    H135600   4.793   2.590   3.230
11885TIP3    H235601   4.717   2.703   3.297
11886TIP3   OH235602   3.041   4.573   5.749
11886TIP3    H135603   3.126   4.598   5.712
11886TIP3    H235604   3.042   4.612   5.837
11887TIP3   OH235605   1.266   0.595   5.852
11887TIP3    H135606   1.231   0.600   5.763
11887TIP3    H235607   1.309   0.510   5.857
11888TIP3   OH235608   3.102   6.570   5.104
11888TIP3    H135609   3.024   6.618   5.135
11888TIP3    H235610   3.159   6.566   5.180
11889TIP3   OH235611   7.893   7.738   4.085
11889TIP3    H135612   7.877   7.741   3.990
11889TIP3    H235613   7.983   7.709   4.093
11890TIP3   OH235614   0.568   5.732   6.428
11890TIP3    H135615   0.602   5.654   6.472
11890TIP3    H235616   0.587   5.718   6.335
11891TIP3   OH235617   4.747   2.240   1.158
11891TIP3    H135618   4.750   2.146   1.175
11891TIP3    H235619   4.832   2.260   1.119
11892TIP3   OH235620   1.588   4.417   5.016
11892TIP3    H135621   1.618   4.326   5.019
11892TIP3    H235622   1.541   4.429   5.099
11893TIP3   OH235623   3.198   6.803   4.178
11893TIP3    H135624   3.155   6.885   4.200
11893TIP3    H235625   3.291   6.821   4.190
11894TIP3   OH235626   3.158   3.614   4.467
11894TIP3    H135627   3.223   3.672   4.428
11894TIP3    H235628   3.208   3.535   4.490
11895TIP3   OH235629   7.658   5.862   2.724
11895TIP3    H135630   7.613   5.853   2.808
11895TIP3    H235631   7.631   5.786   2.673
11896TIP3   OH235632   1.906   3.463   2.978
11896TIP3    H135633   1.859   3.474   3.060
11896TIP3    H235634   1.838   3.444   2.913
11897TIP3   OH235635   4.821   2.862   2.374
11897TIP3    H135636   4.901   2.881   2.324
11897TIP3    H235637   4.752   2.862   2.308
11898TIP3   OH235638   3.454   6.480   2.858
11898TIP3    H135639   3.374   6.429   2.847
11898TIP3    H235640   3.525   6.417   2.850
11899TIP3   OH235641   0.887   3.631   1.975
11899TIP3    H135642   0.846   3.712   2.006
11899TIP3    H235643   0.862   3.626   1.882
11900TIP3   OH235644   5.223   4.067   5.986
11900TIP3    H135645   5.197   4.111   6.067
11900TIP3    H235646   5.144   4.070   5.931
11901TIP3   OH235647   3.344   5.361   4.199
11901TIP3    H135648   3.308   5.443   4.232
11901TIP3    H235649   3.274   5.324   4.144
11902TIP3   OH235650   5.116   0.469   1.031
11902TIP3    H135651   5.187   0.521   1.068
11902TIP3    H235652   5.085   0.414   1.103
11903TIP3   OH235653   6.242   0.557   0.427
11903TIP3    H135654   6.286   0.614   0.490
11903TIP3    H235655   6.276   0.469   0.445
11904TIP3   OH235656   0.487   5.350   6.585
11904TIP3    H135657   0.498   5.382   6.674
11904TIP3    H235658   0.454   5.261   6.596
11905TIP3   OH235659   6.516   0.489   4.923
11905TIP3    H135660   6.521   0.425   4.994
11905TIP3    H235661   6.551   0.569   4.962
11906TIP3   OH235662   4.605   7.636   1.041
11906TIP3    H135663   4.578   7.552   1.077
11906TIP3    H235664   4.570   7.701   1.103
11907TIP3   OH235665   7.114   6.314   1.734
11907TIP3    H135666   7.103   6.391   1.678
11907TIP3    H235667   7.058   6.247   1.694
11908TIP3   OH235668   7.605   3.934   1.979
11908TIP3    H135669   7.628   4.013   2.028
11908TIP3    H235670   7.674   3.925   1.914
11909TIP3   OH235671   5.346   5.780   1.250
11909TIP3    H135672   5.405   5.832   1.195
11909TIP3    H235673   5.379   5.690   1.240
11910TIP3   OH235674   6.863   4.199   0.366
11910TIP3    H135675   6.827   4.148   0.439
11910TIP3    H235676   6.808   4.277   0.362
11911TIP3   OH235677   4.390   3.039   1.652
11911TIP3    H135678   4.441   2.970   1.610
11911TIP3    H235679   4.300   3.006   1.650
11912TIP3   OH235680   2.551   3.198   2.085
11912TIP3    H135681   2.575   3.122   2.138
11912TIP3    H235682   2.495   3.251   2.141
11913TIP3   OH235683   2.848   0.384   6.547
11913TIP3    H135684   2.910   0.387   6.620
11913TIP3    H235685   2.779   0.445   6.570
11914TIP3   OH235686   1.049   3.951   3.703
11914TIP3    H135687   0.969   3.926   3.750
11914TIP3    H235688   1.105   3.873   3.710
11915TIP3   OH235689   7.599   1.672   4.041
11915TIP3    H135690   7.505   1.655   4.034
11915TIP3    H235691   7.638   1.618   3.973
11916TIP3   OH235692   5.588   7.720   5.399
11916TIP3    H135693   5.508   7.668   5.400
11916TIP3    H235694   5.583   7.769   5.316
11917TIP3   OH235695   6.739   1.429   3.243
11917TIP3    H135696   6.701   1.357   3.192
11917TIP3    H235697   6.707   1.416   3.332
11918TIP3   OH235698   0.462   6.491   4.477
11918TIP3    H135699   0.401   6.419   4.490
11918TIP3    H235700   0.549   6.451   4.481
11919TIP3   OH235701   2.347   2.432   2.515
11919TIP3    H135702   2.411   2.503   2.524
11919TIP3    H235703   2.268   2.466   2.557
11920TIP3   OH235704   5.128   2.485   1.412
11920TIP3    H135705   5.194   2.553   1.426
11920TIP3    H235706   5.136   2.428   1.488
11921TIP3   OH235707   1.201   2.268   5.989
11921TIP3    H135708   1.215   2.222   6.071
11921TIP3    H235709   1.271   2.236   5.932
11922TIP3   OH235710   1.604   1.002   6.399
11922TIP3    H135711   1.537   1.031   6.338
11922TIP3    H235712   1.591   0.908   6.407
11923TIP3   OH235713   1.554   4.064   3.125
11923TIP3    H135714   1.491   4.132   3.101
11923TIP3    H235715   1.613   4.107   3.187
11924TIP3   OH235716   6.440   0.796   0.340
11924TIP3    H135717   6.436   0.813   0.246
11924TIP3    H235718   6.414   0.879   0.381
11925TIP3   OH235719   2.995   4.666   3.266
11925TIP3    H135720   2.945   4.584   3.267
11925TIP3    H235721   2.940   4.728   3.218
11926TIP3   OH235722   7.120   0.761   5.847
11926TIP3    H135723   7.200   0.723   5.810
11926TIP3    H235724   7.050   0.732   5.787
11927TIP3   OH235725   8.180   3.573   2.382
11927TIP3    H135726   8.273   3.570   2.361
11927TIP3    H235727   8.146   3.645   2.328
11928TIP3   OH235728   5.370   2.635   5.645
11928TIP3    H135729   5.290   2.665   5.688
11928TIP3    H235730   5.359   2.662   5.554
11929TIP3   OH235731   4.267   2.706   3.642
11929TIP3    H135732   4.357   2.673   3.646
11929TIP3    H235733   4.227   2.679   3.725
11930TIP3   OH235734   7.934   6.943   2.225
11930TIP3    H135735   7.917   6.980   2.138
11930TIP3    H235736   7.969   6.855   2.207
11931TIP3   OH235737   8.174   3.618   1.461
11931TIP3    H135738   8.185   3.604   1.367
11931TIP3    H235739   8.246   3.675   1.486
11932TIP3   OH235740   6.530   1.097   4.608
11932TIP3    H135741   6.509   1.186   4.579
11932TIP3    H235742   6.620   1.084   4.581
11933TIP3   OH235743   7.199   1.429   1.592
11933TIP3    H135744   7.269   1.406   1.532
11933TIP3    H235745   7.227   1.512   1.632
11934TIP3   OH235746   6.619   6.003   6.512
11934TIP3    H135747   6.530   6.000   6.548
11934TIP3    H235748   6.609   5.973   6.421
11935TIP3   OH235749   0.190   7.424   0.420
11935TIP3    H135750   0.278   7.413   0.384
11935TIP3    H235751   0.199   7.404   0.513
11936TIP3   OH235752   6.948   4.079   5.944
11936TIP3    H135753   6.896   4.154   5.973
11936TIP3    H235754   6.922   4.065   5.853
11937TIP3   OH235755   3.243   6.426   3.910
11937TIP3    H135756   3.233   6.337   3.943
11937TIP3    H235757   3.338   6.437   3.901
11938TIP3   OH235758   3.552   3.003   6.581
11938TIP3    H135759   3.532   2.977   6.671
11938TIP3    H235760   3.530   3.097   6.578
11939TIP3   OH235761   4.323   4.678   6.282
11939TIP3    H135762   4.372   4.640   6.209
11939TIP3    H235763   4.368   4.646   6.360
11940TIP3   OH235764   3.426   6.656   5.794
11940TIP3    H135765   3.511   6.700   5.791
11940TIP3    H235766   3.406   6.638   5.702
11941TIP3   OH235767   5.509   7.791   4.468
11941TIP3    H135768   5.527   7.697   4.474
11941TIP3    H235769   5.414   7.797   4.462
11942TIP3   OH235770   4.938   3.174   2.499
11942TIP3    H135771   4.865   3.113   2.490
11942TIP3    H235772   4.937   3.200   2.591
11943TIP3   OH235773   2.425   6.485   6.118
11943TIP3    H135774   2.405   6.432   6.041
11943TIP3    H235775   2.518   6.505   6.110
11944TIP3   OH235776   8.139   2.279   2.244
11944TIP3    H135777   8.075   2.235   2.187
11944TIP3    H235778   8.214   2.220   2.246
11945TIP3   OH235779   5.818   0.892   2.266
11945TIP3    H135780   5.799   0.939   2.347
11945TIP3    H235781   5.814   0.959   2.197
11946TIP3   OH235782   1.001   1.464   4.261
11946TIP3    H135783   1.072   1.518   4.226
11946TIP3    H235784   0.924   1.522   4.261
11947TIP3   OH235785   6.547   1.727   0.688
11947TIP3    H135786   6.563   1.806   0.741
11947TIP3    H235787   6.575   1.751   0.600
11948TIP3   OH235788   0.651   3.330   0.489
11948TIP3    H135789   0.685   3.260   0.545
11948TIP3    H235790   0.557   3.317   0.489
11949TIP3   OH235791   0.457   5.728   5.342
11949TIP3    H135792   0.365   5.741   5.317
11949TIP3    H235793   0.496   5.815   5.337
11950TIP3   OH235794   0.196   2.508   2.341
11950TIP3    H135795   0.107   2.538   2.322
11950TIP3    H235796   0.184   2.428   2.393
11951TIP3   OH235797   1.460   3.446   4.309
11951TIP3    H135798   1.415   3.479   4.387
11951TIP3    H235799   1.552   3.465   4.325
11952TIP3   OH235800   1.426   3.708   1.304
11952TIP3    H135801   1.404   3.800   1.294
11952TIP3    H235802   1.457   3.681   1.218
11953TIP3   OH235803   7.710   0.216   1.638
11953TIP3    H135804   7.655   0.183   1.710
11953TIP3    H235805   7.647   0.248   1.573
11954TIP3   OH235806   5.643   4.006   5.130
11954TIP3    H135807   5.553   4.020   5.157
11954TIP3    H235808   5.695   4.058   5.191
11955TIP3   OH235809   3.474   2.633   2.093
11955TIP3    H135810   3.540   2.587   2.040
11955TIP3    H235811   3.524   2.702   2.137
11956TIP3   OH235812   0.355   5.367   2.924
11956TIP3    H135813   0.265   5.369   2.891
11956TIP3    H235814   0.347   5.365   3.019
11957TIP3   OH235815   6.806   5.987   0.045
11957TIP3    H135816   6.732   5.928   0.033
11957TIP3    H235817   6.883   5.933   0.028
11958TIP3   OH235818   1.304   6.702   3.986
11958TIP3    H135819   1.301   6.606   3.991
11958TIP3    H235820   1.294   6.731   4.076
11959TIP3   OH235821   8.274   4.042   3.497
11959TIP3    H135822   8.306   3.960   3.460
11959TIP3    H235823   8.179   4.035   3.493
11960TIP3   OH235824   0.349   3.260   0.450
11960TIP3    H135825   0.308   3.344   0.431
11960TIP3    H235826   0.402   3.241   0.373
11961TIP3   OH235827   8.283   7.719   3.488
11961TIP3    H135828   8.213   7.772   3.525
11961TIP3    H235829   8.332   7.779   3.431
11962TIP3   OH235830   0.146   6.070   5.315
11962TIP3    H135831   0.075   6.131   5.292
11962TIP3    H235832   0.214   6.126   5.353
11963TIP3   OH235833   5.355   5.647   2.496
11963TIP3    H135834   5.350   5.553   2.513
11963TIP3    H235835   5.388   5.685   2.578
11964TIP3   OH235836   1.545   1.155   0.558
11964TIP3    H135837   1.557   1.249   0.572
11964TIP3    H235838   1.460   1.135   0.597
11965TIP3   OH235839   0.051   4.299   4.080
11965TIP3    H135840  -0.016   4.334   4.022
11965TIP3    H235841   0.007   4.292   4.165
11966TIP3   OH235842   0.099   0.922   4.535
11966TIP3    H135843   0.030   0.938   4.600
11966TIP3    H235844   0.054   0.926   4.451
11967TIP3   OH235845   4.977   7.632   3.556
11967TIP3    H135846   5.048   7.684   3.592
11967TIP3    H235847   4.933   7.594   3.632
11968TIP3   OH235848   2.429   6.079   0.914
11968TIP3    H135849   2.511   6.129   0.911
11968TIP3    H235850   2.458   5.989   0.929
11969TIP3   OH235851   0.954   7.097   3.662
11969TIP3    H135852   0.879   7.121   3.715
11969TIP3    H235853   1.029   7.104   3.721
11970TIP3   OH235854   6.681   5.626   5.016
11970TIP3    H135855   6.755   5.684   5.001
11970TIP3    H235856   6.721   5.542   5.039
11971TIP3   OH235857   0.344   7.666   0.850
11971TIP3    H135858   0.437   7.652   0.829
11971TIP3    H235859   0.344   7.744   0.906
11972TIP3   OH235860   4.340   5.554   4.156
11972TIP3    H135861   4.401   5.520   4.090
11972TIP3    H235862   4.345   5.491   4.228
11973TIP3   OH235863   0.397   2.340   5.502
11973TIP3    H135864   0.493   2.339   5.503
11973TIP3    H235865   0.373   2.264   5.450
11974TIP3   OH235866   0.546   1.685   3.121
11974TIP3    H135867   0.535   1.642   3.036
11974TIP3    H235868   0.464   1.669   3.166
11975TIP3   OH235869   4.577   2.358   0.961
11975TIP3    H135870   4.602   2.283   1.014
11975TIP3    H235871   4.600   2.434   1.014
11976TIP3   OH235872   4.119   4.029   1.763
11976TIP3    H135873   4.212   4.030   1.742
11976TIP3    H235874   4.110   4.089   1.837
11977TIP3   OH235875   5.545   2.384   6.188
11977TIP3    H135876   5.578   2.345   6.107
11977TIP3    H235877   5.450   2.378   6.181
11978TIP3   OH235878   6.743   7.394   3.220
11978TIP3    H135879   6.729   7.336   3.145
11978TIP3    H235880   6.835   7.384   3.242
11979TIP3   OH235881   8.054   7.059   2.432
11979TIP3    H135882   7.998   7.030   2.360
11979TIP3    H235883   8.142   7.033   2.406
11980TIP3   OH235884   1.386   5.861   4.800
11980TIP3    H135885   1.416   5.863   4.709
11980TIP3    H235886   1.380   5.768   4.821
11981TIP3   OH235887   4.947   2.380   2.243
11981TIP3    H135888   4.864   2.376   2.196
11981TIP3    H235889   4.998   2.446   2.196
11982TIP3   OH235890   6.950   7.538   4.845
11982TIP3    H135891   6.935   7.487   4.765
11982TIP3    H235892   6.907   7.622   4.827
11983TIP3   OH235893   6.452   2.138   1.487
11983TIP3    H135894   6.542   2.105   1.495
11983TIP3    H235895   6.434   2.135   1.393
11984TIP3   OH235896   0.301   0.418   4.038
11984TIP3    H135897   0.330   0.334   4.001
11984TIP3    H235898   0.298   0.403   4.132
11985TIP3   OH235899   7.184   6.580   0.544
11985TIP3    H135900   7.159   6.538   0.462
11985TIP3    H235901   7.105   6.578   0.598
11986TIP3   OH235902   7.388   2.014   5.971
11986TIP3    H135903   7.338   2.035   5.892
11986TIP3    H235904   7.470   2.062   5.962
11987TIP3   OH235905   6.097   3.478   6.557
11987TIP3    H135906   6.138   3.414   6.616
11987TIP3    H235907   6.006   3.449   6.549
11988TIP3   OH235908   6.707   4.137   5.805
11988TIP3    H135909   6.619   4.127   5.841
11988TIP3    H235910   6.708   4.080   5.728
11989TIP3   OH235911   6.775   6.726   0.423
11989TIP3    H135912   6.793   6.815   0.453
11989TIP3    H235913   6.783   6.731   0.327
11990TIP3   OH235914  -0.001   6.248   2.502
11990TIP3    H135915   0.088   6.258   2.469
11990TIP3    H235916  -0.031   6.165   2.464
11991TIP3   OH235917   1.307   1.904   3.170
11991TIP3    H135918   1.360   1.975   3.132
11991TIP3    H235919   1.300   1.926   3.263
11992TIP3   OH235920   6.594   5.792   0.051
11992TIP3    H135921   6.628   5.749  -0.028
11992TIP3    H235922   6.589   5.721   0.116
11993TIP3   OH235923   2.224   2.776   0.625
11993TIP3    H135924   2.259   2.792   0.713
11993TIP3    H235925   2.129   2.770   0.637
11994TIP3   OH235926   8.115   5.226   5.258
11994TIP3    H135927   8.163   5.144   5.246
11994TIP3    H235928   8.095   5.256   5.169
11995TIP3   OH235929   1.966   3.345   4.638
11995TIP3    H135930   2.009   3.390   4.565
11995TIP3    H235931   1.933   3.264   4.600
11996TIP3   OH235932   5.718   1.749   6.025
11996TIP3    H135933   5.661   1.785   6.093
11996TIP3    H235934   5.784   1.699   6.074
11997TIP3   OH235935   1.646   6.564   6.526
11997TIP3    H135936   1.653   6.513   6.606
11997TIP3    H235937   1.649   6.656   6.555
11998TIP3   OH235938   2.227   3.570   4.543
11998TIP3    H135939   2.166   3.644   4.542
11998TIP3    H235940   2.274   3.580   4.626
11999TIP3   OH235941   4.895   6.610   3.070
11999TIP3    H135942   4.880   6.694   3.028
11999TIP3    H235943   4.867   6.545   3.005
12000TIP3   OH235944   2.790   2.845   2.377
12000TIP3    H135945   2.807   2.792   2.455
12000TIP3    H235946   2.847   2.921   2.386
12001TIP3   OH235947   2.004   6.283   5.755
12001TIP3    H135948   1.913   6.260   5.738
12001TIP3    H235949   2.001   6.343   5.830
12002TIP3   OH235950   7.815   3.647   6.637
12002TIP3    H135951   7.846   3.734   6.614
12002TIP3    H235952   7.733   3.663   6.684
12003TIP3   OH235953   4.144   7.600   1.333
12003TIP3    H135954   4.178   7.523   1.287
12003TIP3    H235955   4.052   7.582   1.347
12004TIP3   OH235956   2.073   4.871   2.398
12004TIP3    H135957   2.150   4.815   2.385
12004TIP3    H235958   2.035   4.879   2.311
12005TIP3   OH235959   4.661   3.171   6.206
12005TIP3    H135960   4.746   3.197   6.170
12005TIP3    H235961   4.609   3.146   6.129
12006TIP3   OH235962   3.829   7.464   2.869
12006TIP3    H135963   3.904   7.460   2.810
12006TIP3    H235964   3.786   7.379   2.860
12007TIP3   OH235965   4.261   1.615   3.043
12007TIP3    H135966   4.306   1.616   3.127
12007TIP3    H235967   4.303   1.544   2.994
12008TIP3   OH235968   7.197   0.867   6.436
12008TIP3    H135969   7.132   0.916   6.386
12008TIP3    H235970   7.245   0.817   6.370
12009TIP3   OH235971   5.838   0.284   5.821
12009TIP3    H135972   5.782   0.330   5.759
12009TIP3    H235973   5.869   0.352   5.880
12010TIP3   OH235974   5.143   7.804   2.781
12010TIP3    H135975   5.071   7.789   2.720
12010TIP3    H235976   5.182   7.717   2.794
12011TIP3   OH235977   0.793   0.252   5.339
12011TIP3    H135978   0.743   0.200   5.276
12011TIP3    H235979   0.849   0.188   5.383
12012TIP3   OH235980   1.714   0.505   2.034
12012TIP3    H135981   1.754   0.566   2.096
12012TIP3    H235982   1.673   0.562   1.969
12013TIP3   OH235983   7.518   3.054   0.094
12013TIP3    H135984   7.489   3.064   0.003
12013TIP3    H235985   7.605   3.014   0.087
12014TIP3   OH235986   3.063   0.381   2.398
12014TIP3    H135987   2.992   0.330   2.438
12014TIP3    H235988   3.136   0.371   2.458
12015TIP3   OH235989   4.309   0.284   3.262
12015TIP3    H135990   4.255   0.360   3.285
12015TIP3    H235991   4.397   0.308   3.290
12016TIP3   OH235992   6.720   6.822   5.359
12016TIP3    H135993   6.672   6.739   5.361
12016TIP3    H235994   6.768   6.820   5.276
12017TIP3   OH235995   0.162   1.500   1.739
12017TIP3    H135996   0.173   1.584   1.694
12017TIP3    H235997   0.247   1.481   1.776
12018TIP3   OH235998   2.448   3.691   3.388
12018TIP3    H135999   2.535   3.720   3.415
12018TIP3    H236000   2.442   3.716   3.296
12019TIP3   OH236001   2.799   7.645   0.117
12019TIP3    H136002   2.776   7.612   0.031
12019TIP3    H236003   2.808   7.739   0.105
12020TIP3   OH236004   5.677   0.654   3.371
12020TIP3    H136005   5.645   0.647   3.281
12020TIP3    H236006   5.627   0.726   3.408
12021TIP3   OH236007   5.177   5.205   5.711
12021TIP3    H136008   5.223   5.278   5.753
12021TIP3    H236009   5.110   5.248   5.657
12022TIP3   OH236010   1.346   2.849   1.191
12022TIP3    H136011   1.334   2.758   1.218
12022TIP3    H236012   1.258   2.886   1.189
12023TIP3   OH236013   4.987   7.413   5.122
12023TIP3    H136014   4.990   7.339   5.061
12023TIP3    H236015   5.069   7.459   5.107
12024TIP3   OH236016   3.117   2.845   4.631
12024TIP3    H136017   3.200   2.803   4.654
12024TIP3    H236018   3.099   2.904   4.704
12025TIP3   OH236019   4.063   4.567   3.928
12025TIP3    H136020   4.069   4.505   4.001
12025TIP3    H236021   4.033   4.649   3.967
12026TIP3   OH236022   1.204   0.751   0.906
12026TIP3    H136023   1.220   0.657   0.914
12026TIP3    H236024   1.285   0.792   0.936
12027TIP3   OH236025   6.714   6.728   2.545
12027TIP3    H136026   6.694   6.649   2.594
12027TIP3    H236027   6.733   6.794   2.612
12028TIP3   OH236028   6.939   7.624   2.329
12028TIP3    H136029   6.982   7.640   2.414
12028TIP3    H236030   6.896   7.707   2.308
12029TIP3   OH236031   0.441   3.165   0.207
12029TIP3    H136032   0.418   3.167   0.114
12029TIP3    H236033   0.534   3.139   0.208
12030TIP3   OH236034   6.335   3.896   0.157
12030TIP3    H136035   6.293   3.822   0.200
12030TIP3    H236036   6.300   3.894   0.068
12031TIP3   OH236037   6.563   0.290   3.433
12031TIP3    H136038   6.543   0.358   3.497
12031TIP3    H236039   6.606   0.337   3.361
12032TIP3   OH236040   6.896   5.517   0.416
12032TIP3    H136041   6.956   5.444   0.402
12032TIP3    H236042   6.889   5.559   0.330
12033TIP3   OH236043   7.482   6.199   5.672
12033TIP3    H136044   7.412   6.239   5.621
12033TIP3    H236045   7.497   6.260   5.745
12034TIP3   OH236046   1.821   1.570   2.744
12034TIP3    H136047   1.834   1.637   2.811
12034TIP3    H236048   1.772   1.501   2.789
12035TIP3   OH236049   4.625   2.362   3.373
12035TIP3    H136050   4.673   2.401   3.446
12035TIP3    H236051   4.686   2.365   3.300
12036TIP3   OH236052   7.170   6.111   1.165
12036TIP3    H136053   7.139   6.201   1.171
12036TIP3    H236054   7.255   6.117   1.121
12037TIP3   OH236055   2.577   3.919   4.898
12037TIP3    H136056   2.484   3.909   4.918
12037TIP3    H236057   2.583   4.001   4.850
12038TIP3   OH236058   2.883   6.201   5.449
12038TIP3    H136059   2.957   6.141   5.442
12038TIP3    H236060   2.839   6.175   5.530
12039TIP3   OH236061   4.725   2.520   2.724
12039TIP3    H136062   4.661   2.452   2.748
12039TIP3    H236063   4.775   2.481   2.653
12040TIP3   OH236064   5.728   6.859   0.985
12040TIP3    H136065   5.666   6.885   0.917
12040TIP3    H236066   5.681   6.871   1.067
12041TIP3   OH236067   0.724   4.679   3.202
12041TIP3    H136068   0.693   4.596   3.238
12041TIP3    H236069   0.819   4.674   3.209
12042TIP3   OH236070   3.617   3.529   4.933
12042TIP3    H136071   3.636   3.563   5.020
12042TIP3    H236072   3.701   3.533   4.887
12043TIP3   OH236073   6.204   7.327   4.011
12043TIP3    H136074   6.216   7.255   4.073
12043TIP3    H236075   6.231   7.405   4.060
12044TIP3   OH236076   0.592   0.712   0.932
12044TIP3    H136077   0.520   0.752   0.982
12044TIP3    H236078   0.664   0.775   0.940
12045TIP3   OH236079   2.851   6.469   4.843
12045TIP3    H136080   2.943   6.496   4.841
12045TIP3    H236081   2.840   6.416   4.764
12046TIP3   OH236082   5.014   1.104   2.718
12046TIP3    H136083   5.067   1.048   2.660
12046TIP3    H236084   5.036   1.193   2.692
12047TIP3   OH236085   7.687   6.745   6.044
12047TIP3    H136086   7.613   6.796   6.076
12047TIP3    H236087   7.760   6.807   6.042
12048TIP3   OH236088   6.419   6.079   0.534
12048TIP3    H136089   6.455   6.020   0.467
12048TIP3    H236090   6.330   6.096   0.506
12049TIP3   OH236091   7.045   5.681   6.148
12049TIP3    H136092   7.077   5.770   6.165
12049TIP3    H236093   6.950   5.687   6.159
12050TIP3   OH236094   1.267   7.701   3.498
12050TIP3    H136095   1.283   7.653   3.417
12050TIP3    H236096   1.269   7.793   3.472
12051TIP3   OH236097   4.329   6.650   2.122
12051TIP3    H136098   4.394   6.679   2.058
12051TIP3    H236099   4.274   6.588   2.074
12052TIP3   OH236100   7.316   0.767   2.984
12052TIP3    H136101   7.288   0.813   3.063
12052TIP3    H236102   7.234   0.742   2.941
12053TIP3   OH236103   3.620   4.392   6.284
12053TIP3    H136104   3.545   4.336   6.263
12053TIP3    H236105   3.603   4.473   6.236
12054TIP3   OH236106   1.203   2.843   4.461
12054TIP3    H136107   1.241   2.869   4.378
12054TIP3    H236108   1.149   2.766   4.440
12055TIP3   OH236109   0.243   7.836   4.628
12055TIP3    H136110   0.211   7.746   4.621
12055TIP3    H236111   0.321   7.839   4.573
12056TIP3   OH236112   5.681   6.803   6.484
12056TIP3    H136113   5.711   6.875   6.540
12056TIP3    H236114   5.629   6.845   6.416
12057TIP3   OH236115   7.669   0.324   5.291
12057TIP3    H136116   7.713   0.399   5.250
12057TIP3    H236117   7.670   0.345   5.385
12058TIP3   OH236118   2.298   7.363   6.132
12058TIP3    H136119   2.335   7.383   6.218
12058TIP3    H236120   2.212   7.404   6.132
12059TIP3   OH236121   8.266   2.710   4.972
12059TIP3    H136122   8.198   2.777   4.979
12059TIP3    H236123   8.257   2.658   5.052
12060TIP3   OH236124   7.976   2.317   6.657
12060TIP3    H136125   7.928   2.289   6.579
12060TIP3    H236126   8.008   2.405   6.635
12061TIP3   OH236127   0.907   7.702   5.732
12061TIP3    H136128   0.911   7.676   5.824
12061TIP3    H236129   0.923   7.621   5.684
12062TIP3   OH236130   7.486   7.103   0.383
12062TIP3    H136131   7.549   7.122   0.314
12062TIP3    H236132   7.538   7.057   0.450
12063TIP3   OH236133   5.057   1.139   4.876
12063TIP3    H136134   5.032   1.226   4.907
12063TIP3    H236135   4.974   1.091   4.869
12064TIP3   OH236136   1.581   4.154   5.084
12064TIP3    H136137   1.590   4.060   5.064
12064TIP3    H236138   1.515   4.156   5.154
12065TIP3   OH236139   5.354   7.646   6.067
12065TIP3    H136140   5.306   7.640   5.984
12065TIP3    H236141   5.398   7.561   6.074
12066TIP3   OH236142   0.216   4.529   1.081
12066TIP3    H136143   0.240   4.619   1.063
12066TIP3    H236144   0.284   4.497   1.140
12067TIP3   OH236145   2.608   3.272   5.183
12067TIP3    H136146   2.538   3.212   5.211
12067TIP3    H236147   2.615   3.257   5.089
12068TIP3   OH236148   3.197   5.177   4.763
12068TIP3    H136149   3.265   5.124   4.803
12068TIP3    H236150   3.222   5.267   4.781
12069TIP3   OH236151   1.256   2.259   0.697
12069TIP3    H136152   1.294   2.339   0.661
12069TIP3    H236153   1.300   2.188   0.651
12070TIP3   OH236154   2.812   3.918   5.834
12070TIP3    H136155   2.788   3.980   5.903
12070TIP3    H236156   2.820   3.973   5.755
12071TIP3   OH236157   1.728   7.053   2.781
12071TIP3    H136158   1.688   7.014   2.858
12071TIP3    H236159   1.750   6.978   2.725
12072TIP3   OH236160   5.030   4.672   5.356
12072TIP3    H136161   5.081   4.751   5.342
12072TIP3    H236162   5.080   4.622   5.420
12073TIP3   OH236163   1.508   2.523   2.323
12073TIP3    H136164   1.600   2.510   2.301
12073TIP3    H236165   1.492   2.616   2.309
12074TIP3   OH236166   3.935   7.144   0.435
12074TIP3    H136167   4.028   7.120   0.436
12074TIP3    H236168   3.894   7.072   0.387
12075TIP3   OH236169   4.028   7.500   5.766
12075TIP3    H136170   3.997   7.426   5.715
12075TIP3    H236171   4.093   7.463   5.825
12076TIP3   OH236172   0.235   5.372   4.650
12076TIP3    H136173   0.255   5.380   4.743
12076TIP3    H236174   0.302   5.311   4.616
12077TIP3   OH236175   7.095   2.648   0.377
12077TIP3    H136176   7.123   2.679   0.291
12077TIP3    H236177   7.040   2.572   0.358
12078TIP3   OH236178   3.884   4.011   1.607
12078TIP3    H136179   3.975   4.010   1.636
12078TIP3    H236180   3.838   4.065   1.671
12079TIP3   OH236181   7.479   2.805   0.706
12079TIP3    H136182   7.390   2.781   0.678
12079TIP3    H236183   7.505   2.876   0.647
12080TIP3   OH236184   0.166   0.249   3.585
12080TIP3    H136185   0.171   0.171   3.641
12080TIP3    H236186   0.189   0.322   3.642
12081TIP3   OH236187   6.241   4.406   6.118
12081TIP3    H136188   6.232   4.341   6.048
12081TIP3    H236189   6.164   4.461   6.111
12082TIP3   OH236190   1.937   4.001   3.571
12082TIP3    H136191   1.892   3.921   3.542
12082TIP3    H236192   1.876   4.043   3.632
12083TIP3   OH236193   5.278   1.087   0.899
12083TIP3    H136194   5.227   1.070   0.978
12083TIP3    H236195   5.276   1.182   0.889
12084TIP3   OH236196   2.681   4.723   5.790
12084TIP3    H136197   2.673   4.671   5.710
12084TIP3    H236198   2.755   4.781   5.773
12085TIP3   OH236199   3.987   6.026   0.255
12085TIP3    H136200   4.056   6.009   0.320
12085TIP3    H236201   3.946   6.107   0.284
12086TIP3   OH236202   8.033   5.999   5.393
12086TIP3    H136203   7.943   6.030   5.384
12086TIP3    H236204   8.029   5.936   5.465
12087TIP3   OH236205   5.643   3.904   5.653
12087TIP3    H136206   5.550   3.885   5.663
12087TIP3    H236207   5.649   3.956   5.573
12088TIP3   OH236208   4.556   1.062   1.621
12088TIP3    H136209   4.470   1.104   1.633
12088TIP3    H236210   4.619   1.133   1.624
12089TIP3   OH236211   7.552   6.650   3.627
12089TIP3    H136212   7.573   6.670   3.718
12089TIP3    H236213   7.636   6.649   3.582
12090TIP3   OH236214   6.015   2.858   0.323
12090TIP3    H136215   5.954   2.869   0.396
12090TIP3    H236216   6.082   2.925   0.337
12091TIP3   OH236217   7.801   3.094   5.141
12091TIP3    H136218   7.835   3.149   5.070
12091TIP3    H236219   7.723   3.052   5.104
12092TIP3   OH236220   2.744   4.117   1.962
12092TIP3    H136221   2.704   4.068   1.890
12092TIP3    H236222   2.836   4.089   1.962
12093TIP3   OH236223   0.629   0.684   2.735
12093TIP3    H136224   0.684   0.690   2.658
12093TIP3    H236225   0.689   0.696   2.809
12094TIP3   OH236226   1.043  -0.034   1.511
12094TIP3    H136227   1.115   0.019   1.474
12094TIP3    H236228   0.976   0.030   1.535
12095TIP3   OH236229   1.111   7.559   4.476
12095TIP3    H136230   1.071   7.542   4.391
12095TIP3    H236231   1.053   7.623   4.518
12096TIP3   OH236232   0.536   2.758   4.332
12096TIP3    H136233   0.587   2.677   4.330
12096TIP3    H236234   0.601   2.828   4.339
12097TIP3   OH236235   4.895   0.354   0.870
12097TIP3    H136236   4.951   0.356   0.948
12097TIP3    H236237   4.956   0.355   0.796
12098TIP3   OH236238   4.142   0.141   0.216
12098TIP3    H136239   4.233   0.170   0.207
12098TIP3    H236240   4.093   0.221   0.236
12099TIP3   OH236241   6.452   6.325   0.270
12099TIP3    H136242   6.410   6.260   0.215
12099TIP3    H236243   6.389   6.341   0.341
12100TIP3   OH236244   4.818   1.982   0.867
12100TIP3    H136245   4.889   2.038   0.837
12100TIP3    H236246   4.831   1.975   0.962
12101TIP3   OH236247   4.509   6.782   5.591
12101TIP3    H136248   4.563   6.816   5.519
12101TIP3    H236249   4.422   6.771   5.552
12102TIP3   OH236250   3.428   1.031   2.450
12102TIP3    H136251   3.476   0.948   2.443
12102TIP3    H236252   3.479   1.083   2.512
12103TIP3   OH236253   0.279   5.692   4.138
12103TIP3    H136254   0.223   5.620   4.108
12103TIP3    H236255   0.357   5.687   4.083
12104TIP3   OH236256   4.642   6.793   2.659
12104TIP3    H136257   4.591   6.740   2.720
12104TIP3    H236258   4.640   6.745   2.577
12105TIP3   OH236259   6.781   4.943   1.058
12105TIP3    H136260   6.712   5.000   1.024
12105TIP3    H236261   6.746   4.910   1.141
12106TIP3   OH236262   1.241   1.291   2.874
12106TIP3    H136263   1.330   1.322   2.889
12106TIP3    H236264   1.197   1.301   2.959
12107TIP3   OH236265   5.303   1.040   2.999
12107TIP3    H136266   5.226   1.009   3.048
12107TIP3    H236267   5.326   1.123   3.040
12108TIP3   OH236268   5.361   6.799   4.373
12108TIP3    H136269   5.364   6.812   4.278
12108TIP3    H236270   5.361   6.704   4.383
12109TIP3   OH236271   3.944   7.370   4.550
12109TIP3    H136272   3.925   7.412   4.634
12109TIP3    H236273   3.858   7.353   4.512
12110TIP3   OH236274   2.251   5.868   5.061
12110TIP3    H136275   2.205   5.845   5.142
12110TIP3    H236276   2.236   5.962   5.051
12111TIP3   OH236277   1.742   4.219   0.760
12111TIP3    H136278   1.752   4.213   0.665
12111TIP3    H236279   1.799   4.151   0.795
12112TIP3   OH236280   4.413   3.720   3.221
12112TIP3    H136281   4.365   3.670   3.288
12112TIP3    H236282   4.399   3.812   3.245
12113TIP3   OH236283   2.493   0.306   6.533
12113TIP3    H136284   2.425   0.365   6.564
12113TIP3    H236285   2.563   0.314   6.597
12114TIP3   OH236286   1.692   5.728   0.328
12114TIP3    H136287   1.713   5.783   0.403
12114TIP3    H236288   1.600   5.705   0.339
12115TIP3   OH236289   8.027   5.938   2.464
12115TIP3    H136290   8.001   5.846   2.474
12115TIP3    H236291   7.975   5.986   2.527
12116TIP3   OH236292   0.293   5.126   2.773
12116TIP3    H136293   0.367   5.066   2.767
12116TIP3    H236294   0.289   5.151   2.865
12117TIP3   OH236295   5.042   1.567   4.704
12117TIP3    H136296   5.133   1.591   4.690
12117TIP3    H236297   4.994   1.610   4.633
12118TIP3   OH236298   5.537   1.015   2.622
12118TIP3    H136299   5.492   0.968   2.692
12118TIP3    H236300   5.477   1.086   2.598
12119TIP3   OH236301   1.354   0.131   0.305
12119TIP3    H136302   1.347   0.205   0.366
12119TIP3    H236303   1.445   0.103   0.313
12120TIP3   OH236304   7.773   5.799   5.367
12120TIP3    H136305   7.795   5.806   5.460
12120TIP3    H236306   7.724   5.878   5.348
12121TIP3   OH236307   4.629   3.175   6.478
12121TIP3    H136308   4.537   3.187   6.501
12121TIP3    H236309   4.629   3.166   6.382
12122TIP3   OH236310   5.011   5.350   3.254
12122TIP3    H136311   4.972   5.296   3.323
12122TIP3    H236312   4.937   5.399   3.218
12123TIP3   OH236313   0.216   3.391   2.909
12123TIP3    H136314   0.149   3.454   2.934
12123TIP3    H236315   0.172   3.306   2.913
12124TIP3   OH236316   6.567   3.031   2.056
12124TIP3    H136317   6.624   2.962   2.091
12124TIP3    H236318   6.542   3.000   1.969
12125TIP3   OH236319   1.673   7.774   4.417
12125TIP3    H136320   1.615   7.706   4.383
12125TIP3    H236321   1.615   7.847   4.438
12126TIP3   OH236322   5.173   0.891   4.003
12126TIP3    H136323   5.245   0.927   3.951
12126TIP3    H236324   5.197   0.911   4.094
12127TIP3   OH236325   7.997   2.233   0.324
12127TIP3    H136326   8.058   2.196   0.389
12127TIP3    H236327   7.945   2.158   0.295
12128TIP3   OH236328   0.870   1.875   4.112
12128TIP3    H136329   0.959   1.856   4.082
12128TIP3    H236330   0.850   1.961   4.075
12129TIP3   OH236331   3.503   4.100   0.687
12129TIP3    H136332   3.494   4.005   0.687
12129TIP3    H236333   3.441   4.129   0.755
12130TIP3   OH236334   2.518   6.240   2.460
12130TIP3    H136335   2.565   6.292   2.395
12130TIP3    H236336   2.587   6.200   2.513
12131TIP3   OH236337   5.542   2.040   1.361
12131TIP3    H136338   5.475   2.097   1.399
12131TIP3    H236339   5.498   1.994   1.290
12132TIP3   OH236340   3.774   3.093   2.963
12132TIP3    H136341   3.749   3.184   2.981
12132TIP3    H236342   3.824   3.066   3.040
12133TIP3   OH236343   1.726   5.557   1.659
12133TIP3    H136344   1.757   5.512   1.737
12133TIP3    H236345   1.657   5.616   1.690
12134TIP3   OH236346   4.118   4.511   5.534
12134TIP3    H136347   4.048   4.450   5.513
12134TIP3    H236348   4.122   4.570   5.459
12135TIP3   OH236349   3.769   3.864   6.367
12135TIP3    H136350   3.796   3.887   6.456
12135TIP3    H236351   3.832   3.906   6.310
12136TIP3   OH236352   7.962   5.731   3.918
12136TIP3    H136353   8.052   5.759   3.902
12136TIP3    H236354   7.921   5.736   3.832
12137TIP3   OH236355   5.129   5.234   0.286
12137TIP3    H136356   5.067   5.306   0.273
12137TIP3    H236357   5.097   5.189   0.364
12138TIP3   OH236358   7.224   5.809   2.202
12138TIP3    H136359   7.260   5.896   2.218
12138TIP3    H236360   7.247   5.790   2.111
12139TIP3   OH236361   1.126   4.415   5.074
12139TIP3    H136362   1.170   4.441   4.993
12139TIP3    H236363   1.059   4.352   5.047
12140TIP3   OH236364   1.335   6.839   2.320
12140TIP3    H136365   1.358   6.785   2.244
12140TIP3    H236366   1.272   6.902   2.286
12141TIP3   OH236367   0.460   2.541   2.766
12141TIP3    H136368   0.388   2.582   2.813
12141TIP3    H236369   0.469   2.594   2.686
12142TIP3   OH236370   1.266   7.777   0.001
12142TIP3    H136371   1.322   7.840   0.047
12142TIP3    H236372   1.177   7.803   0.025
12143TIP3   OH236373   4.780   5.256   0.410
12143TIP3    H136374   4.710   5.241   0.472
12143TIP3    H236375   4.793   5.172   0.366
12144TIP3   OH236376   1.571   3.843   1.532
12144TIP3    H136377   1.653   3.799   1.509
12144TIP3    H236378   1.557   3.905   1.461
12145TIP3   OH236379   4.459   3.187   3.158
12145TIP3    H136380   4.519   3.116   3.135
12145TIP3    H236381   4.395   3.145   3.216
12146TIP3   OH236382   2.182   0.106   2.256
12146TIP3    H136383   2.092   0.139   2.258
12146TIP3    H236384   2.237   0.184   2.254
12147TIP3   OH236385   4.187   2.604   4.789
12147TIP3    H136386   4.156   2.582   4.877
12147TIP3    H236387   4.145   2.540   4.732
12148TIP3   OH236388   6.893   2.465   2.172
12148TIP3    H136389   6.939   2.541   2.208
12148TIP3    H236390   6.948   2.435   2.100
12149TIP3   OH236391   6.816   6.346   0.464
12149TIP3    H136392   6.757   6.361   0.538
12149TIP3    H236393   6.812   6.252   0.449
12150TIP3   OH236394   8.180   4.209   0.849
12150TIP3    H136395   8.149   4.194   0.938
12150TIP3    H236396   8.269   4.242   0.859
12151TIP3   OH236397   4.529   0.048   5.442
12151TIP3    H136398   4.586   0.015   5.373
12151TIP3    H236399   4.478   0.118   5.401
12152TIP3   OH236400   8.249   6.397   5.649
12152TIP3    H136401   8.154   6.387   5.656
12152TIP3    H236402   8.285   6.333   5.711
12153TIP3   OH236403   4.929   4.059   5.899
12153TIP3    H136404   4.892   3.985   5.850
12153TIP3    H236405   4.932   4.130   5.836
12154TIP3   OH236406   6.533   2.990   1.478
12154TIP3    H136407   6.497   3.077   1.491
12154TIP3    H236408   6.612   2.988   1.531
12155TIP3   OH236409   4.542   6.602   4.508
12155TIP3    H136410   4.522   6.534   4.572
12155TIP3    H236411   4.637   6.610   4.510
12156TIP3   OH236412   0.298   3.003   5.668
12156TIP3    H136413   0.292   2.939   5.597
12156TIP3    H236414   0.342   3.079   5.630
12157TIP3   OH236415   2.679   2.851   0.767
12157TIP3    H136416   2.706   2.942   0.760
12157TIP3    H236417   2.752   2.801   0.731
12158TIP3   OH236418   3.996   0.894   0.343
12158TIP3    H136419   4.005   0.899   0.438
12158TIP3    H236420   3.907   0.926   0.325
12159TIP3   OH236421   2.400   4.446   5.950
12159TIP3    H136422   2.383   4.485   5.865
12159TIP3    H236423   2.486   4.480   5.975
12160TIP3   OH236424   1.943   6.197   1.119
12160TIP3    H136425   2.010   6.135   1.094
12160TIP3    H236426   1.880   6.196   1.047
12161TIP3   OH236427   4.271   4.449   0.609
12161TIP3    H136428   4.214   4.374   0.622
12161TIP3    H236429   4.295   4.447   0.517
12162TIP3   OH236430   1.129   0.398   1.511
12162TIP3    H136431   1.110   0.369   1.422
12162TIP3    H236432   1.197   0.464   1.501
12163TIP3   OH236433   5.549   7.577   0.921
12163TIP3    H136434   5.509   7.511   0.865
12163TIP3    H236435   5.479   7.638   0.942
12164TIP3   OH236436   3.931   2.162   6.345
12164TIP3    H136437   3.899   2.219   6.415
12164TIP3    H236438   3.908   2.207   6.264
12165TIP3   OH236439   8.164   6.897   2.664
12165TIP3    H136440   8.142   6.990   2.657
12165TIP3    H236441   8.106   6.853   2.603
12166TIP3   OH236442   6.336   6.453   6.401
12166TIP3    H136443   6.421   6.457   6.444
12166TIP3    H236444   6.277   6.420   6.468
12167TIP3   OH236445   0.278   7.285   0.680
12167TIP3    H136446   0.275   7.191   0.696
12167TIP3    H236447   0.186   7.313   0.686
12168TIP3   OH236448   2.318   7.461   4.155
12168TIP3    H136449   2.254   7.498   4.094
12168TIP3    H236450   2.269   7.451   4.237
12169TIP3   OH236451   6.614   3.027   6.609
12169TIP3    H136452   6.650   2.940   6.590
12169TIP3    H236453   6.540   3.036   6.549
12170TIP3   OH236454   0.019   2.407   6.587
12170TIP3    H136455   0.108   2.419   6.620
12170TIP3    H236456  -0.034   2.468   6.639
12171TIP3   OH236457   6.901   3.831   2.973
12171TIP3    H136458   6.954   3.909   2.955
12171TIP3    H236459   6.811   3.859   2.953
12172TIP3   OH236460   2.286   1.896   0.135
12172TIP3    H136461   2.367   1.945   0.150
12172TIP3    H236462   2.219   1.964   0.123
12173TIP3   OH236463   1.157   1.867   1.125
12173TIP3    H136464   1.134   1.778   1.154
12173TIP3    H236465   1.073   1.906   1.101
12174TIP3   OH236466   6.166   5.445   1.349
12174TIP3    H136467   6.250   5.417   1.311
12174TIP3    H236468   6.187   5.526   1.395
12175TIP3   OH236469   6.047   4.418   5.805
12175TIP3    H136470   6.124   4.475   5.803
12175TIP3    H236471   5.973   4.478   5.804
12176TIP3   OH236472   5.282   2.677   4.265
12176TIP3    H136473   5.315   2.631   4.343
12176TIP3    H236474   5.361   2.695   4.213
12177TIP3   OH236475   2.226   7.426   3.847
12177TIP3    H136476   2.182   7.510   3.843
12177TIP3    H236477   2.179   7.377   3.915
12178TIP3   OH236478   1.670   2.443   1.181
12178TIP3    H136479   1.717   2.379   1.235
12178TIP3    H236480   1.654   2.517   1.240
12179TIP3   OH236481   5.577   5.230   6.100
12179TIP3    H136482   5.526   5.268   6.171
12179TIP3    H236483   5.516   5.170   6.056
12180TIP3   OH236484   3.858   6.195   4.949
12180TIP3    H136485   3.788   6.221   4.888
12180TIP3    H236486   3.813   6.149   5.019
12181TIP3   OH236487   4.999   0.455   4.625
12181TIP3    H136488   4.960   0.397   4.691
12181TIP3    H236489   5.093   0.447   4.639
12182TIP3   OH236490   0.987   2.782   5.832
12182TIP3    H136491   0.899   2.754   5.808
12182TIP3    H236492   0.974   2.836   5.910
12183TIP3   OH236493   6.334   4.743   6.186
12183TIP3    H136494   6.320   4.677   6.253
12183TIP3    H236495   6.429   4.748   6.176
12184TIP3   OH236496   8.201   7.139   6.682
12184TIP3    H136497   8.160   7.182   6.607
12184TIP3    H236498   8.294   7.155   6.670
12185TIP3   OH236499   7.769   3.961   4.164
12185TIP3    H136500   7.798   4.047   4.192
12185TIP3    H236501   7.839   3.930   4.107
12186TIP3   OH236502   6.099   3.059   6.367
12186TIP3    H136503   6.047   3.023   6.296
12186TIP3    H236504   6.128   3.144   6.336
12187TIP3   OH236505   3.357   5.638   2.301
12187TIP3    H136506   3.444   5.647   2.262
12187TIP3    H236507   3.366   5.566   2.362
12188TIP3   OH236508   6.188   3.653   2.493
12188TIP3    H136509   6.181   3.646   2.398
12188TIP3    H236510   6.098   3.658   2.524
12189TIP3   OH236511   4.416   7.130   2.665
12189TIP3    H136512   4.469   7.206   2.643
12189TIP3    H236513   4.366   7.112   2.584
12190TIP3   OH236514   5.663   4.657   0.985
12190TIP3    H136515   5.576   4.696   0.987
12190TIP3    H236516   5.722   4.729   1.010
12191TIP3   OH236517   4.744   7.293   4.972
12191TIP3    H136518   4.737   7.206   5.012
12191TIP3    H236519   4.712   7.353   5.040
12192TIP3   OH236520   3.751   1.859   2.607
12192TIP3    H136521   3.791   1.803   2.673
12192TIP3    H236522   3.729   1.940   2.654
12193TIP3   OH236523   5.771   3.061   3.916
12193TIP3    H136524   5.821   3.142   3.930
12193TIP3    H236525   5.815   3.018   3.842
12194TIP3   OH236526   1.507   2.962   5.323
12194TIP3    H136527   1.532   2.957   5.231
12194TIP3    H236528   1.414   2.941   5.324
12195TIP3   OH236529   2.871   2.305   2.754
12195TIP3    H136530   2.953   2.257   2.764
12195TIP3    H236531   2.897   2.393   2.728
12196TIP3   OH236532   2.061   0.189   0.037
12196TIP3    H136533   2.023   0.184   0.124
12196TIP3    H236534   1.996   0.148  -0.020
12197TIP3   OH236535   4.477   4.915   3.567
12197TIP3    H136536   4.551   4.919   3.627
12197TIP3    H236537   4.482   4.996   3.517
12198TIP3   OH236538   3.852   0.569   0.082
12198TIP3    H136539   3.854   0.590  -0.011
12198TIP3    H236540   3.937   0.598   0.115
12199TIP3   OH236541   2.366   4.995   1.167
12199TIP3    H136542   2.415   4.996   1.249
12199TIP3    H236543   2.424   5.038   1.104
12200TIP3   OH236544   8.088   5.681   4.383
12200TIP3    H136545   8.106   5.722   4.467
12200TIP3    H236546   8.098   5.587   4.399
12201TIP3   OH236547   7.807   5.265   1.871
12201TIP3    H136548   7.751   5.342   1.862
12201TIP3    H236549   7.866   5.270   1.796
12202TIP3   OH236550   3.980   7.256   3.567
12202TIP3    H136551   3.996   7.338   3.521
12202TIP3    H236552   3.899   7.271   3.617
12203TIP3   OH236553   3.731   1.404   6.719
12203TIP3    H136554   3.677   1.379   6.644
12203TIP3    H236555   3.782   1.479   6.687
12204TIP3   OH236556   6.369   6.347   2.094
12204TIP3    H136557   6.292   6.357   2.038
12204TIP3    H236558   6.414   6.431   2.087
12205TIP3   OH236559   6.799   2.945   4.625
12205TIP3    H136560   6.710   2.966   4.652
12205TIP3    H236561   6.840   3.030   4.608
12206TIP3   OH236562   1.078   5.204   5.828
12206TIP3    H136563   1.133   5.251   5.890
12206TIP3    H236564   1.049   5.126   5.876
12207TIP3   OH236565   0.495   2.003   0.590
12207TIP3    H136566   0.414   1.968   0.628
12207TIP3    H236567   0.469   2.033   0.502
12208TIP3   OH236568   7.450   0.259   1.124
12208TIP3    H136569   7.375   0.318   1.113
12208TIP3    H236570   7.472   0.232   1.035
12209TIP3   OH236571   1.009   7.413   5.658
12209TIP3    H136572   1.060   7.357   5.716
12209TIP3    H236573   1.071   7.478   5.626
12210TIP3   OH236574   0.066   5.865   2.518
12210TIP3    H136575   0.021   5.784   2.495
12210TIP3    H236576  -0.004   5.925   2.542
12211TIP3   OH236577   5.223   2.564   6.394
12211TIP3    H136578   5.269   2.631   6.445
12211TIP3    H236579   5.256   2.481   6.427
12212TIP3   OH236580   4.151   4.283   1.305
12212TIP3    H136581   4.103   4.351   1.353
12212TIP3    H236582   4.085   4.239   1.252
12213TIP3   OH236583   5.837   7.449   5.603
12213TIP3    H136584   5.907   7.503   5.565
12213TIP3    H236585   5.771   7.444   5.533
12214TIP3   OH236586   2.553   5.142   2.545
12214TIP3    H136587   2.516   5.074   2.489
12214TIP3    H236588   2.477   5.184   2.585
12215TIP3   OH236589   4.934   2.352   2.531
12215TIP3    H136590   5.007   2.409   2.555
12215TIP3    H236591   4.942   2.342   2.436
12216TIP3   OH236592   0.785   2.175   1.814
12216TIP3    H136593   0.833   2.249   1.853
12216TIP3    H236594   0.741   2.134   1.888
12217TIP3   OH236595   5.595   7.327   2.657
12217TIP3    H136596   5.689   7.337   2.672
12217TIP3    H236597   5.568   7.261   2.721
12218TIP3   OH236598   3.489   3.598   5.568
12218TIP3    H136599   3.485   3.535   5.640
12218TIP3    H236600   3.575   3.585   5.528
12219TIP3   OH236601   7.220   3.035   2.721
12219TIP3    H136602   7.250   3.117   2.682
12219TIP3    H236603   7.128   3.050   2.742
12220TIP3   OH236604   7.207   4.318   5.421
12220TIP3    H136605   7.256   4.272   5.489
12220TIP3    H236606   7.271   4.332   5.351
12221TIP3   OH236607   6.885   1.904   0.496
12221TIP3    H136608   6.834   1.831   0.533
12221TIP3    H236609   6.976   1.881   0.516
12222TIP3   OH236610   3.088   2.002   3.730
12222TIP3    H136611   3.144   1.933   3.765
12222TIP3    H236612   3.117   2.081   3.775
12223TIP3   OH236613   2.439   4.085   4.679
12223TIP3    H136614   2.477   4.019   4.622
12223TIP3    H236615   2.346   4.086   4.656
12224TIP3   OH236616   8.147   4.094   3.798
12224TIP3    H136617   8.203   4.062   3.870
12224TIP3    H236618   8.127   4.015   3.747
12225TIP3   OH236619   6.748   2.233   5.309
12225TIP3    H136620   6.724   2.326   5.301
12225TIP3    H236621   6.785   2.225   5.397
12226TIP3   OH236622   0.055   3.505   6.175
12226TIP3    H136623   0.104   3.585   6.195
12226TIP3    H236624   0.074   3.488   6.083
12227TIP3   OH236625   7.705   1.770   1.687
12227TIP3    H136626   7.708   1.747   1.594
12227TIP3    H236627   7.669   1.859   1.688
12228TIP3   OH236628   6.105   7.701   3.152
12228TIP3    H136629   6.159   7.774   3.182
12228TIP3    H236630   6.078   7.657   3.232
12229TIP3   OH236631   3.847   7.699   5.698
12229TIP3    H136632   3.804   7.716   5.782
12229TIP3    H236633   3.915   7.635   5.719
12230TIP3   OH236634   2.856   2.244   1.588
12230TIP3    H136635   2.810   2.184   1.647
12230TIP3    H236636   2.945   2.210   1.583
12231TIP3   OH236637   0.651   7.123   6.143
12231TIP3    H136638   0.592   7.057   6.106
12231TIP3    H236639   0.594   7.183   6.190
12232TIP3   OH236640   1.479   5.229   5.611
12232TIP3    H136641   1.551   5.183   5.568
12232TIP3    H236642   1.469   5.311   5.563
12233TIP3   OH236643   1.848   6.520   2.205
12233TIP3    H136644   1.926   6.556   2.162
12233TIP3    H236645   1.801   6.596   2.238
12234TIP3   OH236646   7.077   6.317   5.728
12234TIP3    H136647   7.136   6.390   5.748
12234TIP3    H236648   7.113   6.279   5.648
12235TIP3   OH236649   3.642   3.569   0.538
12235TIP3    H136650   3.559   3.610   0.516
12235TIP3    H236651   3.622   3.512   0.612
12236TIP3   OH236652   5.309   4.877   2.911
12236TIP3    H136653   5.230   4.929   2.928
12236TIP3    H236654   5.311   4.865   2.816
12237TIP3   OH236655   7.811   1.029   3.413
12237TIP3    H136656   7.906   1.030   3.410
12237TIP3    H236657   7.786   0.945   3.375
12238TIP3   OH236658   5.761   4.475   5.772
12238TIP3    H136659   5.684   4.520   5.736
12238TIP3    H236660   5.807   4.543   5.822
12239TIP3   OH236661   7.105   6.182   4.330
12239TIP3    H136662   7.080   6.144   4.415
12239TIP3    H236663   7.131   6.272   4.351
12240TIP3   OH236664   7.187   2.948   6.011
12240TIP3    H136665   7.185   3.040   6.038
12240TIP3    H236666   7.134   2.902   6.077
12241TIP3   OH236667   5.230   6.286   3.918
12241TIP3    H136668   5.140   6.316   3.911
12241TIP3    H236669   5.269   6.307   3.833
12242TIP3   OH236670   1.414   1.863   1.868
12242TIP3    H136671   1.392   1.951   1.900
12242TIP3    H236672   1.336   1.836   1.819
12243TIP3   OH236673   2.589   4.730   4.653
12243TIP3    H136674   2.621   4.708   4.565
12243TIP3    H236675   2.494   4.736   4.644
12244TIP3   OH236676   6.131   5.132   5.493
12244TIP3    H136677   6.063   5.197   5.475
12244TIP3    H236678   6.162   5.153   5.581
12245TIP3   OH236679   6.333   6.979   1.407
12245TIP3    H136680   6.359   7.015   1.492
12245TIP3    H236681   6.245   7.014   1.392
12246TIP3   OH236682   7.592   4.924   3.828
12246TIP3    H136683   7.662   4.963   3.776
12246TIP3    H236684   7.515   4.977   3.808
12247TIP3   OH236685   0.468   7.120   1.837
12247TIP3    H136686   0.482   7.181   1.910
12247TIP3    H236687   0.397   7.158   1.786
12248TIP3   OH236688   7.650   3.357   5.244
12248TIP3    H136689   7.657   3.451   5.226
12248TIP3    H236690   7.740   3.330   5.264
12249TIP3   OH236691   4.129   5.732   6.043
12249TIP3    H136692   4.171   5.660   6.090
12249TIP3    H236693   4.050   5.694   6.006
12250TIP3   OH236694   1.720   7.288   0.232
12250TIP3    H136695   1.715   7.222   0.301
12250TIP3    H236696   1.638   7.338   0.240
12251TIP3   OH236697   5.963   4.972   6.489
12251TIP3    H136698   6.002   5.060   6.495
12251TIP3    H236699   5.873   4.984   6.519
12252TIP3   OH236700   8.268   5.831   6.283
12252TIP3    H136701   8.265   5.737   6.266
12252TIP3    H236702   8.280   5.838   6.378
12253TIP3   OH236703   0.652   2.939   1.246
12253TIP3    H136704   0.569   2.892   1.251
12253TIP3    H236705   0.627   3.030   1.233
12254TIP3   OH236706   3.506   7.299   5.328
12254TIP3    H136707   3.428   7.284   5.382
12254TIP3    H236708   3.517   7.218   5.279
12255TIP3   OH236709   4.913   7.162   4.122
12255TIP3    H136710   4.884   7.077   4.153
12255TIP3    H236711   4.834   7.216   4.121
12256TIP3   OH236712   1.233   0.168   3.900
12256TIP3    H136713   1.320   0.206   3.901
12256TIP3    H236714   1.181   0.227   3.845
12257TIP3   OH236715   2.345   4.641   0.423
12257TIP3    H136716   2.356   4.595   0.340
12257TIP3    H236717   2.433   4.670   0.446
12258TIP3   OH236718   4.767   4.696   3.567
12258TIP3    H136719   4.768   4.641   3.489
12258TIP3    H236720   4.749   4.784   3.534
12259TIP3   OH236721   3.954   6.080   3.000
12259TIP3    H136722   4.034   6.063   3.049
12259TIP3    H236723   3.885   6.085   3.066
12260TIP3   OH236724   0.608   3.479   5.920
12260TIP3    H136725   0.518   3.479   5.888
12260TIP3    H236726   0.661   3.448   5.847
12261TIP3   OH236727   1.701   0.200   6.481
12261TIP3    H136728   1.670   0.240   6.562
12261TIP3    H236729   1.666   0.256   6.412
12262TIP3   OH236730   4.690   2.459   1.784
12262TIP3    H136731   4.750   2.462   1.709
12262TIP3    H236732   4.726   2.390   1.840
12263TIP3   OH236733   2.798   6.258   1.794
12263TIP3    H136734   2.862   6.327   1.777
12263TIP3    H236735   2.837   6.179   1.757
12264TIP3   OH236736   0.298   0.243   1.219
12264TIP3    H136737   0.348   0.261   1.299
12264TIP3    H236738   0.236   0.175   1.245
12265TIP3   OH236739   5.028   5.854   3.455
12265TIP3    H136740   5.093   5.874   3.521
12265TIP3    H236741   5.035   5.759   3.442
12266TIP3   OH236742   2.333   5.565   2.819
12266TIP3    H136743   2.315   5.620   2.742
12266TIP3    H236744   2.387   5.621   2.875
12267TIP3   OH236745   2.323   4.490   1.884
12267TIP3    H136746   2.394   4.448   1.932
12267TIP3    H236747   2.254   4.503   1.950
12268TIP3   OH236748   1.365   5.389   2.959
12268TIP3    H136749   1.431   5.330   2.994
12268TIP3    H236750   1.358   5.458   3.025
12269TIP3   OH236751   0.823   2.661   5.591
12269TIP3    H136752   0.814   2.604   5.668
12269TIP3    H236753   0.917   2.678   5.585
12270TIP3   OH236754   4.294   1.622   1.030
12270TIP3    H136755   4.287   1.533   0.994
12270TIP3    H236756   4.215   1.632   1.084
12271TIP3   OH236757   0.013   1.430   4.416
12271TIP3    H136758   0.091   1.467   4.457
12271TIP3    H236759   0.009   1.472   4.330
12272TIP3   OH236760   2.334   1.502   2.671
12272TIP3    H136761   2.252   1.545   2.693
12272TIP3    H236762   2.358   1.539   2.586
12273TIP3   OH236763   1.097   2.596   6.508
12273TIP3    H136764   1.041   2.565   6.436
12273TIP3    H236765   1.078   2.537   6.581
12274TIP3   OH236766   6.159   4.000   2.617
12274TIP3    H136767   6.111   4.003   2.534
12274TIP3    H236768   6.214   3.922   2.610
12275TIP3   OH236769   2.799   6.241   6.088
12275TIP3    H136770   2.718   6.190   6.083
12275TIP3    H236771   2.823   6.255   5.996
12276TIP3   OH236772   0.015   5.672   5.693
12276TIP3    H136773  -0.045   5.744   5.671
12276TIP3    H236774   0.096   5.716   5.720
12277TIP3   OH236775   3.572   2.111   4.786
12277TIP3    H136776   3.589   2.056   4.710
12277TIP3    H236777   3.506   2.173   4.757
12278TIP3   OH236778   6.355   5.043   2.705
12278TIP3    H136779   6.342   4.973   2.641
12278TIP3    H236780   6.373   4.996   2.787
12279TIP3   OH236781   6.976   4.164   5.318
12279TIP3    H136782   7.040   4.230   5.345
12279TIP3    H236783   6.933   4.202   5.242
12280TIP3   OH236784   1.170   3.757   0.062
12280TIP3    H136785   1.226   3.827   0.028
12280TIP3    H236786   1.175   3.689  -0.005
12281TIP3   OH236787   2.213   0.940   1.294
12281TIP3    H136788   2.206   1.020   1.242
12281TIP3    H236789   2.298   0.903   1.270
12282TIP3   OH236790   5.155   1.892   1.885
12282TIP3    H136791   5.164   1.797   1.891
12282TIP3    H236792   5.245   1.924   1.875
12283TIP3   OH236793   5.905   0.029   1.995
12283TIP3    H136794   5.922   0.086   2.071
12283TIP3    H236795   5.932  -0.058   2.025
12284TIP3   OH236796   3.724   7.792   5.465
12284TIP3    H136797   3.634   7.778   5.434
12284TIP3    H236798   3.724   7.755   5.554
12285TIP3   OH236799   5.009   7.502   2.627
12285TIP3    H136800   5.092   7.527   2.585
12285TIP3    H236801   4.993   7.412   2.598
12286TIP3   OH236802   6.605   6.419   4.764
12286TIP3    H136803   6.568   6.507   4.763
12286TIP3    H236804   6.623   6.401   4.856
12287TIP3   OH236805   0.522   1.304   3.613
12287TIP3    H136806   0.595   1.254   3.577
12287TIP3    H236807   0.556   1.341   3.695
12288TIP3   OH236808   3.888   0.528   0.861
12288TIP3    H136809   3.846   0.511   0.776
12288TIP3    H236810   3.958   0.464   0.866
12289TIP3   OH236811   1.370   1.975   0.381
12289TIP3    H136812   1.399   2.066   0.380
12289TIP3    H236813   1.294   1.975   0.438
12290TIP3   OH236814   1.744   5.288   3.579
12290TIP3    H136815   1.693   5.261   3.502
12290TIP3    H236816   1.683   5.278   3.653
12291TIP3   OH236817   5.676   5.135   1.842
12291TIP3    H136818   5.693   5.053   1.888
12291TIP3    H236819   5.762   5.176   1.833
12292TIP3   OH236820   1.918   3.891   1.110
12292TIP3    H136821   1.995   3.910   1.164
12292TIP3    H236822   1.953   3.882   1.021
12293TIP3   OH236823   5.724   4.395   0.359
12293TIP3    H136824   5.795   4.337   0.333
12293TIP3    H236825   5.684   4.423   0.277
12294TIP3   OH236826   2.961   1.074   1.827
12294TIP3    H136827   2.911   1.035   1.755
12294TIP3    H236828   3.028   1.127   1.784
12295TIP3   OH236829   4.611   5.217   0.651
12295TIP3    H136830   4.695   5.222   0.695
12295TIP3    H236831   4.546   5.221   0.721
12296TIP3   OH236832   2.491   7.222   4.945
12296TIP3    H136833   2.554   7.277   4.991
12296TIP3    H236834   2.524   7.133   4.957
12297TIP3   OH236835   5.302   3.044   6.370
12297TIP3    H136836   5.224   3.056   6.424
12297TIP3    H236837   5.339   3.132   6.362
12298TIP3   OH236838   5.329   1.978   4.772
12298TIP3    H136839   5.344   2.053   4.830
12298TIP3    H236840   5.348   2.012   4.684
12299TIP3   OH236841   4.412   0.055   0.440
12299TIP3    H136842   4.393   0.030   0.350
12299TIP3    H236843   4.392  -0.023   0.492
12300TIP3   OH236844   3.977   7.119   4.641
12300TIP3    H136845   4.067   7.095   4.664
12300TIP3    H236846   3.984   7.208   4.607
12301TIP3   OH236847   2.851   1.935   5.888
12301TIP3    H136848   2.946   1.945   5.898
12301TIP3    H236849   2.837   1.933   5.794
12302TIP3   OH236850   0.225   1.678   6.735
12302TIP3    H136851   0.174   1.711   6.809
12302TIP3    H236852   0.213   1.584   6.738
12303TIP3   OH236853   6.277   1.018   4.323
12303TIP3    H136854   6.342   0.966   4.275
12303TIP3    H236855   6.253   0.963   4.398
12304TIP3   OH236856   0.007   3.233   0.213
12304TIP3    H136857   0.068   3.160   0.222
12304TIP3    H236858  -0.072   3.205   0.261
12305TIP3   OH236859   1.845   0.228   2.857
12305TIP3    H136860   1.839   0.290   2.930
12305TIP3    H236861   1.837   0.284   2.779
12306TIP3   OH236862   1.663   3.015   2.258
12306TIP3    H136863   1.683   3.108   2.259
12306TIP3    H236864   1.568   3.011   2.263
12307TIP3   OH236865   3.552   4.570   1.753
12307TIP3    H136866   3.504   4.487   1.749
12307TIP3    H236867   3.542   4.599   1.844
12308TIP3   OH236868   6.029   1.073   0.227
12308TIP3    H136869   6.054   1.070   0.135
12308TIP3    H236870   6.011   1.165   0.244
12309TIP3   OH236871   0.017   4.380   5.470
12309TIP3    H136872   0.045   4.298   5.511
12309TIP3    H236873  -0.019   4.353   5.385
12310TIP3   OH236874   7.177   7.161   1.571
12310TIP3    H136875   7.107   7.095   1.581
12310TIP3    H236876   7.133   7.236   1.533
12311TIP3   OH236877   4.408   0.409   2.555
12311TIP3    H136878   4.496   0.429   2.522
12311TIP3    H236879   4.410   0.315   2.570
12312TIP3   OH236880   2.834   5.319   0.973
12312TIP3    H136881   2.890   5.272   0.911
12312TIP3    H236882   2.804   5.252   1.033
12313TIP3   OH236883   2.471   0.999   3.470
12313TIP3    H136884   2.446   1.090   3.458
12313TIP3    H236885   2.409   0.950   3.416
12314TIP3   OH236886   3.853   6.574   4.655
12314TIP3    H136887   3.905   6.615   4.724
12314TIP3    H236888   3.778   6.632   4.643
12315TIP3   OH236889   1.569   7.465   1.083
12315TIP3    H136890   1.492   7.425   1.125
12315TIP3    H236891   1.543   7.476   0.992
12316TIP3   OH236892   2.694   1.052   2.494
12316TIP3    H136893   2.747   1.130   2.507
12316TIP3    H236894   2.737   0.985   2.547
12317TIP3   OH236895   0.816   7.094   2.183
12317TIP3    H136896   0.727   7.127   2.195
12317TIP3    H236897   0.872   7.168   2.206
12318TIP3   OH236898   0.386   4.626   1.716
12318TIP3    H136899   0.353   4.677   1.790
12318TIP3    H236900   0.388   4.535   1.748
12319TIP3   OH236901   6.414   3.336   6.738
12319TIP3    H136902   6.432   3.367   6.649
12319TIP3    H236903   6.478   3.266   6.752
12320TIP3   OH236904   6.579   7.294   2.331
12320TIP3    H136905   6.557   7.212   2.376
12320TIP3    H236906   6.655   7.328   2.379
12321TIP3   OH236907   1.900   0.433   3.743
12321TIP3    H136908   1.829   0.498   3.734
12321TIP3    H236909   1.879   0.365   3.679
12322TIP3   OH236910   2.428   1.896   5.332
12322TIP3    H136911   2.432   1.800   5.326
12322TIP3    H236912   2.448   1.915   5.424
12323TIP3   OH236913   7.913   5.574   4.711
12323TIP3    H136914   7.846   5.525   4.759
12323TIP3    H236915   7.963   5.619   4.779
12324TIP3   OH236916   2.734   1.042   3.228
12324TIP3    H136917   2.657   0.997   3.193
12324TIP3    H236918   2.699   1.108   3.287
12325TIP3   OH236919   0.454   7.673   3.721
12325TIP3    H136920   0.453   7.720   3.804
12325TIP3    H236921   0.423   7.737   3.657
12326TIP3   OH236922   3.404   0.667   2.265
12326TIP3    H136923   3.404   0.754   2.225
12326TIP3    H236924   3.416   0.684   2.359
12327TIP3   OH236925   1.246   2.411   4.014
12327TIP3    H136926   1.303   2.487   4.000
12327TIP3    H236927   1.282   2.368   4.092
12328TIP3   OH236928   2.631   2.448   5.309
12328TIP3    H136929   2.598   2.505   5.378
12328TIP3    H236930   2.669   2.508   5.244
12329TIP3   OH236931   4.459   1.889   5.582
12329TIP3    H136932   4.467   1.841   5.665
12329TIP3    H236933   4.535   1.946   5.580
12330TIP3   OH236934   2.152   6.774   3.647
12330TIP3    H136935   2.243   6.742   3.643
12330TIP3    H236936   2.143   6.807   3.737
12331TIP3   OH236937   1.271   6.754   1.052
12331TIP3    H136938   1.203   6.803   1.099
12331TIP3    H236939   1.331   6.821   1.021
12332TIP3   OH236940   3.955   1.379   2.308
12332TIP3    H136941   3.882   1.359   2.367
12332TIP3    H236942   3.968   1.473   2.318
12333TIP3   OH236943   3.996   7.610   5.460
12333TIP3    H136944   3.949   7.563   5.528
12333TIP3    H236945   3.938   7.682   5.434
12334TIP3   OH236946   3.569   7.160   6.002
12334TIP3    H136947   3.535   7.220   5.937
12334TIP3    H236948   3.653   7.198   6.029
12335TIP3   OH236949   4.133   2.047   1.460
12335TIP3    H136950   4.128   2.084   1.548
12335TIP3    H236951   4.071   1.974   1.462
12336TIP3   OH236952   4.412   0.357   5.020
12336TIP3    H136953   4.408   0.419   5.092
12336TIP3    H236954   4.360   0.397   4.950
12337TIP3   OH236955   1.237   7.664   2.601
12337TIP3    H136956   1.325   7.638   2.629
12337TIP3    H236957   1.252   7.730   2.533
12338TIP3   OH236958   0.186   0.201   2.090
12338TIP3    H136959   0.215   0.276   2.142
12338TIP3    H236960   0.267   0.153   2.071
12339TIP3   OH236961   6.699   0.253   4.720
12339TIP3    H136962   6.706   0.304   4.801
12339TIP3    H236963   6.749   0.173   4.738
12340TIP3   OH236964   1.946   6.059   4.157
12340TIP3    H136965   1.965   6.008   4.077
12340TIP3    H236966   1.853   6.043   4.174
12341TIP3   OH236967   3.842   6.698   6.006
12341TIP3    H136968   3.814   6.771   5.950
12341TIP3    H236969   3.773   6.633   5.998
12342TIP3   OH236970   0.281   6.135   1.073
12342TIP3    H136971   0.346   6.175   1.015
12342TIP3    H236972   0.288   6.183   1.155
12343TIP3   OH236973   3.244   0.997   6.056
12343TIP3    H136974   3.188   0.954   5.991
12343TIP3    H236975   3.329   0.953   6.047
12344TIP3   OH236976   4.607   4.937   4.265
12344TIP3    H136977   4.697   4.966   4.249
12344TIP3    H236978   4.613   4.879   4.340
12345TIP3   OH236979   3.116   5.341   1.246
12345TIP3    H136980   3.066   5.397   1.186
12345TIP3    H236981   3.185   5.399   1.279
12346TIP3   OH236982   5.275   1.753   6.061
12346TIP3    H136983   5.337   1.680   6.067
12346TIP3    H236984   5.310   1.820   6.119
12347TIP3   OH236985   4.887   1.599   3.872
12347TIP3    H136986   4.869   1.647   3.953
12347TIP3    H236987   4.971   1.556   3.887
12348TIP3   OH236988   5.321   6.678   1.086
12348TIP3    H136989   5.228   6.682   1.108
12348TIP3    H236990   5.356   6.762   1.114
12349TIP3   OH236991   5.812   3.732   6.007
12349TIP3    H136992   5.804   3.798   6.076
12349TIP3    H236993   5.897   3.691   6.024
12350TIP3   OH236994   2.955   1.962   5.620
12350TIP3    H136995   2.890   2.031   5.635
12350TIP3    H236996   3.010   1.997   5.550
12351TIP3   OH236997   3.933   1.785   1.412
12351TIP3    H136998   3.847   1.749   1.433
12351TIP3    H236999   3.915   1.850   1.344
12352TIP3   OH237000   5.207   6.904   2.033
12352TIP3    H137001   5.182   6.941   1.948
12352TIP3    H237002   5.137   6.842   2.054
12353TIP3   OH237003   2.500   3.934   1.452
12353TIP3    H137004   2.566   3.990   1.494
12353TIP3    H237005   2.422   3.945   1.505
12354TIP3   OH237006   7.350   4.393   3.589
12354TIP3    H137007   7.328   4.325   3.525
12354TIP3    H237008   7.283   4.383   3.657
12355TIP3   OH237009   0.044   3.676   0.912
12355TIP3    H137010   0.018   3.767   0.928
12355TIP3    H237011  -0.030   3.625   0.943
12356TIP3   OH237012   1.306   2.073   4.427
12356TIP3    H137013   1.353   2.142   4.474
12356TIP3    H237014   1.283   2.010   4.495
12357TIP3   OH237015   7.502   7.154   5.034
12357TIP3    H137016   7.580   7.156   4.980
12357TIP3    H237017   7.535   7.147   5.124
12358TIP3   OH237018   4.211   6.608   0.541
12358TIP3    H137019   4.187   6.520   0.509
12358TIP3    H237020   4.158   6.667   0.488
12359TIP3   OH237021   0.478   6.575   3.967
12359TIP3    H137022   0.383   6.559   3.964
12359TIP3    H237023   0.490   6.629   4.045
12360TIP3   OH237024   2.090   7.503   5.812
12360TIP3    H137025   2.016   7.485   5.871
12360TIP3    H237026   2.057   7.570   5.753
12361TIP3   OH237027   0.232   3.319   4.003
12361TIP3    H137028   0.166   3.348   3.941
12361TIP3    H237029   0.214   3.370   4.083
12362TIP3   OH237030   3.422   0.641   1.022
12362TIP3    H137031   3.503   0.590   1.018
12362TIP3    H237032   3.406   0.668   0.932
12363TIP3   OH237033   4.481   3.506   3.521
12363TIP3    H137034   4.532   3.496   3.602
12363TIP3    H237035   4.397   3.464   3.540
12364TIP3   OH237036   3.032   7.802   0.706
12364TIP3    H137037   2.982   7.725   0.730
12364TIP3    H237038   3.118   7.788   0.743
12365TIP3   OH237039   0.583   2.283   1.169
12365TIP3    H137040   0.635   2.205   1.149
12365TIP3    H237041   0.516   2.285   1.100
12366TIP3   OH237042   7.581   4.908   3.111
12366TIP3    H137043   7.590   4.875   3.021
12366TIP3    H237044   7.506   4.967   3.108
12367TIP3   OH237045   0.044   0.544   2.763
12367TIP3    H137046   0.090   0.623   2.734
12367TIP3    H237047   0.113   0.489   2.802
12368TIP3   OH237048   3.366   7.456   2.586
12368TIP3    H137049   3.429   7.383   2.588
12368TIP3    H237050   3.327   7.456   2.674
12369TIP3   OH237051   2.925   5.745   2.983
12369TIP3    H137052   2.943   5.656   3.013
12369TIP3    H237053   2.911   5.736   2.888
12370TIP3   OH237054   7.281   1.136   0.006
12370TIP3    H137055   7.297   1.070   0.073
12370TIP3    H237056   7.231   1.204   0.051
12371TIP3   OH237057   0.206   6.704   0.776
12371TIP3    H137058   0.163   6.622   0.752
12371TIP3    H237059   0.141   6.771   0.759
12372TIP3   OH237060   3.870   5.625   6.749
12372TIP3    H137061   3.929   5.676   6.693
12372TIP3    H237062   3.875   5.667   6.835
12373TIP3   OH237063   3.138   6.700   3.908
12373TIP3    H137064   3.173   6.746   3.984
12373TIP3    H237065   3.140   6.608   3.932
12374TIP3   OH237066   2.951   5.202   0.749
12374TIP3    H137067   2.947   5.107   0.746
12374TIP3    H237068   2.910   5.230   0.667
12375TIP3   OH237069   6.464   1.090   3.475
12375TIP3    H137070   6.445   1.097   3.568
12375TIP3    H237071   6.552   1.051   3.471
12376TIP3   OH237072   5.284   6.834   2.519
12376TIP3    H137073   5.260   6.745   2.493
12376TIP3    H237074   5.225   6.854   2.591
12377TIP3   OH237075   5.560   1.868   4.063
12377TIP3    H137076   5.528   1.790   4.109
12377TIP3    H237077   5.617   1.833   3.994
12378TIP3   OH237078   5.804   6.386   1.198
12378TIP3    H137079   5.868   6.353   1.135
12378TIP3    H237080   5.820   6.481   1.201
12379TIP3   OH237081   1.637   5.728   3.366
12379TIP3    H137082   1.631   5.798   3.431
12379TIP3    H237083   1.599   5.652   3.410
12380TIP3   OH237084   6.709   1.283   4.869
12380TIP3    H137085   6.730   1.263   4.960
12380TIP3    H237086   6.624   1.242   4.853
12381TIP3   OH237087   2.715   2.748   3.465
12381TIP3    H137088   2.800   2.776   3.498
12381TIP3    H237089   2.696   2.808   3.393
12382TIP3   OH237090   3.465   5.387   4.463
12382TIP3    H137091   3.415   5.373   4.383
12382TIP3    H237092   3.550   5.347   4.445
12383TIP3   OH237093   4.395   0.102   4.078
12383TIP3    H137094   4.397   0.008   4.095
12383TIP3    H237095   4.323   0.135   4.133
12384TIP3   OH237096   5.705   3.658   5.773
12384TIP3    H137097   5.694   3.740   5.724
12384TIP3    H237098   5.752   3.683   5.852
12385TIP3   OH237099   6.178   3.869   6.566
12385TIP3    H137100   6.136   3.822   6.494
12385TIP3    H237101   6.253   3.913   6.525
12386TIP3   OH237102   4.216   5.043   3.746
12386TIP3    H137103   4.282   5.068   3.682
12386TIP3    H237104   4.221   4.947   3.749
12387TIP3   OH237105   0.019   1.374   1.122
12387TIP3    H137106  -0.050   1.383   1.056
12387TIP3    H237107   0.086   1.320   1.080
12388TIP3   OH237108   5.297   4.970   4.436
12388TIP3    H137109   5.355   5.014   4.499
12388TIP3    H237110   5.285   5.033   4.366
12389TIP3   OH237111   5.483   4.545   2.555
12389TIP3    H137112   5.430   4.465   2.563
12389TIP3    H237113   5.554   4.533   2.619
12390TIP3   OH237114   6.173   7.226   5.608
12390TIP3    H137115   6.126   7.273   5.677
12390TIP3    H237116   6.213   7.151   5.653
12391TIP3   OH237117   5.525   1.685   2.976
12391TIP3    H137118   5.469   1.637   2.914
12391TIP3    H237119   5.562   1.756   2.924
12392TIP3   OH237120   6.702   0.128   5.672
12392TIP3    H137121   6.691   0.033   5.674
12392TIP3    H237122   6.792   0.142   5.704
12393TIP3   OH237123   6.967   4.416   4.874
12393TIP3    H137124   6.943   4.509   4.879
12393TIP3    H237125   6.884   4.370   4.867
12394TIP3   OH237126   2.265   6.327   1.001
12394TIP3    H137127   2.222   6.272   1.066
12394TIP3    H237128   2.358   6.306   1.008
12395TIP3   OH237129   0.128   6.557   4.623
12395TIP3    H137130   0.071   6.520   4.555
12395TIP3    H237131   0.215   6.526   4.600
12396TIP3   OH237132   6.180   1.207   4.120
12396TIP3    H137133   6.222   1.155   4.189
12396TIP3    H237134   6.175   1.295   4.156
12397TIP3   OH237135   5.328   5.731   5.753
12397TIP3    H137136   5.369   5.789   5.689
12397TIP3    H237137   5.328   5.645   5.711
12398TIP3   OH237138   3.801   2.287   2.250
12398TIP3    H137139   3.784   2.222   2.319
12398TIP3    H237140   3.763   2.368   2.284
12399TIP3   OH237141   4.382   2.612   0.968
12399TIP3    H137142   4.298   2.578   0.997
12399TIP3    H237143   4.403   2.561   0.890
12400TIP3   OH237144   4.471   1.254   3.245
12400TIP3    H137145   4.485   1.168   3.206
12400TIP3    H237146   4.451   1.236   3.336
12401TIP3   OH237147   1.255   1.585   4.187
12401TIP3    H137148   1.260   1.678   4.209
12401TIP3    H237149   1.337   1.548   4.220
12402TIP3   OH237150   2.776   5.601   5.584
12402TIP3    H137151   2.837   5.605   5.511
12402TIP3    H237152   2.819   5.546   5.649
12403TIP3   OH237153   0.735   4.735   0.774
12403TIP3    H137154   0.699   4.819   0.746
12403TIP3    H237155   0.796   4.710   0.704
12404TIP3   OH237156   6.919   5.625   2.526
12404TIP3    H137157   6.926   5.538   2.565
12404TIP3    H237158   6.966   5.618   2.443
12405TIP3   OH237159   3.490   3.676   4.569
12405TIP3    H137160   3.444   3.593   4.579
12405TIP3    H237161   3.466   3.726   4.647
12406TIP3   OH237162   3.866   0.086   5.891
12406TIP3    H137163   3.818   0.043   5.820
12406TIP3    H237164   3.890   0.015   5.950
12407TIP3   OH237165   5.283   7.431   4.293
12407TIP3    H137166   5.274   7.521   4.261
12407TIP3    H237167   5.193   7.400   4.301
12408TIP3   OH237168   3.723   2.962   1.420
12408TIP3    H137169   3.761   3.050   1.418
12408TIP3    H237170   3.628   2.977   1.420
12409TIP3   OH237171   4.950   6.151   1.793
12409TIP3    H137172   4.902   6.162   1.875
12409TIP3    H237173   4.969   6.240   1.763
12410TIP3   OH237174   1.937   6.367   3.796
12410TIP3    H137175   2.020   6.321   3.808
12410TIP3    H237176   1.959   6.459   3.811
12411TIP3   OH237177   2.161   6.924   2.600
12411TIP3    H137178   2.247   6.956   2.626
12411TIP3    H237179   2.171   6.829   2.593
12412TIP3   OH237180   7.214   7.594   4.952
12412TIP3    H137181   7.130   7.567   4.914
12412TIP3    H237182   7.255   7.646   4.884
12413TIP3   OH237183   0.338   7.066   3.151
12413TIP3    H137184   0.433   7.069   3.150
12413TIP3    H237185   0.317   6.977   3.179
12414TIP3   OH237186   5.473   3.866   3.208
12414TIP3    H137187   5.512   3.788   3.248
12414TIP3    H237188   5.402   3.832   3.154
12415TIP3   OH237189   4.418   6.969   3.490
12415TIP3    H137190   4.436   7.054   3.530
12415TIP3    H237191   4.492   6.953   3.432
12416TIP3   OH237192   5.969   3.512   2.979
12416TIP3    H137193   5.904   3.582   2.980
12416TIP3    H237194   6.028   3.533   3.052
12417TIP3   OH237195   8.138   7.396   5.617
12417TIP3    H137196   8.128   7.475   5.563
12417TIP3    H237197   8.230   7.396   5.642
12418TIP3   OH237198   6.257   1.243   1.285
12418TIP3    H137199   6.218   1.320   1.326
12418TIP3    H237200   6.346   1.240   1.319
12419TIP3   OH237201   3.292   3.397   5.504
12419TIP3    H137202   3.356   3.458   5.468
12419TIP3    H237203   3.269   3.340   5.431
12420TIP3   OH237204   5.855   5.167   0.280
12420TIP3    H137205   5.935   5.216   0.300
12420TIP3    H237206   5.854   5.163   0.184
12421TIP3   OH237207   1.188   2.677   2.030
12421TIP3    H137208   1.111   2.660   2.084
12421TIP3    H237209   1.195   2.600   1.973
12422TIP3   OH237210   4.043   5.917  -0.005
12422TIP3    H137211   3.947   5.915  -0.010
12422TIP3    H237212   4.064   6.002   0.034
12423TIP3   OH237213   0.756   2.735   0.474
12423TIP3    H137214   0.713   2.777   0.400
12423TIP3    H237215   0.685   2.720   0.537
12424TIP3   OH237216   0.711   7.642   4.525
12424TIP3    H137217   0.698   7.713   4.462
12424TIP3    H237218   0.687   7.680   4.609
12425TIP3   OH237219   4.715   3.387   1.815
12425TIP3    H137220   4.665   3.309   1.838
12425TIP3    H237221   4.741   3.373   1.723
12426TIP3   OH237222   2.719   6.131   5.650
12426TIP3    H137223   2.655   6.153   5.582
12426TIP3    H237224   2.707   6.037   5.665
12427TIP3   OH237225   0.830   1.780   0.816
12427TIP3    H137226   0.828   1.687   0.794
12427TIP3    H237227   0.843   1.824   0.732
12428TIP3   OH237228   5.216   1.863   2.211
12428TIP3    H137229   5.183   1.945   2.175
12428TIP3    H237230   5.140   1.823   2.253
12429TIP3   OH237231   2.048   5.577   3.077
12429TIP3    H137232   1.967   5.566   3.027
12429TIP3    H237233   2.083   5.489   3.086
12430TIP3   OH237234   1.748   1.663   3.713
12430TIP3    H137235   1.680   1.730   3.709
12430TIP3    H237236   1.791   1.666   3.628
12431TIP3   OH237237   7.196   3.484   4.203
12431TIP3    H137238   7.181   3.531   4.121
12431TIP3    H237239   7.263   3.535   4.248
12432TIP3   OH237240   4.114   4.674   1.792
12432TIP3    H137241   4.117   4.694   1.698
12432TIP3    H237242   4.029   4.708   1.820
12433TIP3   OH237243   2.343   5.873   2.378
12433TIP3    H137244   2.438   5.860   2.377
12433TIP3    H237245   2.332   5.968   2.367
12434TIP3   OH237246   6.746   3.220   0.344
12434TIP3    H137247   6.773   3.176   0.424
12434TIP3    H237248   6.766   3.157   0.274
12435TIP3   OH237249   7.288   3.747   1.008
12435TIP3    H137250   7.381   3.758   1.023
12435TIP3    H237251   7.270   3.794   0.927
12436TIP3   OH237252   6.050   5.820   0.460
12436TIP3    H137253   6.115   5.752   0.444
12436TIP3    H237254   5.987   5.812   0.388
12437TIP3   OH237255   4.556   6.375   6.605
12437TIP3    H137256   4.625   6.435   6.574
12437TIP3    H237257   4.576   6.292   6.562
12438TIP3   OH237258   6.431   6.101   4.058
12438TIP3    H137259   6.414   6.172   4.120
12438TIP3    H237260   6.488   6.140   3.991
12439TIP3   OH237261   6.137   1.641   1.994
12439TIP3    H137262   6.149   1.613   2.084
12439TIP3    H237263   6.194   1.583   1.943
12440TIP3   OH237264   8.121   1.575   5.591
12440TIP3    H137265   8.126   1.645   5.657
12440TIP3    H237266   8.104   1.622   5.509
12441TIP3   OH237267   2.082   2.333   6.489
12441TIP3    H137268   2.054   2.420   6.460
12441TIP3    H237269   2.040   2.273   6.428
12442TIP3   OH237270   0.187   7.200   6.625
12442TIP3    H137271   0.258   7.135   6.633
12442TIP3    H237272   0.233   7.282   6.606
12443TIP3   OH237273   2.186   1.964   5.202
12443TIP3    H137274   2.260   1.934   5.255
12443TIP3    H237275   2.123   1.997   5.265
12444TIP3   OH237276   0.716   5.506   3.012
12444TIP3    H137277   0.718   5.559   2.933
12444TIP3    H237278   0.746   5.565   3.081
12445TIP3   OH237279   7.113   1.948   2.521
12445TIP3    H137280   7.163   1.881   2.567
12445TIP3    H237281   7.140   2.031   2.562
12446TIP3   OH237282   5.778   2.491   2.580
12446TIP3    H137283   5.852   2.487   2.520
12446TIP3    H237284   5.752   2.583   2.580
12447TIP3   OH237285   7.924   7.166   2.640
12447TIP3    H137286   7.962   7.114   2.568
12447TIP3    H237287   7.998   7.218   2.673
12448TIP3   OH237288   5.665   1.533   5.852
12448TIP3    H137289   5.684   1.623   5.876
12448TIP3    H237290   5.723   1.515   5.778
12449TIP3   OH237291   5.173   4.220   3.863
12449TIP3    H137292   5.232   4.145   3.876
12449TIP3    H237293   5.232   4.294   3.850
12450TIP3   OH237294   8.147   3.859   0.276
12450TIP3    H137295   8.095   3.862   0.195
12450TIP3    H237296   8.082   3.865   0.346
12451TIP3   OH237297   5.109   4.686   6.521
12451TIP3    H137298   5.072   4.741   6.590
12451TIP3    H237299   5.187   4.647   6.560
12452TIP3   OH237300   1.285   6.395   6.172
12452TIP3    H137301   1.306   6.310   6.134
12452TIP3    H237302   1.192   6.407   6.155
12453TIP3   OH237303   5.392   1.421   4.228
12453TIP3    H137304   5.450   1.425   4.152
12453TIP3    H237305   5.439   1.366   4.291
12454TIP3   OH237306   4.963   5.365   5.658
12454TIP3    H137307   4.919   5.324   5.733
12454TIP3    H237308   4.913   5.445   5.641
12455TIP3   OH237309   1.868   5.478   4.480
12455TIP3    H137310   1.844   5.463   4.389
12455TIP3    H237311   1.897   5.570   4.482
12456TIP3   OH237312   7.319   2.416   0.072
12456TIP3    H137313   7.256   2.386   0.006
12456TIP3    H237314   7.403   2.419   0.026
12457TIP3   OH237315   2.528   4.465   3.191
12457TIP3    H137316   2.544   4.422   3.274
12457TIP3    H237317   2.536   4.396   3.126
12458TIP3   OH237318   2.143   1.305   3.738
12458TIP3    H137319   2.088   1.376   3.704
12458TIP3    H237320   2.121   1.230   3.683
12459TIP3   OH237321   3.444   1.576   1.542
12459TIP3    H137322   3.375   1.530   1.495
12459TIP3    H237323   3.448   1.533   1.627
12460TIP3   OH237324   0.859   2.356   5.963
12460TIP3    H137325   0.901   2.273   5.940
12460TIP3    H237326   0.847   2.401   5.879
12461TIP3   OH237327   6.849   5.492   1.003
12461TIP3    H137328   6.839   5.548   1.080
12461TIP3    H237329   6.907   5.422   1.032
12462TIP3   OH237330   6.612   1.889   1.949
12462TIP3    H137331   6.527   1.880   1.907
12462TIP3    H237332   6.593   1.890   2.043
12463TIP3   OH237333   8.092   6.031   1.321
12463TIP3    H137334   8.120   6.085   1.247
12463TIP3    H237335   8.144   5.951   1.314
12464TIP3   OH237336   7.198   6.336   2.493
12464TIP3    H137337   7.268   6.358   2.431
12464TIP3    H237338   7.154   6.261   2.453
12465TIP3   OH237339   0.340   5.617   5.075
12465TIP3    H137340   0.335   5.683   5.144
12465TIP3    H237341   0.386   5.660   5.003
12466TIP3   OH237342   2.340   6.340   6.349
12466TIP3    H137343   2.424   6.356   6.393
12466TIP3    H237344   2.356   6.365   6.258
12467TIP3   OH237345   1.592   2.387   0.597
12467TIP3    H137346   1.675   2.432   0.613
12467TIP3    H237347   1.605   2.300   0.635
12468TIP3   OH237348   6.942   3.466   2.121
12468TIP3    H137349   6.954   3.545   2.068
12468TIP3    H237350   6.855   3.476   2.159
12469TIP3   OH237351   6.877   4.976   4.014
12469TIP3    H137352   6.913   4.976   4.103
12469TIP3    H237353   6.784   4.960   4.026
12470TIP3   OH237354   1.347   4.590   5.134
12470TIP3    H137355   1.290   4.515   5.119
12470TIP3    H237356   1.361   4.592   5.228
12471TIP3   OH237357   6.486   3.256   5.800
12471TIP3    H137358   6.532   3.330   5.839
12471TIP3    H237359   6.553   3.188   5.791
12472TIP3   OH237360   1.840   2.601   2.644
12472TIP3    H137361   1.841   2.696   2.631
12472TIP3    H237362   1.885   2.588   2.728
12473TIP3   OH237363   3.921   2.913   4.390
12473TIP3    H137364   3.998   2.870   4.426
12473TIP3    H237365   3.882   2.959   4.465
12474TIP3   OH237366   1.473   1.204   4.707
12474TIP3    H137367   1.509   1.121   4.739
12474TIP3    H237368   1.541   1.269   4.726
12475TIP3   OH237369   6.204   1.266   0.443
12475TIP3    H137370   6.183   1.283   0.534
12475TIP3    H237371   6.123   1.283   0.395
12476TIP3   OH237372   0.557   4.446   1.994
12476TIP3    H137373   0.626   4.388   1.963
12476TIP3    H237374   0.481   4.425   1.940
12477TIP3   OH237375   5.516   3.048   2.986
12477TIP3    H137376   5.587   3.012   2.932
12477TIP3    H237377   5.550   3.046   3.075
12478TIP3   OH237378   4.496   1.819   0.454
12478TIP3    H137379   4.519   1.851   0.542
12478TIP3    H237380   4.441   1.888   0.417
12479TIP3   OH237381   2.151   5.513   1.562
12479TIP3    H137382   2.159   5.469   1.647
12479TIP3    H237383   2.139   5.605   1.584
12480TIP3   OH237384   4.365   4.715   0.682
12480TIP3    H137385   4.348   4.626   0.653
12480TIP3    H237386   4.381   4.707   0.776
12481TIP3   OH237387   2.677   6.800   3.352
12481TIP3    H137388   2.611   6.856   3.392
12481TIP3    H237389   2.752   6.806   3.410
12482TIP3   OH237390   4.860   6.357   5.958
12482TIP3    H137391   4.886   6.297   5.888
12482TIP3    H237392   4.927   6.425   5.958
12483TIP3   OH237393   0.761   2.077   4.406
12483TIP3    H137394   0.822   2.117   4.344
12483TIP3    H237395   0.803   1.995   4.431
12484TIP3   OH237396   0.090   5.821   4.307
12484TIP3    H137397   0.161   5.769   4.269
12484TIP3    H237398   0.064   5.773   4.385
12485TIP3   OH237399   3.965   1.279   4.875
12485TIP3    H137400   3.922   1.352   4.920
12485TIP3    H237401   4.004   1.319   4.797
12486TIP3   OH237402   8.141   2.265   0.012
12486TIP3    H137403   8.157   2.172   0.002
12486TIP3    H237404   8.228   2.304   0.019
12487TIP3   OH237405   1.296   2.690   0.913
12487TIP3    H137406   1.349   2.628   0.863
12487TIP3    H237407   1.238   2.731   0.848
12488TIP3   OH237408   4.861   7.196   0.154
12488TIP3    H137409   4.832   7.119   0.202
12488TIP3    H237410   4.948   7.216   0.190
12489TIP3   OH237411   7.527   0.286   1.395
12489TIP3    H137412   7.478   0.357   1.437
12489TIP3    H237413   7.507   0.295   1.302
12490TIP3   OH237414   6.874   1.951   1.836
12490TIP3    H137415   6.810   1.914   1.896
12490TIP3    H237416   6.918   1.876   1.797
12491TIP3   OH237417   7.006   0.607   2.100
12491TIP3    H137418   7.097   0.620   2.074
12491TIP3    H237419   6.964   0.691   2.081
12492TIP3   OH237420   8.160   7.237   2.768
12492TIP3    H137421   8.130   7.265   2.855
12492TIP3    H237422   8.255   7.230   2.777
12493TIP3   OH237423   1.826   7.034   1.043
12493TIP3    H137424   1.734   7.014   1.060
12493TIP3    H237425   1.827   7.129   1.029
12494TIP3   OH237426   7.214   6.470   6.408
12494TIP3    H137427   7.222   6.419   6.488
12494TIP3    H237428   7.121   6.470   6.388
12495TIP3   OH237429   4.114   1.764   2.063
12495TIP3    H137430   4.042   1.721   2.110
12495TIP3    H237431   4.173   1.793   2.132
12496TIP3   OH237432   1.600   3.233   2.656
12496TIP3    H137433   1.655   3.211   2.731
12496TIP3    H237434   1.546   3.156   2.642
12497TIP3   OH237435   2.026   0.450   4.222
12497TIP3    H137436   2.042   0.364   4.261
12497TIP3    H237437   1.931   0.452   4.207
12498TIP3   OH237438   4.235   5.417   0.757
12498TIP3    H137439   4.188   5.489   0.798
12498TIP3    H237440   4.220   5.428   0.663
12499TIP3   OH237441   3.871   4.972   6.243
12499TIP3    H137442   3.935   4.924   6.296
12499TIP3    H237443   3.850   4.912   6.171
12500TIP3   OH237444   3.229   6.323   6.624
12500TIP3    H137445   3.152   6.352   6.577
12500TIP3    H237446   3.260   6.247   6.576
12501TIP3   OH237447   2.146   0.120   1.878
12501TIP3    H137448   2.077   0.184   1.893
12501TIP3    H237449   2.223   0.172   1.855
12502TIP3   OH237450   6.684   6.779   4.499
12502TIP3    H137451   6.762   6.817   4.540
12502TIP3    H237452   6.714   6.696   4.463
12503TIP3   OH237453   4.303   3.490   1.838
12503TIP3    H137454   4.356   3.565   1.810
12503TIP3    H237455   4.293   3.437   1.759
12504TIP3   OH237456   5.366   4.689   4.241
12504TIP3    H137457   5.401   4.766   4.285
12504TIP3    H237458   5.407   4.690   4.155
12505TIP3   OH237459   6.369   6.501   5.259
12505TIP3    H137460   6.355   6.480   5.167
12505TIP3    H237461   6.362   6.417   5.305
12506TIP3   OH237462   7.887   4.171   0.400
12506TIP3    H137463   7.921   4.149   0.486
12506TIP3    H237464   7.943   4.242   0.369
12507TIP3   OH237465   5.654   4.705   6.640
12507TIP3    H137466   5.631   4.689   6.731
12507TIP3    H237467   5.749   4.711   6.639
12508TIP3   OH237468   3.007   4.545   0.330
12508TIP3    H137469   2.975   4.627   0.294
12508TIP3    H237470   2.990   4.551   0.424
12509TIP3   OH237471   6.140   0.871   5.116
12509TIP3    H137472   6.204   0.942   5.106
12509TIP3    H237473   6.125   0.841   5.027
12510TIP3   OH237474   6.484   3.505   4.262
12510TIP3    H137475   6.467   3.413   4.246
12510TIP3    H237476   6.550   3.529   4.196
12511TIP3   OH237477   7.472   7.377   4.129
12511TIP3    H137478   7.545   7.377   4.190
12511TIP3    H237479   7.514   7.373   4.042
12512TIP3   OH237480   5.480   3.963   5.406
12512TIP3    H137481   5.428   3.885   5.385
12512TIP3    H237482   5.416   4.033   5.417
12513TIP3   OH237483   6.252   3.669   0.337
12513TIP3    H137484   6.163   3.634   0.340
12513TIP3    H237485   6.276   3.680   0.429
12514TIP3   OH237486   3.818   1.596   4.749
12514TIP3    H137487   3.829   1.581   4.843
12514TIP3    H237488   3.882   1.663   4.727
12515TIP3   OH237489   6.748   7.196   0.312
12515TIP3    H137490   6.749   7.197   0.216
12515TIP3    H237491   6.792   7.278   0.337
12516TIP3   OH237492   4.266   1.347   0.914
12516TIP3    H137493   4.182   1.380   0.882
12516TIP3    H237494   4.280   1.266   0.865
12517TIP3   OH237495   7.340   3.880   0.448
12517TIP3    H137496   7.387   3.920   0.376
12517TIP3    H237497   7.408   3.851   0.509
12518TIP3   OH237498   2.394   3.840   4.491
12518TIP3    H137499   2.301   3.835   4.514
12518TIP3    H237500   2.395   3.876   4.402
12519TIP3   OH237501   0.043   0.655   6.518
12519TIP3    H137502   0.087   0.740   6.509
12519TIP3    H237503   0.093   0.610   6.586
12520TIP3   OH237504   6.232   1.025   2.342
12520TIP3    H137505   6.273   1.029   2.255
12520TIP3    H237506   6.153   0.972   2.328
12521TIP3   OH237507   3.659   5.848   1.557
12521TIP3    H137508   3.698   5.928   1.594
12521TIP3    H237509   3.733   5.801   1.520
12522TIP3   OH237510   1.461   4.407   3.564
12522TIP3    H137511   1.530   4.379   3.505
12522TIP3    H237512   1.477   4.500   3.577
12523TIP3   OH237513   3.335   1.802   1.441
12523TIP3    H137514   3.250   1.801   1.486
12523TIP3    H237515   3.384   1.729   1.480
12524TIP3   OH237516   3.186   7.673   5.872
12524TIP3    H137517   3.179   7.639   5.783
12524TIP3    H237518   3.221   7.600   5.923
12525TIP3   OH237519   5.721   5.544   4.270
12525TIP3    H137520   5.716   5.451   4.252
12525TIP3    H237521   5.810   5.558   4.302
12526TIP3   OH237522   7.292   0.355   0.220
12526TIP3    H137523   7.243   0.376   0.140
12526TIP3    H237524   7.349   0.282   0.194
12527TIP3   OH237525   5.516   4.759   3.449
12527TIP3    H137526   5.519   4.836   3.507
12527TIP3    H237527   5.484   4.794   3.366
12528TIP3   OH237528   1.757   3.537   5.169
12528TIP3    H137529   1.782   3.552   5.078
12528TIP3    H237530   1.825   3.580   5.220
12529TIP3   OH237531   0.954   2.741   5.095
12529TIP3    H137532   0.860   2.730   5.078
12529TIP3    H237533   0.958   2.786   5.179
12530TIP3   OH237534   0.319   4.759   1.001
12530TIP3    H137535   0.323   4.803   1.086
12530TIP3    H237536   0.233   4.782   0.967
12531TIP3   OH237537   3.577   6.733   3.188
12531TIP3    H137538   3.503   6.759   3.133
12531TIP3    H237539   3.649   6.722   3.127
12532TIP3   OH237540   5.386   5.426   3.539
12532TIP3    H137541   5.459   5.474   3.580
12532TIP3    H237542   5.410   5.420   3.447
12533TIP3   OH237543   5.190   1.644   1.303
12533TIP3    H137544   5.201   1.550   1.293
12533TIP3    H237545   5.096   1.659   1.290
12534TIP3   OH237546   1.915   6.927   5.840
12534TIP3    H137547   1.828   6.953   5.869
12534TIP3    H237548   1.939   6.992   5.773
12535TIP3   OH237549   5.758   4.839   1.858
12535TIP3    H137550   5.833   4.782   1.842
12535TIP3    H237551   5.717   4.849   1.773
12536TIP3   OH237552   7.823   1.368   3.144
12536TIP3    H137553   7.752   1.344   3.084
12536TIP3    H237554   7.885   1.295   3.138
12537TIP3   OH237555   3.546   5.132   0.798
12537TIP3    H137556   3.595   5.094   0.725
12537TIP3    H237557   3.550   5.226   0.783
12538TIP3   OH237558   7.612   5.709   1.614
12538TIP3    H137559   7.701   5.707   1.649
12538TIP3    H237560   7.594   5.801   1.598
12539TIP3   OH237561   3.124   3.045   5.128
12539TIP3    H137562   3.165   3.122   5.168
12539TIP3    H237563   3.114   2.983   5.200
12540TIP3   OH237564   2.487   3.591   2.400
12540TIP3    H137565   2.466   3.641   2.479
12540TIP3    H237566   2.581   3.603   2.388
12541TIP3   OH237567   6.511   2.737   2.337
12541TIP3    H137568   6.480   2.756   2.249
12541TIP3    H237569   6.571   2.809   2.358
12542TIP3   OH237570   4.669   4.619   4.835
12542TIP3    H137571   4.719   4.546   4.796
12542TIP3    H237572   4.724   4.696   4.820
12543TIP3   OH237573   0.400   3.535   4.403
12543TIP3    H137574   0.412   3.463   4.465
12543TIP3    H237575   0.427   3.613   4.451
12544TIP3   OH237576   1.585   5.132   1.316
12544TIP3    H137577   1.521   5.072   1.279
12544TIP3    H237578   1.537   5.213   1.333
12545TIP3   OH237579   1.743   4.184   6.572
12545TIP3    H137580   1.782   4.101   6.602
12545TIP3    H237581   1.751   4.181   6.477
12546TIP3   OH237582   1.116   6.629   5.235
12546TIP3    H137583   1.025   6.657   5.247
12546TIP3    H237584   1.135   6.650   5.143
12547TIP3   OH237585   0.062   1.172   2.336
12547TIP3    H137586   0.130   1.175   2.404
12547TIP3    H237587  -0.016   1.207   2.380
12548TIP3   OH237588   4.874   3.214   2.135
12548TIP3    H137589   4.927   3.157   2.191
12548TIP3    H237590   4.812   3.256   2.195
12549TIP3   OH237591   1.319   2.343   6.732
12549TIP3    H137592   1.375   2.412   6.694
12549TIP3    H237593   1.344   2.341   6.824
12550TIP3   OH237594   3.844   5.857   0.599
12550TIP3    H137595   3.779   5.847   0.530
12550TIP3    H237596   3.796   5.842   0.680
12551TIP3   OH237597   1.395   0.475   6.431
12551TIP3    H137598   1.488   0.496   6.425
12551TIP3    H237599   1.377   0.479   6.525
12552TIP3   OH237600   6.394   5.661   6.526
12552TIP3    H137601   6.447   5.593   6.568
12552TIP3    H237602   6.328   5.684   6.591
12553TIP3   OH237603   4.531   5.464   0.903
12553TIP3    H137604   4.473   5.493   0.832
12553TIP3    H237605   4.473   5.446   0.976
12554TIP3   OH237606   0.163   3.686   2.346
12554TIP3    H137607   0.231   3.636   2.301
12554TIP3    H237608   0.210   3.760   2.386
12555TIP3   OH237609   2.886   1.791   6.163
12555TIP3    H137610   2.835   1.719   6.126
12555TIP3    H237611   2.904   1.849   6.089
12556TIP3   OH237612   0.536   5.539   6.041
12556TIP3    H137613   0.531   5.459   5.988
12556TIP3    H237614   0.526   5.507   6.131
12557TIP3   OH237615   6.391   4.537   1.247
12557TIP3    H137616   6.384   4.623   1.205
12557TIP3    H237617   6.410   4.477   1.174
12558TIP3   OH237618   3.210   0.834   5.386
12558TIP3    H137619   3.288   0.881   5.356
12558TIP3    H237620   3.244   0.766   5.445
12559TIP3   OH237621   5.408   3.585   4.368
12559TIP3    H137622   5.452   3.540   4.440
12559TIP3    H237623   5.381   3.669   4.406
12560TIP3   OH237624   0.627   4.460   2.263
12560TIP3    H137625   0.670   4.375   2.254
12560TIP3    H237626   0.585   4.474   2.178
12561TIP3   OH237627   1.409   6.058   3.592
12561TIP3    H137628   1.315   6.071   3.598
12561TIP3    H237629   1.421   5.963   3.603
12562TIP3   OH237630   2.050   0.712   5.693
12562TIP3    H137631   2.078   0.634   5.645
12562TIP3    H237632   2.089   0.785   5.644
12563TIP3   OH237633   4.107   1.293   3.766
12563TIP3    H137634   4.054   1.318   3.842
12563TIP3    H237635   4.197   1.308   3.794
12564TIP3   OH237636   2.239   3.601   1.840
12564TIP3    H137637   2.185   3.582   1.917
12564TIP3    H237638   2.181   3.585   1.766
12565TIP3   OH237639   4.506   5.676   6.723
12565TIP3    H137640   4.443   5.622   6.677
12565TIP3    H237641   4.464   5.697   6.807
12566TIP3   OH237642   6.799   1.944   4.326
12566TIP3    H137643   6.730   1.878   4.321
12566TIP3    H237644   6.755   2.021   4.365
12567TIP3   OH237645   1.004   2.586   4.748
12567TIP3    H137646   1.083   2.630   4.779
12567TIP3    H237647   1.029   2.547   4.664
12568TIP3   OH237648   0.639   0.115   5.166
12568TIP3    H137649   0.689   0.059   5.106
12568TIP3    H237650   0.620   0.193   5.115
12569TIP3   OH237651   3.098   4.081   5.254
12569TIP3    H137652   3.144   4.042   5.329
12569TIP3    H237653   3.009   4.048   5.261
12570TIP3   OH237654   7.973   0.721   1.169
12570TIP3    H137655   8.031   0.694   1.241
12570TIP3    H237656   7.965   0.643   1.115
12571TIP3   OH237657   7.338   0.032   4.118
12571TIP3    H137658   7.312  -0.045   4.168
12571TIP3    H237659   7.419   0.061   4.161
12572TIP3   OH237660   7.747   3.641   4.513
12572TIP3    H137661   7.735   3.717   4.457
12572TIP3    H237662   7.755   3.568   4.452
12573TIP3   OH237663   1.209   1.316   4.652
12573TIP3    H137664   1.297   1.290   4.680
12573TIP3    H237665   1.223   1.396   4.601
12574TIP3   OH237666   5.368   2.718   5.398
12574TIP3    H137667   5.378   2.813   5.398
12574TIP3    H237668   5.346   2.696   5.307
12575TIP3   OH237669   7.995   3.065   6.605
12575TIP3    H137670   8.085   3.052   6.635
12575TIP3    H237671   7.984   3.003   6.533
12576TIP3   OH237672   4.823   4.456   3.215
12576TIP3    H137673   4.754   4.522   3.218
12576TIP3    H237674   4.857   4.453   3.304
12577TIP3   OH237675   4.835   6.846   2.903
12577TIP3    H137676   4.755   6.898   2.910
12577TIP3    H237677   4.843   6.827   2.809
12578TIP3   OH237678   5.114   2.942   2.590
12578TIP3    H137679   5.089   3.033   2.574
12578TIP3    H237680   5.168   2.918   2.514
12579TIP3   OH237681   0.781   6.076   4.521
12579TIP3    H137682   0.737   6.005   4.473
12579TIP3    H237683   0.741   6.074   4.608
12580TIP3   OH237684   7.768   4.890   2.424
12580TIP3    H137685   7.774   4.857   2.334
12580TIP3    H237686   7.817   4.972   2.423
12581TIP3   OH237687   7.569   5.101   4.878
12581TIP3    H137688   7.663   5.114   4.887
12581TIP3    H237689   7.550   5.026   4.934
12582TIP3   OH237690   3.707   2.695   3.290
12582TIP3    H137691   3.672   2.607   3.305
12582TIP3    H237692   3.682   2.743   3.369
12583TIP3   OH237693   2.927   3.403   2.837
12583TIP3    H137694   3.009   3.355   2.850
12583TIP3    H237695   2.929   3.429   2.745
12584TIP3   OH237696   0.507   7.189   1.373
12584TIP3    H137697   0.464   7.217   1.292
12584TIP3    H237698   0.598   7.176   1.348
12585TIP3   OH237699   4.014   1.937   6.525
12585TIP3    H137700   3.953   2.002   6.491
12585TIP3    H237701   4.088   1.939   6.464
12586TIP3   OH237702   5.840   1.300   2.647
12586TIP3    H137703   5.843   1.394   2.665
12586TIP3    H237704   5.928   1.269   2.670
12587TIP3   OH237705   0.159   2.976   4.906
12587TIP3    H137706   0.092   2.928   4.956
12587TIP3    H237707   0.162   2.931   4.822
12588TIP3   OH237708   4.914   7.225   3.258
12588TIP3    H137709   4.984   7.197   3.316
12588TIP3    H237710   4.855   7.275   3.314
12589TIP3   OH237711   1.411   4.874   4.743
12589TIP3    H137712   1.465   4.937   4.696
12589TIP3    H237713   1.321   4.900   4.725
12590TIP3   OH237714   0.771   3.069   4.916
12590TIP3    H137715   0.808   3.144   4.870
12590TIP3    H237716   0.769   2.999   4.851
12591TIP3   OH237717   1.333   2.478   0.570
12591TIP3    H137718   1.428   2.477   0.581
12591TIP3    H237719   1.317   2.548   0.507
12592TIP3   OH237720   3.711   1.233   0.702
12592TIP3    H137721   3.713   1.275   0.616
12592TIP3    H237722   3.681   1.144   0.684
12593TIP3   OH237723   4.684   6.117   3.497
12593TIP3    H137724   4.725   6.107   3.411
12593TIP3    H237725   4.715   6.042   3.548
12594TIP3   OH237726   8.126   3.980   4.254
12594TIP3    H137727   8.090   3.930   4.327
12594TIP3    H237728   8.103   4.071   4.272
12595TIP3   OH237729   6.877   1.644   5.959
12595TIP3    H137730   6.953   1.603   6.000
12595TIP3    H237731   6.848   1.708   6.024
12596TIP3   OH237732   2.255   3.161   5.527
12596TIP3    H137733   2.243   3.103   5.452
12596TIP3    H237734   2.340   3.136   5.564
12597TIP3   OH237735   4.027   1.045   0.102
12597TIP3    H137736   4.052   0.967   0.052
12597TIP3    H237737   4.046   1.022   0.193
12598TIP3   OH237738   7.367   3.843   4.746
12598TIP3    H137739   7.444   3.797   4.780
12598TIP3    H237740   7.377   3.838   4.651
12599TIP3   OH237741   5.650   6.380   4.304
12599TIP3    H137742   5.717   6.449   4.299
12599TIP3    H237743   5.568   6.428   4.311
12600TIP3   OH237744   4.918   2.787   0.683
12600TIP3    H137745   4.826   2.776   0.658
12600TIP3    H237746   4.953   2.849   0.619
12601TIP3   OH237747   0.084   3.113   5.813
12601TIP3    H137748   0.105   3.160   5.894
12601TIP3    H237749   0.168   3.076   5.784
12602TIP3   OH237750   1.978   1.895   1.040
12602TIP3    H137751   1.927   1.848   1.107
12602TIP3    H237752   1.927   1.974   1.023
12603TIP3   OH237753   2.594   2.450   3.942
12603TIP3    H137754   2.588   2.466   3.848
12603TIP3    H237755   2.676   2.492   3.968
12604TIP3   OH237756   5.950   2.857   2.396
12604TIP3    H137757   6.003   2.935   2.414
12604TIP3    H237758   5.947   2.851   2.301
12605TIP3   OH237759   5.420   4.190   5.673
12605TIP3    H137760   5.355   4.121   5.658
12605TIP3    H237761   5.430   4.193   5.768
12606TIP3   OH237762   6.078   4.732   4.661
12606TIP3    H137763   6.154   4.755   4.607
12606TIP3    H237764   6.116   4.686   4.737
12607TIP3   OH237765   3.015   6.314   0.177
12607TIP3    H137766   3.022   6.306   0.272
12607TIP3    H237767   3.104   6.335   0.149
12608TIP3   OH237768   0.324   5.625   2.355
12608TIP3    H137769   0.296   5.580   2.435
12608TIP3    H237770   0.348   5.713   2.383
12609TIP3   OH237771   4.284   1.094   1.431
12609TIP3    H137772   4.358   1.081   1.372
12609TIP3    H237773   4.215   1.130   1.377
12610TIP3   OH237774   7.547   7.553   5.884
12610TIP3    H137775   7.622   7.518   5.932
12610TIP3    H237776   7.582   7.629   5.836
12611TIP3   OH237777   0.054   0.175   4.273
12611TIP3    H137778   0.019   0.147   4.357
12611TIP3    H237779   0.002   0.252   4.249
12612TIP3   OH237780   3.009   6.418   6.451
12612TIP3    H137781   3.029   6.433   6.358
12612TIP3    H237782   2.973   6.502   6.481
12613TIP3   OH237783   6.963   2.400   0.283
12613TIP3    H137784   6.977   2.402   0.189
12613TIP3    H237785   6.993   2.314   0.311
12614TIP3   OH237786   1.644   7.722   0.206
12614TIP3    H137787   1.560   7.720   0.159
12614TIP3    H237788   1.704   7.765   0.145
12615TIP3   OH237789   7.582   2.242   3.477
12615TIP3    H137790   7.578   2.311   3.412
12615TIP3    H237791   7.513   2.265   3.540
12616TIP3   OH237792   6.955   4.121   1.023
12616TIP3    H137793   6.861   4.132   1.037
12616TIP3    H237794   6.975   4.177   0.948
12617TIP3   OH237795   1.433   2.504   0.267
12617TIP3    H137796   1.376   2.573   0.234
12617TIP3    H237797   1.414   2.428   0.211
12618TIP3   OH237798   5.454   1.064   5.018
12618TIP3    H137799   5.401   1.126   4.969
12618TIP3    H237800   5.530   1.115   5.048
12619TIP3   OH237801   6.327   7.734   4.523
12619TIP3    H137802   6.316   7.773   4.610
12619TIP3    H237803   6.399   7.671   4.534
12620TIP3   OH237804   3.142   4.055   1.789
12620TIP3    H137805   3.106   4.030   1.874
12620TIP3    H237806   3.150   3.972   1.742
12621TIP3   OH237807   3.138   2.874   0.816
12621TIP3    H137808   3.068   2.840   0.760
12621TIP3    H237809   3.120   2.836   0.902
12622TIP3   OH237810   6.275   5.389   0.887
12622TIP3    H137811   6.207   5.435   0.937
12622TIP3    H237812   6.356   5.407   0.935
12623TIP3   OH237813   0.483   0.708   6.104
12623TIP3    H137814   0.533   0.782   6.070
12623TIP3    H237815   0.538   0.632   6.087
12624TIP3   OH237816   7.772   3.915   6.709
12624TIP3    H137817   7.706   3.934   6.775
12624TIP3    H237818   7.856   3.921   6.755
12625TIP3   OH237819   2.838   4.121   5.128
12625TIP3    H137820   2.864   4.212   5.134
12625TIP3    H237821   2.900   4.081   5.067
12626TIP3   OH237822   5.516   5.372   5.741
12626TIP3    H137823   5.610   5.367   5.723
12626TIP3    H237824   5.506   5.335   5.829
12627TIP3   OH237825   5.335   3.223   2.537
12627TIP3    H137826   5.412   3.237   2.591
12627TIP3    H237827   5.369   3.211   2.449
12628TIP3   OH237828   3.007   4.484   2.858
12628TIP3    H137829   3.005   4.452   2.768
12628TIP3    H237830   2.940   4.553   2.860
12629TIP3   OH237831   7.185   6.473   5.446
12629TIP3    H137832   7.177   6.391   5.397
12629TIP3    H237833   7.099   6.513   5.441
12630TIP3   OH237834   4.385   7.137   1.529
12630TIP3    H137835   4.480   7.149   1.523
12630TIP3    H237836   4.368   7.057   1.479
12631TIP3   OH237837   8.131   4.051   3.191
12631TIP3    H137838   8.177   4.047   3.108
12631TIP3    H237839   8.077   4.130   3.186
12632TIP3   OH237840   2.454   7.472   4.476
12632TIP3    H137841   2.395   7.533   4.431
12632TIP3    H237842   2.415   7.460   4.563
12633TIP3   OH237843   0.883   4.914   0.015
12633TIP3    H137844   0.920   4.872  -0.063
12633TIP3    H237845   0.956   4.921   0.076
12634TIP3   OH237846   3.186   1.270   6.147
12634TIP3    H137847   3.207   1.179   6.123
12634TIP3    H237848   3.168   1.313   6.064
12635TIP3   OH237849   2.936   0.554   4.024
12635TIP3    H137850   2.923   0.639   3.982
12635TIP3    H237851   2.849   0.529   4.056
12636TIP3   OH237852   3.909   1.580   1.712
12636TIP3    H137853   3.956   1.534   1.643
12636TIP3    H237854   3.955   1.555   1.793
12637TIP3   OH237855   4.947   5.995   0.168
12637TIP3    H137856   5.024   5.985   0.112
12637TIP3    H237857   4.948   6.086   0.195
12638TIP3   OH237858   2.511   6.008   6.470
12638TIP3    H137859   2.519   6.103   6.458
12638TIP3    H237860   2.428   5.997   6.518
12639TIP3   OH237861   8.112   6.343   3.195
12639TIP3    H137862   8.034   6.344   3.250
12639TIP3    H237863   8.084   6.386   3.114
12640TIP3   OH237864   3.871   2.425   4.829
12640TIP3    H137865   3.857   2.518   4.811
12640TIP3    H237866   3.840   2.380   4.750
12641TIP3   OH237867   7.930   2.864   5.253
12641TIP3    H137868   7.857   2.803   5.246
12641TIP3    H237869   7.908   2.935   5.193
12642TIP3   OH237870   6.287   5.601   6.192
12642TIP3    H137871   6.215   5.593   6.254
12642TIP3    H237872   6.307   5.511   6.168
12643TIP3   OH237873   6.711   3.717   1.519
12643TIP3    H137874   6.771   3.755   1.584
12643TIP3    H237875   6.706   3.783   1.450
12644TIP3   OH237876   1.223   5.452   6.149
12644TIP3    H137877   1.294   5.387   6.149
12644TIP3    H237878   1.260   5.528   6.104
12645TIP3   OH237879   6.859   0.398   1.142
12645TIP3    H137880   6.919   0.343   1.091
12645TIP3    H237881   6.790   0.338   1.171
12646TIP3   OH237882   0.916   3.737   2.340
12646TIP3    H137883   0.922   3.778   2.426
12646TIP3    H237884   0.841   3.678   2.346
12647TIP3   OH237885   1.630   1.835   0.208
12647TIP3    H137886   1.642   1.930   0.217
12647TIP3    H237887   1.663   1.798   0.290
12648TIP3   OH237888   2.500   4.564   1.619
12648TIP3    H137889   2.584   4.602   1.592
12648TIP3    H237890   2.521   4.510   1.695
12649TIP3   OH237891   2.886   6.180   6.361
12649TIP3    H137892   2.930   6.253   6.405
12649TIP3    H237893   2.879   6.208   6.270
12650TIP3   OH237894   6.532   1.116   1.660
12650TIP3    H137895   6.528   1.149   1.749
12650TIP3    H237896   6.609   1.158   1.621
12651TIP3   OH237897   2.553   3.687   2.998
12651TIP3    H137898   2.542   3.762   2.940
12651TIP3    H237899   2.463   3.662   3.023
12652TIP3   OH237900   1.033   0.305   0.173
12652TIP3    H137901   0.976   0.375   0.140
12652TIP3    H237902   0.992   0.224   0.142
12653TIP3   OH237903   1.144   5.815   5.348
12653TIP3    H137904   1.059   5.772   5.347
12653TIP3    H237905   1.161   5.833   5.441
12654TIP3   OH237906   6.813   2.332   6.466
12654TIP3    H137907   6.907   2.323   6.478
12654TIP3    H237908   6.781   2.243   6.455
12655TIP3   OH237909   3.058   0.462   0.305
12655TIP3    H137910   3.010   0.400   0.251
12655TIP3    H237911   2.990   0.507   0.355
12656TIP3   OH237912   3.626   1.916   5.242
12656TIP3    H137913   3.537   1.921   5.275
12656TIP3    H237914   3.630   1.832   5.196
12657TIP3   OH237915   5.491   7.751   1.321
12657TIP3    H137916   5.461   7.777   1.408
12657TIP3    H237917   5.585   7.769   1.322
12658TIP3   OH237918   7.804   1.725   6.449
12658TIP3    H137919   7.830   1.817   6.456
12658TIP3    H237920   7.882   1.681   6.417
12659TIP3   OH237921   2.485   0.789   0.117
12659TIP3    H137922   2.392   0.808   0.129
12659TIP3    H237923   2.513   0.750   0.200
12660TIP3   OH237924   1.446   5.295   5.883
12660TIP3    H137925   1.473   5.254   5.801
12660TIP3    H237926   1.419   5.223   5.939
12661TIP3   OH237927   7.905   4.069   2.994
12661TIP3    H137928   7.954   4.116   2.926
12661TIP3    H237929   7.857   4.137   3.041
12662TIP3   OH237930   7.909   3.349   1.345
12662TIP3    H137931   7.982   3.380   1.291
12662TIP3    H237932   7.849   3.307   1.283
12663TIP3   OH237933   0.181   1.102   2.667
12663TIP3    H137934   0.174   1.147   2.751
12663TIP3    H237935   0.212   1.014   2.688
12664TIP3   OH237936   0.744   2.932   5.550
12664TIP3    H137937   0.767   2.840   5.567
12664TIP3    H237938   0.673   2.928   5.486
12665TIP3   OH237939   3.598   0.702   5.670
12665TIP3    H137940   3.583   0.705   5.575
12665TIP3    H237941   3.689   0.675   5.680
12666TIP3   OH237942   0.448   1.119   5.042
12666TIP3    H137943   0.395   1.198   5.051
12666TIP3    H237944   0.447   1.080   5.129
12667TIP3   OH237945   1.655   6.225   3.996
12667TIP3    H137946   1.677   6.317   4.008
12667TIP3    H237947   1.687   6.182   4.075
12668TIP3   OH237948   3.907   7.190   5.942
12668TIP3    H137949   3.838   7.254   5.924
12668TIP3    H237950   3.979   7.243   5.977
12669TIP3   OH237951   5.533   0.008   5.027
12669TIP3    H137952   5.566  -0.030   4.946
12669TIP3    H237953   5.519   0.100   5.006
12670TIP3   OH237954   5.811   6.080   3.662
12670TIP3    H137955   5.816   6.095   3.567
12670TIP3    H237956   5.730   6.124   3.689
12671TIP3   OH237957   6.948   2.963   2.767
12671TIP3    H137958   6.924   2.888   2.822
12671TIP3    H237959   6.871   3.019   2.768
12672TIP3   OH237960   1.844   3.868   3.024
12672TIP3    H137961   1.769   3.855   3.083
12672TIP3    H237962   1.815   3.831   2.940
12673TIP3   OH237963   8.261   7.532   2.704
12673TIP3    H137964   8.294   7.442   2.701
12673TIP3    H237965   8.202   7.538   2.629
12674TIP3   OH237966   6.817   7.761   3.247
12674TIP3    H137967   6.765   7.837   3.220
12674TIP3    H237968   6.819   7.767   3.342
12675TIP3   OH237969   3.863   1.650   2.212
12675TIP3    H137970   3.856   1.737   2.173
12675TIP3    H237971   3.879   1.666   2.305
12676TIP3   OH237972   1.789   0.886   5.073
12676TIP3    H137973   1.830   0.846   5.150
12676TIP3    H237974   1.734   0.817   5.037
12677TIP3   OH237975   1.186   4.995   4.478
12677TIP3    H137976   1.175   5.072   4.421
12677TIP3    H237977   1.275   5.003   4.512
12678TIP3   OH237978   1.437   6.026   5.038
12678TIP3    H137979   1.402   5.958   5.096
12678TIP3    H237980   1.454   5.980   4.955
12679TIP3   OH237981   7.650   3.821   1.573
12679TIP3    H137982   7.645   3.744   1.516
12679TIP3    H237983   7.567   3.866   1.559
12680TIP3   OH237984   6.036   2.139   5.185
12680TIP3    H137985   5.999   2.060   5.147
12680TIP3    H237986   6.116   2.109   5.230
12681TIP3   OH237987   2.321   3.509   4.318
12681TIP3    H137988   2.284   3.529   4.404
12681TIP3    H237989   2.400   3.562   4.313
12682TIP3   OH237990   5.717   1.199   1.393
12682TIP3    H137991   5.637   1.223   1.345
12682TIP3    H237992   5.693   1.209   1.485
12683TIP3   OH237993   1.898   4.731   3.763
12683TIP3    H137994   1.932   4.666   3.825
12683TIP3    H237995   1.860   4.799   3.818
12684TIP3   OH237996   2.710   5.600   3.361
12684TIP3    H137997   2.652   5.558   3.297
12684TIP3    H237998   2.792   5.616   3.313
12685TIP3   OH237999   2.173   4.474   0.568
12685TIP3    H138000   2.195   4.551   0.517
12685TIP3    H238001   2.103   4.431   0.519
12686TIP3   OH238002   3.969   7.404   0.190
12686TIP3    H138003   3.932   7.316   0.186
12686TIP3    H238004   4.040   7.403   0.125
12687TIP3   OH238005   3.589   1.557   5.957
12687TIP3    H138006   3.511   1.611   5.948
12687TIP3    H238007   3.586   1.499   5.881
12688TIP3   OH238008   7.001   2.053   3.669
12688TIP3    H138009   7.037   2.129   3.623
12688TIP3    H238010   6.916   2.039   3.628
12689TIP3   OH238011   1.161   6.355   4.938
12689TIP3    H138012   1.070   6.384   4.938
12689TIP3    H238013   1.164   6.286   4.871
12690TIP3   OH238014   6.002   4.749   0.138
12690TIP3    H138015   5.967   4.821   0.190
12690TIP3    H238016   5.939   4.678   0.151
12691TIP3   OH238017   2.000   4.577   3.966
12691TIP3    H138018   2.028   4.648   4.024
12691TIP3    H238019   2.081   4.542   3.930
12692TIP3   OH238020   6.266   4.124   3.666
12692TIP3    H138021   6.339   4.151   3.610
12692TIP3    H238022   6.188   4.155   3.620
12693TIP3   OH238023   1.444   4.735   4.391
12693TIP3    H138024   1.484   4.813   4.430
12693TIP3    H238025   1.420   4.762   4.303
12694TIP3   OH238026   6.483   7.332   6.408
12694TIP3    H138027   6.488   7.236   6.399
12694TIP3    H238028   6.389   7.350   6.415
12695TIP3   OH238029   6.724   3.461   5.621
12695TIP3    H138030   6.715   3.440   5.714
12695TIP3    H238031   6.795   3.404   5.591
12696TIP3   OH238032   3.627   4.346   2.255
12696TIP3    H138033   3.576   4.335   2.175
12696TIP3    H238034   3.657   4.437   2.252
12697TIP3   OH238035   6.855   0.025   6.529
12697TIP3    H138036   6.911   0.036   6.452
12697TIP3    H238037   6.782  -0.029   6.498
12698TIP3   OH238038   4.417   5.088   5.091
12698TIP3    H138039   4.506   5.120   5.074
12698TIP3    H238040   4.419   4.996   5.065
12699TIP3   OH238041   3.080   2.089   1.625
12699TIP3    H138042   3.111   2.001   1.607
12699TIP3    H238043   3.126   2.115   1.705
12700TIP3   OH238044   7.075   3.330   3.217
12700TIP3    H138045   7.169   3.316   3.225
12700TIP3    H238046   7.066   3.395   3.147
12701TIP3   OH238047   2.579   7.333   3.503
12701TIP3    H138048   2.545   7.315   3.415
12701TIP3    H238049   2.514   7.392   3.542
12702TIP3   OH238050   1.967   7.312   5.002
12702TIP3    H138051   2.022   7.234   5.010
12702TIP3    H238052   2.004   7.360   4.928
12703TIP3   OH238053   1.828   7.766   6.721
12703TIP3    H138054   1.843   7.676   6.691
12703TIP3    H238055   1.742   7.789   6.687
12704TIP3   OH238056   6.415   1.990   3.722
12704TIP3    H138057   6.483   2.034   3.773
12704TIP3    H238058   6.385   2.056   3.660
12705TIP3   OH238059   5.962   1.904   2.662
12705TIP3    H138060   5.896   1.900   2.731
12705TIP3    H238061   5.950   1.990   2.622
12706TIP3   OH238062   0.252   4.499   6.252
12706TIP3    H138063   0.241   4.577   6.307
12706TIP3    H238064   0.237   4.531   6.163
12707TIP3   OH238065   3.012   7.080   4.419
12707TIP3    H138066   3.098   7.107   4.386
12707TIP3    H238067   3.020   7.084   4.514
12708TIP3   OH238068   6.002   1.529   4.101
12708TIP3    H138069   6.076   1.503   4.156
12708TIP3    H238070   5.991   1.622   4.120
12709TIP3   OH238071   4.620   0.868   4.725
12709TIP3    H138072   4.574   0.863   4.641
12709TIP3    H238073   4.613   0.780   4.761
12710TIP3   OH238074   4.352   4.103   1.373
12710TIP3    H138075   4.273   4.152   1.351
12710TIP3    H238076   4.422   4.168   1.377
12711TIP3   OH238077   2.844   6.629   5.212
12711TIP3    H138078   2.862   6.551   5.265
12711TIP3    H238079   2.761   6.609   5.168
12712TIP3   OH238080   3.098   7.810   2.862
12712TIP3    H138081   3.015   7.786   2.820
12712TIP3    H238082   3.165   7.791   2.797
12713TIP3   OH238083   7.965   4.288   0.048
12713TIP3    H138084   7.969   4.310  -0.045
12713TIP3    H238085   7.930   4.367   0.089
12714TIP3   OH238086   0.439   1.902   1.458
12714TIP3    H138087   0.489   1.940   1.531
12714TIP3    H238088   0.504   1.851   1.409
12715TIP3   OH238089   5.106   2.520   1.097
12715TIP3    H138090   5.062   2.528   1.012
12715TIP3    H238091   5.081   2.599   1.144
12716TIP3   OH238092   2.239   4.007   2.694
12716TIP3    H138093   2.225   4.045   2.781
12716TIP3    H238094   2.175   3.936   2.689
12717TIP3   OH238095   4.559   2.585   3.989
12717TIP3    H138096   4.584   2.662   4.041
12717TIP3    H238097   4.616   2.515   4.022
12718TIP3   OH238098   3.773   2.080   4.174
12718TIP3    H138099   3.792   2.173   4.169
12718TIP3    H238100   3.763   2.062   4.267
12719TIP3   OH238101   1.256   3.977   2.109
12719TIP3    H138102   1.249   4.029   2.030
12719TIP3    H238103   1.196   3.904   2.096
12720TIP3   OH238104   2.011   4.545   0.789
12720TIP3    H138105   2.073   4.507   0.727
12720TIP3    H238106   1.967   4.469   0.829
12721TIP3   OH238107   3.721   5.087   0.591
12721TIP3    H138108   3.731   4.992   0.594
12721TIP3    H238109   3.724   5.108   0.497
12722TIP3   OH238110   2.486   7.782   2.313
12722TIP3    H138111   2.537   7.761   2.391
12722TIP3    H238112   2.427   7.852   2.340
12723TIP3   OH238113   5.482   0.028   1.304
12723TIP3    H138114   5.458   0.115   1.272
12723TIP3    H238115   5.474  -0.029   1.228
12724TIP3   OH238116   4.407   6.599   6.693
12724TIP3    H138117   4.429   6.507   6.705
12724TIP3    H238118   4.486   6.647   6.717
12725TIP3   OH238119   3.553   3.364   5.691
12725TIP3    H138120   3.643   3.364   5.658
12725TIP3    H238121   3.512   3.288   5.650
12726TIP3   OH238122   3.519   5.425   5.946
12726TIP3    H138123   3.532   5.426   6.041
12726TIP3    H238124   3.424   5.422   5.935
12727TIP3   OH238125   3.087   5.610   5.084
12727TIP3    H138126   3.045   5.685   5.042
12727TIP3    H238127   3.105   5.549   5.012
12728TIP3   OH238128   1.839   5.052   1.226
12728TIP3    H138129   1.760   5.079   1.273
12728TIP3    H238130   1.816   5.058   1.133
12729TIP3   OH238131   1.759   5.071   3.162
12729TIP3    H138132   1.759   5.111   3.075
12729TIP3    H238133   1.771   4.977   3.146
12730TIP3   OH238134   7.620   4.740   3.622
12730TIP3    H138135   7.584   4.808   3.679
12730TIP3    H238136   7.622   4.780   3.536
12731TIP3   OH238137   4.770   3.827   1.099
12731TIP3    H138138   4.705   3.863   1.039
12731TIP3    H238139   4.813   3.757   1.049
12732TIP3   OH238140   2.631   5.144   0.751
12732TIP3    H138141   2.594   5.209   0.692
12732TIP3    H238142   2.710   5.113   0.706
12733TIP3   OH238143   4.981   0.067   4.673
12733TIP3    H138144   4.972   0.153   4.712
12733TIP3    H238145   5.000   0.084   4.580
12734TIP3   OH238146   7.432   1.463   5.938
12734TIP3    H138147   7.511   1.451   5.885
12734TIP3    H238148   7.428   1.557   5.954
12735TIP3   OH238149   7.946   0.876   1.589
12735TIP3    H138150   7.851   0.879   1.586
12735TIP3    H238151   7.974   0.954   1.541
12736TIP3   OH238152   1.850   6.856   6.147
12736TIP3    H138153   1.870   6.795   6.076
12736TIP3    H238154   1.871   6.942   6.110
12737TIP3   OH238155   0.100   4.058   1.694
12737TIP3    H138156   0.052   4.140   1.684
12737TIP3    H238157   0.045   4.005   1.752
12738TIP3   OH238158   5.027   2.898   0.422
12738TIP3    H138159   5.056   2.989   0.420
12738TIP3    H238160   4.963   2.891   0.352
12739TIP3   OH238161   6.956   4.158   6.574
12739TIP3    H138162   6.863   4.158   6.554
12739TIP3    H238163   6.993   4.227   6.519
12740TIP3   OH238164   2.622   1.651   6.164
12740TIP3    H138165   2.545   1.641   6.109
12740TIP3    H238166   2.588   1.683   6.247
12741TIP3   OH238167   0.275   1.101   1.173
12741TIP3    H138168   0.218   1.094   1.249
12741TIP3    H238169   0.216   1.100   1.098
12742TIP3   OH238170   6.224   3.305   3.521
12742TIP3    H138171   6.150   3.350   3.482
12742TIP3    H238172   6.296   3.368   3.516
12743TIP3   OH238173   6.705   0.893   1.024
12743TIP3    H138174   6.733   0.802   1.029
12743TIP3    H238175   6.697   0.910   0.930
12744TIP3   OH238176   0.292   0.586   6.275
12744TIP3    H138177   0.281   0.655   6.341
12744TIP3    H238178   0.359   0.620   6.216
12745TIP3   OH238179   2.466   4.602   0.852
12745TIP3    H138180   2.489   4.687   0.815
12745TIP3    H238181   2.536   4.544   0.824
12746TIP3   OH238182   8.216   2.141   6.508
12746TIP3    H138183   8.236   2.077   6.577
12746TIP3    H238184   8.224   2.226   6.551
12747TIP3   OH238185   4.122   4.984   2.540
12747TIP3    H138186   4.092   4.930   2.466
12747TIP3    H238187   4.062   5.059   2.540
12748TIP3   OH238188   6.110   5.338   4.745
12748TIP3    H138189   6.202   5.357   4.726
12748TIP3    H238190   6.092   5.257   4.698
12749TIP3   OH238191   4.853   0.748   2.226
12749TIP3    H138192   4.859   0.733   2.132
12749TIP3    H238193   4.880   0.666   2.266
12750TIP3   OH238194   6.368   6.897   4.441
12750TIP3    H138195   6.447   6.846   4.455
12750TIP3    H238196   6.349   6.887   4.348
12751TIP3   OH238197   0.970   6.103   6.151
12751TIP3    H138198   0.982   6.175   6.089
12751TIP3    H238199   0.877   6.106   6.173
12752TIP3   OH238200   4.907   6.191   4.218
12752TIP3    H138201   4.827   6.139   4.207
12752TIP3    H238202   4.968   6.156   4.154
12753TIP3   OH238203   1.104   7.155   1.054
12753TIP3    H138204   1.026   7.103   1.035
12753TIP3    H238205   1.105   7.163   1.149
12754TIP3   OH238206   0.443   0.292   3.003
12754TIP3    H138207   0.525   0.322   2.964
12754TIP3    H238208   0.467   0.262   3.091
12755TIP3   OH238209   0.587   3.915   5.679
12755TIP3    H138210   0.667   3.863   5.674
12755TIP3    H238211   0.566   3.935   5.588
12756TIP3   OH238212   5.085   3.779   5.060
12756TIP3    H138213   5.146   3.735   5.000
12756TIP3    H238214   5.133   3.855   5.092
12757TIP3   OH238215   0.480   5.977   1.988
12757TIP3    H138216   0.503   5.972   2.081
12757TIP3    H238217   0.501   6.067   1.963
12758TIP3   OH238218   2.201   1.422   0.268
12758TIP3    H138219   2.199   1.383   0.356
12758TIP3    H238220   2.238   1.509   0.281
12759TIP3   OH238221   7.695   5.384   5.154
12759TIP3    H138222   7.721   5.322   5.223
12759TIP3    H238223   7.747   5.462   5.171
12760TIP3   OH238224   3.695   3.180   0.294
12760TIP3    H138225   3.729   3.269   0.287
12760TIP3    H238226   3.657   3.175   0.382
12761TIP3   OH238227   5.800   5.357   4.036
12761TIP3    H138228   5.866   5.402   3.983
12761TIP3    H238229   5.850   5.316   4.107
12762TIP3   OH238230   5.926   4.687   5.828
12762TIP3    H138231   6.010   4.720   5.794
12762TIP3    H238232   5.869   4.763   5.829
12763TIP3   OH238233   4.571   0.330   4.028
12763TIP3    H138234   4.609   0.258   4.079
12763TIP3    H238235   4.476   0.319   4.040
12764TIP3   OH238236   2.700   0.420   1.516
12764TIP3    H138237   2.747   0.346   1.556
12764TIP3    H238238   2.755   0.445   1.442
12765TIP3   OH238239   4.628   3.246   4.717
12765TIP3    H138240   4.605   3.320   4.662
12765TIP3    H238241   4.639   3.173   4.656
12766TIP3   OH238242   7.152   1.695   0.729
12766TIP3    H138243   7.144   1.660   0.818
12766TIP3    H238244   7.158   1.790   0.741
12767TIP3   OH238245   0.646   7.540   5.592
12767TIP3    H138246   0.656   7.619   5.537
12767TIP3    H238247   0.600   7.571   5.670
12768TIP3   OH238248   0.918   3.552   1.370
12768TIP3    H138249   0.983   3.561   1.439
12768TIP3    H238250   0.921   3.635   1.322
12769TIP3   OH238251   5.802   7.647   4.624
12769TIP3    H138252   5.799   7.570   4.680
12769TIP3    H238253   5.896   7.664   4.612
12770TIP3   OH238254   2.922   4.933   3.740
12770TIP3    H138255   2.953   4.886   3.663
12770TIP3    H238256   2.916   4.867   3.808
12771TIP3   OH238257   8.214   4.522   1.052
12771TIP3    H138258   8.278   4.468   1.006
12771TIP3    H238259   8.241   4.612   1.033
12772TIP3   OH238260   5.941   5.754   0.216
12772TIP3    H138261   5.982   5.679   0.174
12772TIP3    H238262   5.871   5.780   0.156
12773TIP3   OH238263   6.999   2.071   2.054
12773TIP3    H138264   7.047   2.000   2.095
12773TIP3    H238265   6.958   2.031   1.977
12774TIP3   OH238266   2.484   5.811   0.341
12774TIP3    H138267   2.483   5.796   0.246
12774TIP3    H238268   2.453   5.728   0.378
12775TIP3   OH238269   4.457   6.328   3.904
12775TIP3    H138270   4.435   6.356   3.993
12775TIP3    H238271   4.439   6.405   3.850
12776TIP3   OH238272   5.614   3.623  -0.033
12776TIP3    H138273   5.646   3.683   0.035
12776TIP3    H238274   5.608   3.538   0.010
12777TIP3   OH238275   1.934   5.660   0.648
12777TIP3    H138276   1.904   5.646   0.738
12777TIP3    H238277   1.902   5.583   0.600
12778TIP3   OH238278   2.213   3.116   1.197
12778TIP3    H138279   2.267   3.182   1.241
12778TIP3    H238280   2.252   3.032   1.222
12779TIP3   OH238281   4.246   6.834   5.375
12779TIP3    H138282   4.260   6.906   5.314
12779TIP3    H238283   4.170   6.787   5.341
12780TIP3   OH238284   0.983   5.210   1.190
12780TIP3    H138285   0.935   5.291   1.173
12780TIP3    H238286   1.061   5.238   1.239
12781TIP3   OH238287   0.047   4.590   1.367
12781TIP3    H138288  -0.002   4.668   1.341
12781TIP3    H238289   0.120   4.586   1.306
12782TIP3   OH238290   2.006   3.339   5.158
12782TIP3    H138291   1.944   3.271   5.183
12782TIP3    H238292   1.952   3.409   5.122
12783TIP3   OH238293   0.785   0.811   5.518
12783TIP3    H138294   0.760   0.732   5.565
12783TIP3    H238295   0.769   0.790   5.426
12784TIP3   OH238296   5.381   6.420   1.894
12784TIP3    H138297   5.454   6.450   1.840
12784TIP3    H238298   5.335   6.357   1.838
12785TIP3   OH238299   0.776   3.202   3.763
12785TIP3    H138300   0.712   3.227   3.829
12785TIP3    H238301   0.844   3.155   3.812
12786TIP3   OH238302   2.754   1.926   0.731
12786TIP3    H138303   2.802   1.892   0.806
12786TIP3    H238304   2.805   2.001   0.701
12787TIP3   OH238305   5.384   1.442   1.505
12787TIP3    H138306   5.340   1.434   1.420
12787TIP3    H238307   5.360   1.529   1.536
12788TIP3   OH238308   7.066   5.630   5.231
12788TIP3    H138309   7.045   5.541   5.205
12788TIP3    H238310   7.132   5.659   5.168
12789TIP3   OH238311   8.268   3.763   3.090
12789TIP3    H138312   8.173   3.757   3.095
12789TIP3    H238313   8.284   3.811   3.009
12790TIP3   OH238314   4.105   4.599   0.196
12790TIP3    H138315   4.062   4.658   0.134
12790TIP3    H238316   4.149   4.657   0.258
12791TIP3   OH238317   5.612   2.652   5.250
12791TIP3    H138318   5.539   2.679   5.306
12791TIP3    H238319   5.642   2.569   5.288
12792TIP3   OH238320   0.708   4.761   4.272
12792TIP3    H138321   0.763   4.683   4.280
12792TIP3    H238322   0.769   4.834   4.279
12793TIP3   OH238323   4.454   7.189   4.563
12793TIP3    H138324   4.500   7.112   4.531
12793TIP3    H238325   4.516   7.232   4.620
12794TIP3   OH238326   5.435   2.035   5.830
12794TIP3    H138327   5.464   1.947   5.804
12794TIP3    H238328   5.350   2.020   5.872
12795TIP3   OH238329   1.973   5.657   6.146
12795TIP3    H138330   1.881   5.673   6.127
12795TIP3    H238331   2.011   5.632   6.062
12796TIP3   OH238332   7.072   1.166   1.525
12796TIP3    H138333   7.119   1.247   1.545
12796TIP3    H238334   7.142   1.102   1.507
12797TIP3   OH238335   6.892   1.717   1.459
12797TIP3    H138336   6.819   1.678   1.413
12797TIP3    H238337   6.914   1.796   1.409
12798TIP3   OH238338   5.884   7.393   4.688
12798TIP3    H138339   5.889   7.380   4.783
12798TIP3    H238340   5.825   7.324   4.657
12799TIP3   OH238341   4.551   5.977   3.733
12799TIP3    H138342   4.486   5.950   3.799
12799TIP3    H238343   4.586   6.059   3.766
12800TIP3   OH238344   7.966   3.607   3.720
12800TIP3    H138345   7.996   3.533   3.669
12800TIP3    H238346   7.981   3.581   3.811
12801TIP3   OH238347   7.301   0.950   4.893
12801TIP3    H138348   7.353   0.872   4.874
12801TIP3    H238349   7.242   0.922   4.964
12802TIP3   OH238350   1.521   5.302   5.288
12802TIP3    H138351   1.517   5.372   5.223
12802TIP3    H238352   1.450   5.242   5.265
12803TIP3   OH238353   2.805   5.076   4.303
12803TIP3    H138354   2.714   5.048   4.319
12803TIP3    H238355   2.853   4.994   4.288
12804TIP3   OH238356   7.280   3.118   6.432
12804TIP3    H138357   7.368   3.085   6.414
12804TIP3    H238358   7.240   3.051   6.488
12805TIP3   OH238359   5.450   1.581   6.643
12805TIP3    H138360   5.389   1.520   6.683
12805TIP3    H238361   5.447   1.658   6.700
12806TIP3   OH238362   4.896   6.852   4.780
12806TIP3    H138363   4.932   6.764   4.770
12806TIP3    H238364   4.875   6.859   4.873
12807TIP3   OH238365   0.683   4.536   0.004
12807TIP3    H138366   0.719   4.523   0.091
12807TIP3    H238367   0.722   4.467  -0.049
12808TIP3   OH238368   1.780   4.659   2.728
12808TIP3    H138369   1.778   4.738   2.674
12808TIP3    H238370   1.861   4.667   2.779
12809TIP3   OH238371   4.129   6.191   6.324
12809TIP3    H138372   4.097   6.241   6.400
12809TIP3    H238373   4.185   6.253   6.277
12810TIP3   OH238374   7.426   4.000   4.142
12810TIP3    H138375   7.499   4.042   4.095
12810TIP3    H238376   7.469   3.941   4.204
12811TIP3   OH238377   1.907   4.642   2.414
12811TIP3    H138378   1.930   4.634   2.322
12811TIP3    H238379   1.962   4.714   2.447
12812TIP3   OH238380   0.594   1.879   4.026
12812TIP3    H138381   0.688   1.869   4.014
12812TIP3    H238382   0.584   1.920   4.111
12813TIP3   OH238383   0.243   5.901   1.364
12813TIP3    H138384   0.333   5.930   1.348
12813TIP3    H238385   0.201   5.906   1.278
12814TIP3   OH238386   2.767   1.602   0.113
12814TIP3    H138387   2.674   1.612   0.132
12814TIP3    H238388   2.811   1.629   0.194
12815TIP3   OH238389   7.854   2.009   0.272
12815TIP3    H138390   7.816   1.943   0.214
12815TIP3    H238391   7.784   2.031   0.333
12816TIP3   OH238392   4.341   4.056   5.918
12816TIP3    H138393   4.318   3.963   5.922
12816TIP3    H238394   4.274   4.099   5.971
12817TIP3   OH238395   2.863   4.447  -0.006
12817TIP3    H138396   2.930   4.515  -0.011
12817TIP3    H238397   2.794   4.485   0.048
12818TIP3   OH238398   0.992   0.269   5.582
12818TIP3    H138399   1.036   0.351   5.558
12818TIP3    H238400   1.039   0.239   5.660
12819TIP3   OH238401   0.500   6.237   0.921
12819TIP3    H138402   0.554   6.193   0.987
12819TIP3    H238403   0.562   6.258   0.851
12820TIP3   OH238404   1.514   5.111   0.620
12820TIP3    H138405   1.596   5.065   0.604
12820TIP3    H238406   1.497   5.157   0.538
12821TIP3   OH238407   3.939   3.224   4.915
12821TIP3    H138408   4.007   3.290   4.931
12821TIP3    H238409   3.987   3.141   4.912
12822TIP3   OH238410   4.068   4.912   4.260
12822TIP3    H138411   3.989   4.905   4.206
12822TIP3    H238412   4.140   4.892   4.200
12823TIP3   OH238413   6.926   3.537   0.126
12823TIP3    H138414   6.928   3.630   0.103
12823TIP3    H238415   6.833   3.517   0.139
12824TIP3   OH238416   0.075   4.966   2.664
12824TIP3    H138417   0.157   4.917   2.656
12824TIP3    H238418   0.098   5.041   2.719
12825TIP3   OH238419   1.883   2.237   4.900
12825TIP3    H138420   1.957   2.184   4.929
12825TIP3    H238421   1.806   2.187   4.927
12826TIP3   OH238422   2.022   4.412   0.107
12826TIP3    H138423   1.945   4.443   0.058
12826TIP3    H238424   2.029   4.320   0.085
12827TIP3   OH238425   7.054   5.482   4.188
12827TIP3    H138426   7.113   5.406   4.193
12827TIP3    H238427   6.983   5.453   4.131
12828TIP3   OH238428   1.917   2.027   2.323
12828TIP3    H138429   1.870   2.098   2.366
12828TIP3    H238430   1.960   1.980   2.394
12829TIP3   OH238431   3.262   4.453   0.287
12829TIP3    H138432   3.287   4.382   0.347
12829TIP3    H238433   3.167   4.452   0.287
12830TIP3   OH238434   5.673   5.805   1.707
12830TIP3    H138435   5.628   5.848   1.634
12830TIP3    H238436   5.604   5.758   1.753
12831TIP3   OH238437   5.382   7.383   0.762
12831TIP3    H138438   5.304   7.431   0.791
12831TIP3    H238439   5.364   7.362   0.670
12832TIP3   OH238440   4.386   2.502   4.600
12832TIP3    H138441   4.316   2.533   4.658
12832TIP3    H238442   4.452   2.466   4.658
12833TIP3   OH238443   8.069   5.386   0.344
12833TIP3    H138444   8.024   5.303   0.332
12833TIP3    H238445   8.161   5.362   0.354
12834TIP3   OH238446   6.277   6.647   0.751
12834TIP3    H138447   6.313   6.734   0.738
12834TIP3    H238448   6.182   6.659   0.745
12835TIP3   OH238449   2.902   1.395   2.999
12835TIP3    H138450   2.878   1.399   3.092
12835TIP3    H238451   2.820   1.408   2.952
12836TIP3   OH238452   3.225   3.905   2.500
12836TIP3    H138453   3.293   3.912   2.433
12836TIP3    H238454   3.253   3.832   2.555
12837TIP3   OH238455   4.913   0.806   1.215
12837TIP3    H138456   4.930   0.713   1.232
12837TIP3    H238457   4.842   0.805   1.150
12838TIP3   OH238458   6.275   2.679   0.023
12838TIP3    H138459   6.199   2.736   0.035
12838TIP3    H238460   6.351   2.734   0.042
12839TIP3   OH238461   1.451   4.743   5.394
12839TIP3    H138462   1.501   4.824   5.389
12839TIP3    H238463   1.378   4.763   5.453
12840TIP3   OH238464   2.245   4.554   6.375
12840TIP3    H138465   2.327   4.604   6.372
12840TIP3    H238466   2.273   4.465   6.397
12841TIP3   OH238467   4.326   7.522   6.543
12841TIP3    H138468   4.322   7.440   6.493
12841TIP3    H238469   4.238   7.534   6.577
12842TIP3   OH238470   0.135   0.332   5.411
12842TIP3    H138471   0.081   0.284   5.474
12842TIP3    H238472   0.137   0.277   5.333
12843TIP3   OH238473   4.023   6.245   2.158
12843TIP3    H138474   3.960   6.284   2.219
12843TIP3    H238475   4.070   6.181   2.211
12844TIP3   OH238476   4.659   3.886   3.829
12844TIP3    H138477   4.564   3.884   3.819
12844TIP3    H238478   4.679   3.975   3.858
12845TIP3   OH238479   5.902   6.512   4.812
12845TIP3    H138480   5.858   6.589   4.847
12845TIP3    H238481   5.961   6.485   4.882
12846TIP3   OH238482   6.858   5.064   0.722
12846TIP3    H138483   6.781   5.008   0.730
12846TIP3    H238484   6.880   5.061   0.629
12847TIP3   OH238485   7.959   2.481   1.754
12847TIP3    H138486   8.036   2.523   1.791
12847TIP3    H238487   7.992   2.430   1.680
12848TIP3   OH238488   3.030   6.022   3.691
12848TIP3    H138489   3.080   5.984   3.619
12848TIP3    H238490   3.021   5.951   3.755
12849TIP3   OH238491   1.074   3.685   5.730
12849TIP3    H138492   1.092   3.672   5.823
12849TIP3    H238493   0.988   3.727   5.728
12850TIP3   OH238494   1.367   2.101   3.700
12850TIP3    H138495   1.293   2.089   3.759
12850TIP3    H238496   1.437   2.135   3.756
12851TIP3   OH238497   6.604   2.036   1.250
12851TIP3    H138498   6.604   1.964   1.188
12851TIP3    H238499   6.680   2.019   1.306
12852TIP3   OH238500   7.510   4.241   6.199
12852TIP3    H138501   7.442   4.236   6.266
12852TIP3    H238502   7.464   4.271   6.121
12853TIP3   OH238503   7.038   6.842   3.186
12853TIP3    H138504   7.107   6.843   3.253
12853TIP3    H238505   7.064   6.772   3.126
12854TIP3   OH238506   1.430   3.964   1.248
12854TIP3    H138507   1.338   3.981   1.226
12854TIP3    H238508   1.452   4.031   1.312
12855TIP3   OH238509   7.250   1.044   5.922
12855TIP3    H138510   7.172   0.989   5.907
12855TIP3    H238511   7.219   1.114   5.979
12856TIP3   OH238512   7.328   3.879   3.928
12856TIP3    H138513   7.273   3.801   3.929
12856TIP3    H238514   7.338   3.904   4.020
12857TIP3   OH238515   0.437   2.936   0.905
12857TIP3    H138516   0.376   2.873   0.944
12857TIP3    H238517   0.404   3.022   0.932
12858TIP3   OH238518   3.900   0.060   5.544
12858TIP3    H138519   3.953   0.070   5.464
12858TIP3    H238520   3.887  -0.035   5.552
12859TIP3   OH238521   0.051   0.174   6.457
12859TIP3    H138522   0.120   0.225   6.414
12859TIP3    H238523   0.010   0.125   6.385
12860TIP3   OH238524   0.814   0.887   0.940
12860TIP3    H138525   0.880   0.872   0.873
12860TIP3    H238526   0.785   0.977   0.926
12861TIP3   OH238527   5.023   1.483   6.427
12861TIP3    H138528   5.031   1.574   6.457
12861TIP3    H238529   4.934   1.477   6.393
12862TIP3   OH238530   0.723   6.347   4.007
12862TIP3    H138531   0.690   6.434   4.028
12862TIP3    H238532   0.734   6.347   3.911
12863TIP3   OH238533   6.984   3.465   3.870
12863TIP3    H138534   7.049   3.398   3.848
12863TIP3    H238535   6.906   3.416   3.897
12864TIP3   OH238536   6.786   7.052   5.547
12864TIP3    H138537   6.694   7.048   5.521
12864TIP3    H238538   6.834   7.048   5.464
12865TIP3   OH238539   4.174   7.035   2.937
12865TIP3    H138540   4.221   6.993   2.864
12865TIP3    H238541   4.164   7.126   2.909
12866TIP3   OH238542   5.284   3.029   1.757
12866TIP3    H138543   5.205   2.998   1.713
12866TIP3    H238544   5.325   3.088   1.694
12867TIP3   OH238545   5.595   2.961   4.286
12867TIP3    H138546   5.566   2.998   4.370
12867TIP3    H238547   5.571   3.027   4.221
12868TIP3   OH238548   7.810   2.799   3.406
12868TIP3    H138549   7.869   2.850   3.350
12868TIP3    H238550   7.723   2.814   3.371
12869TIP3   OH238551   6.832   7.452   4.605
12869TIP3    H138552   6.880   7.502   4.539
12869TIP3    H238553   6.792   7.380   4.556
12870TIP3   OH238554   0.851   2.270   6.614
12870TIP3    H138555   0.761   2.270   6.647
12870TIP3    H238556   0.845   2.223   6.531
12871TIP3   OH238557   0.122   0.811   2.756
12871TIP3    H138558   0.177   0.770   2.690
12871TIP3    H238559   0.179   0.821   2.832
12872TIP3   OH238560   6.543   5.043   5.073
12872TIP3    H138561   6.475   5.088   5.022
12872TIP3    H238562   6.519   5.059   5.164
12873TIP3   OH238563   0.625   4.350   3.887
12873TIP3    H138564   0.582   4.416   3.941
12873TIP3    H238565   0.718   4.357   3.911
12874TIP3   OH238566   2.116   3.235   6.623
12874TIP3    H138567   2.203   3.204   6.648
12874TIP3    H238568   2.060   3.215   6.698
12875TIP3   OH238569   4.891   3.812   0.758
12875TIP3    H138570   4.816   3.849   0.710
12875TIP3    H238571   4.858   3.731   0.796
12876TIP3   OH238572   6.981   7.101   5.292
12876TIP3    H138573   6.890   7.105   5.264
12876TIP3    H238574   7.005   7.192   5.311
12877TIP3   OH238575   3.648   1.479   1.818
12877TIP3    H138576   3.734   1.518   1.797
12877TIP3    H238577   3.630   1.507   1.907
12878TIP3   OH238578   7.311   7.237   2.697
12878TIP3    H138579   7.328   7.315   2.750
12878TIP3    H238580   7.352   7.256   2.613
12879TIP3   OH238581   3.638   5.437   0.915
12879TIP3    H138582   3.609   5.426   0.824
12879TIP3    H238583   3.558   5.429   0.967
12880TIP3   OH238584   5.562   6.888   5.787
12880TIP3    H138585   5.608   6.831   5.725
12880TIP3    H238586   5.632   6.932   5.835
12881TIP3   OH238587   2.770   3.115   3.175
12881TIP3    H138588   2.820   3.114   3.093
12881TIP3    H238589   2.807   3.187   3.225
12882TIP3   OH238590   8.075   2.826   1.824
12882TIP3    H138591   8.101   2.740   1.858
12882TIP3    H238592   8.041   2.807   1.736
12883TIP3   OH238593   2.912   3.007   2.062
12883TIP3    H138594   2.952   2.930   2.104
12883TIP3    H238595   2.817   2.990   2.068
12884TIP3   OH238596   2.020   3.604   6.260
12884TIP3    H138597   2.033   3.633   6.170
12884TIP3    H238598   2.005   3.684   6.310
12885TIP3   OH238599   6.076   5.808   4.491
12885TIP3    H138600   6.029   5.756   4.426
12885TIP3    H238601   6.021   5.885   4.505
12886TIP3   OH238602   7.167   0.206   1.690
12886TIP3    H138603   7.222   0.251   1.755
12886TIP3    H238604   7.081   0.247   1.700
12887TIP3   OH238605   4.847   3.607   0.931
12887TIP3    H138606   4.940   3.597   0.953
12887TIP3    H238607   4.807   3.525   0.962
12888TIP3   OH238608   0.566   6.484   6.272
12888TIP3    H138609   0.475   6.458   6.289
12888TIP3    H238610   0.589   6.539   6.347
12889TIP3   OH238611   3.776   6.535   3.031
12889TIP3    H138612   3.784   6.467   3.098
12889TIP3    H238613   3.862   6.576   3.028
12890TIP3   OH238614   5.869   7.743   5.459
12890TIP3    H138615   5.774   7.751   5.452
12890TIP3    H238616   5.895   7.818   5.513
12891TIP3   OH238617  -0.022   0.134   2.285
12891TIP3    H138618   0.003   0.221   2.318
12891TIP3    H238619   0.036   0.121   2.209
12892TIP3   OH238620   8.229   2.878   0.054
12892TIP3    H138621   8.140   2.894   0.024
12892TIP3    H238622   8.259   2.963   0.086
12893TIP3   OH238623   1.633   0.677   1.303
12893TIP3    H138624   1.629   0.616   1.230
12893TIP3    H238625   1.542   0.697   1.323
12894TIP3   OH238626   6.404   4.922   1.416
12894TIP3    H138627   6.325   4.903   1.366
12894TIP3    H238628   6.384   5.003   1.463
12895TIP3   OH238629   2.803   5.174   5.022
12895TIP3    H138630   2.731   5.237   5.016
12895TIP3    H238631   2.847   5.181   4.937
12896TIP3   OH238632   0.429   0.839   4.076
12896TIP3    H138633   0.384   0.793   4.147
12896TIP3    H238634   0.362   0.849   4.008
12897TIP3   OH238635   4.552   6.436   4.173
12897TIP3    H138636   4.604   6.418   4.252
12897TIP3    H238637   4.611   6.488   4.118
12898TIP3   OH238638   4.784   6.952   1.868
12898TIP3    H138639   4.712   6.956   1.932
12898TIP3    H238640   4.855   6.909   1.916
12899TIP3   OH238641   5.034   1.118   0.565
12899TIP3    H138642   5.109   1.060   0.572
12899TIP3    H238643   5.022   1.132   0.471
12900TIP3   OH238644   2.846   4.391   6.656
12900TIP3    H138645   2.868   4.439   6.576
12900TIP3    H238646   2.926   4.343   6.678
12901TIP3   OH238647   7.861   7.263   3.280
12901TIP3    H138648   7.947   7.255   3.321
12901TIP3    H238649   7.851   7.182   3.230
12902TIP3   OH238650   5.336   0.785   4.457
12902TIP3    H138651   5.314   0.862   4.509
12902TIP3    H238652   5.260   0.728   4.464
12903TIP3   OH238653   4.054   6.318   4.807
12903TIP3    H138654   4.003   6.289   4.883
12903TIP3    H238655   3.989   6.343   4.742
12904TIP3   OH238656   0.414   1.323   5.967
12904TIP3    H138657   0.363   1.403   5.967
12904TIP3    H238658   0.403   1.287   6.055
12905TIP3   OH238659   2.581   6.396   1.969
12905TIP3    H138660   2.533   6.469   1.931
12905TIP3    H238661   2.646   6.374   1.902
12906TIP3   OH238662   7.103   3.778   5.150
12906TIP3    H138663   7.158   3.760   5.226
12906TIP3    H238664   7.068   3.865   5.165
12907TIP3   OH238665   4.996   7.079   4.462
12907TIP3    H138666   5.083   7.091   4.424
12907TIP3    H238667   5.005   7.000   4.516
12908TIP3   OH238668   6.460   3.270   6.238
12908TIP3    H138669   6.512   3.341   6.200
12908TIP3    H238670   6.522   3.198   6.249
12909TIP3   OH238671   2.744   3.143   1.722
12909TIP3    H138672   2.805   3.072   1.702
12909TIP3    H238673   2.705   3.120   1.806
12910TIP3   OH238674   3.828   0.499   5.288
12910TIP3    H138675   3.908   0.450   5.309
12910TIP3    H238676   3.821   0.495   5.193
12911TIP3   OH238677   3.874   2.068   5.337
12911TIP3    H138678   3.912   1.981   5.332
12911TIP3    H238679   3.781   2.056   5.317
12912TIP3   OH238680   3.665   0.996   4.968
12912TIP3    H138681   3.694   1.000   5.059
12912TIP3    H238682   3.598   1.065   4.962
12913TIP3   OH238683   7.264   2.341   0.357
12913TIP3    H138684   7.292   2.272   0.296
12913TIP3    H238685   7.291   2.422   0.315
12914TIP3   OH238686   0.754   0.700   3.728
12914TIP3    H138687   0.779   0.718   3.819
12914TIP3    H238688   0.799   0.619   3.706
12915TIP3   OH238689   7.950   0.041   1.765
12915TIP3    H138690   7.989   0.068   1.848
12915TIP3    H238691   7.937  -0.054   1.775
12916TIP3   OH238692   0.152   3.313   3.339
12916TIP3    H138693   0.194   3.384   3.388
12916TIP3    H238694   0.129   3.351   3.255
12917TIP3   OH238695   2.235   0.475   2.426
12917TIP3    H138696   2.237   0.508   2.516
12917TIP3    H238697   2.175   0.533   2.381
12918TIP3   OH238698   6.937   7.399   0.478
12918TIP3    H138699   7.003   7.380   0.544
12918TIP3    H238700   6.980   7.458   0.417
12919TIP3   OH238701   6.320   4.632   1.734
12919TIP3    H138702   6.339   4.553   1.785
12919TIP3    H238703   6.406   4.668   1.711
12920TIP3   OH238704   6.444   5.308   4.451
12920TIP3    H138705   6.430   5.313   4.357
12920TIP3    H238706   6.536   5.283   4.461
12921TIP3   OH238707   7.742   3.610   6.237
12921TIP3    H138708   7.733   3.518   6.213
12921TIP3    H238709   7.678   3.656   6.184
12922TIP3   OH238710   5.042   2.054   0.439
12922TIP3    H138711   5.017   2.061   0.530
12922TIP3    H238712   5.132   2.088   0.436
12923TIP3   OH238713   6.796   3.443   2.462
12923TIP3    H138714   6.736   3.435   2.389
12923TIP3    H238715   6.851   3.518   2.439
12924TIP3   OH238716   5.668   3.913   2.763
12924TIP3    H138717   5.638   3.964   2.688
12924TIP3    H238718   5.755   3.948   2.783
12925TIP3   OH238719   6.858   6.676   1.495
12925TIP3    H138720   6.768   6.642   1.494
12925TIP3    H238721   6.858   6.741   1.565
12926TIP3   OH238722   0.051   6.063   6.125
12926TIP3    H138723  -0.020   6.125   6.110
12926TIP3    H238724   0.009   5.987   6.165
12927TIP3   OH238725   2.345   4.749   6.114
12927TIP3    H138726   2.365   4.660   6.084
12927TIP3    H238727   2.430   4.784   6.142
12928TIP3   OH238728   5.301   6.787   5.815
12928TIP3    H138729   5.381   6.838   5.830
12928TIP3    H238730   5.318   6.736   5.736
12929TIP3   OH238731   4.465   2.091   4.793
12929TIP3    H138732   4.513   2.095   4.711
12929TIP3    H238733   4.467   2.180   4.827
12930TIP3   OH238734   5.073   6.077   4.041
12930TIP3    H138735   5.134   6.151   4.037
12930TIP3    H238736   5.102   6.026   4.116
12931TIP3   OH238737   8.127   5.023   5.812
12931TIP3    H138738   8.218   5.050   5.802
12931TIP3    H238739   8.079   5.072   5.746
12932TIP3   OH238740   4.474   1.312   1.813
12932TIP3    H138741   4.424   1.301   1.732
12932TIP3    H238742   4.408   1.337   1.878
12933TIP3   OH238743   0.493   3.264   2.432
12933TIP3    H138744   0.423   3.201   2.414
12933TIP3    H238745   0.451   3.331   2.486
12934TIP3   OH238746   2.779   3.601   5.899
12934TIP3    H138747   2.699   3.652   5.890
12934TIP3    H238748   2.782   3.547   5.820
12935TIP3   OH238749   3.827   0.426   2.445
12935TIP3    H138750   3.759   0.372   2.485
12935TIP3    H238751   3.878   0.459   2.518
12936TIP3   OH238752   4.189   1.312   1.751
12936TIP3    H138753   4.253   1.336   1.684
12936TIP3    H238754   4.111   1.287   1.701
12937TIP3   OH238755   8.069   0.676   1.747
12937TIP3    H138756   8.054   0.583   1.729
12937TIP3    H238757   8.007   0.722   1.691
12938TIP3   OH238758   7.561   7.364   3.246
12938TIP3    H138759   7.633   7.305   3.269
12938TIP3    H238760   7.559   7.364   3.151
12939TIP3   OH238761   0.022   4.302   4.576
12939TIP3    H138762   0.053   4.229   4.629
12939TIP3    H238763  -0.066   4.277   4.550
12940TIP3   OH238764   2.256   7.018   1.000
12940TIP3    H138765   2.228   6.945   1.056
12940TIP3    H238766   2.317   7.068   1.054
12941TIP3   OH238767   4.383   5.206   4.492
12941TIP3    H138768   4.351   5.121   4.462
12941TIP3    H238769   4.420   5.188   4.579
12942TIP3   OH238770   1.693   0.307   5.316
12942TIP3    H138771   1.766   0.358   5.348
12942TIP3    H238772   1.654   0.268   5.394
12943TIP3   OH238773   2.849   5.309   6.647
12943TIP3    H138774   2.886   5.221   6.635
12943TIP3    H238775   2.876   5.357   6.569
12944TIP3   OH238776   4.416   3.254   4.412
12944TIP3    H138777   4.332   3.245   4.458
12944TIP3    H238778   4.434   3.348   4.413
12945TIP3   OH238779   2.540   7.547   6.135
12945TIP3    H138780   2.616   7.574   6.084
12945TIP3    H238781   2.529   7.454   6.114
12946TIP3   OH238782   5.111   2.652   5.738
12946TIP3    H138783   5.160   2.641   5.819
12946TIP3    H238784   5.029   2.604   5.752
12947TIP3   OH238785   5.331   5.677   5.344
12947TIP3    H138786   5.305   5.769   5.335
12947TIP3    H238787   5.412   5.681   5.395
12948TIP3   OH238788   7.488   2.002   4.893
12948TIP3    H138789   7.504   2.034   4.982
12948TIP3    H238790   7.573   2.004   4.850
12949TIP3   OH238791   5.233   2.369   5.459
12949TIP3    H138792   5.138   2.372   5.443
12949TIP3    H238793   5.255   2.457   5.490
12950TIP3   OH238794   5.798   7.428   3.211
12950TIP3    H138795   5.829   7.453   3.298
12950TIP3    H238796   5.722   7.485   3.195
12951TIP3   OH238797   6.822   0.548   1.425
12951TIP3    H138798   6.758   0.532   1.494
12951TIP3    H238799   6.790   0.497   1.350
12952TIP3   OH238800   7.091   7.740   2.588
12952TIP3    H138801   7.157   7.759   2.655
12952TIP3    H238802   7.021   7.697   2.636
12953TIP3   OH238803   2.154   5.988   5.654
12953TIP3    H138804   2.178   6.073   5.616
12953TIP3    H238805   2.122   6.010   5.741
12954TIP3   OH238806   3.920   7.547   4.745
12954TIP3    H138807   3.900   7.604   4.819
12954TIP3    H238808   3.930   7.606   4.671
12955TIP3   OH238809   4.182   1.092   1.920
12955TIP3    H138810   4.256   1.031   1.919
12955TIP3    H238811   4.208   1.163   1.862
12956TIP3   OH238812   1.214   7.593   5.577
12956TIP3    H138813   1.286   7.618   5.635
12956TIP3    H238814   1.256   7.579   5.492
12957TIP3   OH238815   0.794   5.338   1.019
12957TIP3    H138816   0.752   5.401   0.962
12957TIP3    H238817   0.840   5.278   0.960
12958TIP3   OH238818   0.018   7.025   3.277
12958TIP3    H138819   0.097   7.075   3.295
12958TIP3    H238820   0.009   7.026   3.182
12959TIP3   OH238821   1.466   0.339   3.174
12959TIP3    H138822   1.511   0.352   3.090
12959TIP3    H238823   1.450   0.427   3.207
12960TIP3   OH238824   3.057   5.364   1.847
12960TIP3    H138825   3.053   5.272   1.873
12960TIP3    H238826   3.084   5.361   1.755
12961TIP3   OH238827   5.960   0.406   0.463
12961TIP3    H138828   6.042   0.456   0.457
12961TIP3    H238829   5.924   0.429   0.549
12962TIP3   OH238830   5.833   4.859   5.197
12962TIP3    H138831   5.863   4.856   5.287
12962TIP3    H238832   5.899   4.812   5.147
12963TIP3   OH238833   6.685   6.917   4.032
12963TIP3    H138834   6.666   6.960   4.115
12963TIP3    H238835   6.734   6.838   4.055
12964TIP3   OH238836   0.892   3.561   3.076
12964TIP3    H138837   0.917   3.471   3.096
12964TIP3    H238838   0.811   3.575   3.126
12965TIP3   OH238839   6.788   4.967   4.969
12965TIP3    H138840   6.697   4.982   4.997
12965TIP3    H238841   6.784   4.971   4.873
12966TIP3   OH238842   4.025   0.148   3.058
12966TIP3    H138843   4.104   0.095   3.071
12966TIP3    H238844   4.048   0.209   2.988
12967TIP3   OH238845   0.808   4.887   5.625
12967TIP3    H138846   0.881   4.827   5.605
12967TIP3    H238847   0.800   4.883   5.720
12968TIP3   OH238848   3.621   6.137   4.355
12968TIP3    H138849   3.626   6.046   4.384
12968TIP3    H238850   3.657   6.136   4.266
12969TIP3   OH238851   7.519   7.302   3.634
12969TIP3    H138852   7.558   7.350   3.561
12969TIP3    H238853   7.427   7.329   3.635
12970TIP3   OH238854   6.000   0.161   3.513
12970TIP3    H138855   5.985   0.104   3.437
12970TIP3    H238856   6.095   0.160   3.525
12971TIP3   OH238857   0.341   2.069   6.712
12971TIP3    H138858   0.347   2.070   6.808
12971TIP3    H238859   0.268   2.128   6.692
12972TIP3   OH238860   5.978   7.632   0.250
12972TIP3    H138861   6.056   7.680   0.220
12972TIP3    H238862   6.014   7.559   0.301
12973TIP3   OH238863   0.653   2.825   0.253
12973TIP3    H138864   0.581   2.795   0.198
12973TIP3    H238865   0.656   2.920   0.238
12974TIP3   OH238866   0.971   6.107   0.159
12974TIP3    H138867   0.911   6.131   0.088
12974TIP3    H238868   1.052   6.080   0.115
12975TIP3   OH238869   6.172   6.100   0.455
12975TIP3    H138870   6.132   6.013   0.454
12975TIP3    H238871   6.151   6.136   0.369
12976TIP3   OH238872   2.382   7.781   5.402
12976TIP3    H138873   2.455   7.781   5.341
12976TIP3    H238874   2.314   7.730   5.358
12977TIP3   OH238875   4.238   0.903   4.811
12977TIP3    H138876   4.184   0.869   4.740
12977TIP3    H238877   4.179   0.957   4.863
12978TIP3   OH238878   1.347   1.288   1.194
12978TIP3    H138879   1.375   1.301   1.285
12978TIP3    H238880   1.273   1.228   1.200
12979TIP3   OH238881   2.113   5.888   5.311
12979TIP3    H138882   2.111   5.983   5.323
12979TIP3    H238883   2.021   5.861   5.314
12980TIP3   OH238884   6.576   4.225   0.048
12980TIP3    H138885   6.532   4.278   0.114
12980TIP3    H238886   6.505   4.186  -0.003
12981TIP3   OH238887   3.606   7.646   0.063
12981TIP3    H138888   3.547   7.623  -0.009
12981TIP3    H238889   3.589   7.739   0.080
12982TIP3   OH238890   7.900   0.412   1.696
12982TIP3    H138891   7.987   0.377   1.675
12982TIP3    H238892   7.839   0.347   1.660
12983TIP3   OH238893   5.017   1.433   2.149
12983TIP3    H138894   4.931   1.413   2.186
12983TIP3    H238895   5.061   1.349   2.141
12984TIP3   OH238896   3.467   4.412   1.393
12984TIP3    H138897   3.441   4.497   1.427
12984TIP3    H238898   3.496   4.363   1.470
12985TIP3   OH238899   7.837   7.099   6.470
12985TIP3    H138900   7.885   7.102   6.553
12985TIP3    H238901   7.867   7.018   6.429
12986TIP3   OH238902   4.546   1.355   4.783
12986TIP3    H138903   4.463   1.401   4.796
12986TIP3    H238904   4.530   1.268   4.820
12987TIP3   OH238905   2.023   2.429   5.237
12987TIP3    H138906   2.070   2.511   5.219
12987TIP3    H238907   2.090   2.371   5.273
12988TIP3   OH238908   0.147   2.833   4.115
12988TIP3    H138909   0.107   2.918   4.093
12988TIP3    H238910   0.227   2.856   4.162
12989TIP3   OH238911   3.904   5.928   6.630
12989TIP3    H138912   3.838   5.961   6.692
12989TIP3    H238913   3.983   5.916   6.683
12990TIP3   OH238914   7.452   0.560   1.050
12990TIP3    H138915   7.380   0.520   1.099
12990TIP3    H238916   7.425   0.553   0.958
12991TIP3   OH238917   1.741   6.710   5.657
12991TIP3    H138918   1.665   6.711   5.716
12991TIP3    H238919   1.703   6.702   5.570
12992TIP3   OH238920   7.264   0.491   2.768
12992TIP3    H138921   7.186   0.457   2.724
12992TIP3    H238922   7.245   0.481   2.862
12993TIP3   OH238923   6.333   6.969   6.610
12993TIP3    H138924   6.395   6.981   6.682
12993TIP3    H238925   6.346   6.879   6.582
12994TIP3   OH238926   7.041   1.357   4.882
12994TIP3    H138927   7.041   1.409   4.802
12994TIP3    H238928   7.134   1.350   4.906
12995TIP3   OH238929   2.255   2.307   1.220
12995TIP3    H138930   2.226   2.379   1.276
12995TIP3    H238931   2.200   2.233   1.247
12996TIP3   OH238932   1.908   1.646   5.236
12996TIP3    H138933   1.965   1.579   5.198
12996TIP3    H238934   1.968   1.704   5.283
12997TIP3   OH238935   5.273   7.542   3.917
12997TIP3    H138936   5.364   7.568   3.898
12997TIP3    H238937   5.246   7.491   3.841
12998TIP3   OH238938   2.987   6.464   4.461
12998TIP3    H138939   3.081   6.465   4.442
12998TIP3    H238940   2.974   6.385   4.513
12999TIP3   OH238941   5.314   1.517   2.309
12999TIP3    H138942   5.223   1.546   2.305
12999TIP3    H238943   5.312   1.429   2.270
13000TIP3   OH238944   8.066   4.451   4.114
13000TIP3    H138945   8.034   4.541   4.113
13000TIP3    H238946   8.127   4.448   4.187
13001TIP3   OH238947   8.076   4.739   1.197
13001TIP3    H138948   8.045   4.663   1.246
13001TIP3    H238949   8.001   4.765   1.143
13002TIP3   OH238950   1.817   7.504   6.687
13002TIP3    H138951   1.724   7.480   6.695
13002TIP3    H238952   1.863   7.420   6.688
13003TIP3   OH238953   6.556   4.168   6.155
13003TIP3    H138954   6.563   4.257   6.119
13003TIP3    H238955   6.466   4.162   6.186
13004TIP3   OH238956   6.241   5.526   4.298
13004TIP3    H138957   6.307   5.492   4.239
13004TIP3    H238958   6.222   5.453   4.358
13005TIP3   OH238959   1.857   4.759   6.365
13005TIP3    H138960   1.925   4.824   6.347
13005TIP3    H238961   1.834   4.773   6.457
13006TIP3   OH238962   3.965   6.859   0.991
13006TIP3    H138963   3.947   6.910   0.912
13006TIP3    H238964   4.002   6.777   0.959
13007TIP3   OH238965   5.586   5.356   5.307
13007TIP3    H138966   5.611   5.264   5.313
13007TIP3    H238967   5.668   5.402   5.289
13008TIP3   OH238968   2.131   1.352   3.043
13008TIP3    H138969   2.037   1.339   3.026
13008TIP3    H238970   2.170   1.363   2.957
13009TIP3   OH238971   3.106   0.083   2.175
13009TIP3    H138972   3.012   0.085   2.190
13009TIP3    H238973   3.115   0.057   2.083
13010TIP3   OH238974   7.412   4.382   1.696
13010TIP3    H138975   7.390   4.318   1.628
13010TIP3    H238976   7.498   4.354   1.729
13011TIP3   OH238977   8.058   7.068   4.404
13011TIP3    H138978   7.966   7.043   4.402
13011TIP3    H238979   8.103   6.997   4.356
13012TIP3   OH238980   8.249   0.086   2.671
13012TIP3    H138981   8.256  -0.001   2.712
13012TIP3    H238982   8.337   0.123   2.679
13013TIP3   OH238983   5.239   4.223   6.276
13013TIP3    H138984   5.307   4.290   6.266
13013TIP3    H238985   5.160   4.272   6.298
13014TIP3   OH238986   0.729   4.956   1.714
13014TIP3    H138987   0.697   4.869   1.738
13014TIP3    H238988   0.755   4.996   1.797
13015TIP3   OH238989   5.763   2.187   4.970
13015TIP3    H138990   5.723   2.262   5.013
13015TIP3    H238991   5.855   2.190   4.996
13016TIP3   OH238992   3.834   6.438   0.931
13016TIP3    H138993   3.769   6.404   0.869
13016TIP3    H238994   3.912   6.455   0.877
13017TIP3   OH238995   6.329   7.114   3.396
13017TIP3    H138996   6.273   7.170   3.342
13017TIP3    H238997   6.393   7.175   3.434
13018TIP3   OH238998   0.794   7.675   2.568
13018TIP3    H138999   0.870   7.730   2.548
13018TIP3    H239000   0.763   7.645   2.482
13019TIP3   OH239001   3.619   1.386   3.483
13019TIP3    H139002   3.621   1.457   3.419
13019TIP3    H239003   3.527   1.364   3.492
13020TIP3   OH239004   0.735   7.728   1.727
13020TIP3    H139005   0.685   7.774   1.795
13020TIP3    H239006   0.770   7.651   1.770
13021TIP3   OH239007   2.500   5.483   1.858
13021TIP3    H139008   2.539   5.509   1.942
13021TIP3    H239009   2.471   5.393   1.872
13022TIP3   OH239010   2.149   5.801   6.553
13022TIP3    H139011   2.178   5.731   6.495
13022TIP3    H239012   2.175   5.882   6.508
13023TIP3   OH239013   3.152   2.834   5.320
13023TIP3    H139014   3.189   2.793   5.242
13023TIP3    H239015   3.069   2.788   5.335
13024TIP3   OH239016   4.906   3.496   4.436
13024TIP3    H139017   4.914   3.453   4.521
13024TIP3    H239018   4.989   3.542   4.424
13025TIP3   OH239019   4.743   3.358   0.929
13025TIP3    H139020   4.676   3.312   0.879
13025TIP3    H239021   4.819   3.300   0.927
13026TIP3   OH239022   0.933   6.583   3.399
13026TIP3    H139023   0.839   6.589   3.414
13026TIP3    H239024   0.959   6.671   3.372
13027TIP3   OH239025   6.007   2.860   0.787
13027TIP3    H139026   5.980   2.947   0.817
13027TIP3    H239027   6.083   2.839   0.840
13028TIP3   OH239028   3.106   3.306   0.630
13028TIP3    H139029   3.147   3.271   0.709
13028TIP3    H239030   3.023   3.344   0.661
13029TIP3   OH239031   6.103   3.276   3.173
13029TIP3    H139032   6.017   3.283   3.215
13029TIP3    H239033   6.086   3.234   3.089
13030TIP3   OH239034   7.315   1.505   2.056
13030TIP3    H139035   7.342   1.414   2.039
13030TIP3    H239036   7.234   1.515   2.004
13031TIP3   OH239037   4.333   7.352   3.327
13031TIP3    H139038   4.264   7.285   3.321
13031TIP3    H239039   4.330   7.397   3.243
13032TIP3   OH239040   5.153   4.807   0.423
13032TIP3    H139041   5.201   4.754   0.486
13032TIP3    H239042   5.197   4.790   0.339
13033TIP3   OH239043   3.000   2.224   4.597
13033TIP3    H139044   3.026   2.233   4.505
13033TIP3    H239045   2.913   2.184   4.593
13034TIP3   OH239046   7.029   1.801   5.167
13034TIP3    H139047   6.978   1.730   5.129
13034TIP3    H239048   6.992   1.814   5.254
13035TIP3   OH239049   1.255   6.905   5.608
13035TIP3    H139050   1.252   6.810   5.602
13035TIP3    H239051   1.190   6.927   5.675
13036TIP3   OH239052   5.312   4.666   3.666
13036TIP3    H139053   5.341   4.667   3.574
13036TIP3    H239054   5.324   4.756   3.695
13037TIP3   OH239055   6.561   4.246   0.636
13037TIP3    H139056   6.624   4.174   0.643
13037TIP3    H239057   6.598   4.316   0.691
13038TIP3   OH239058   4.670   0.056   0.826
13038TIP3    H139059   4.645   0.142   0.792
13038TIP3    H239060   4.592   0.002   0.814
13039TIP3   OH239061   5.352   1.728   4.219
13039TIP3    H139062   5.392   1.641   4.216
13039TIP3    H239063   5.289   1.728   4.147
13040TIP3   OH239064   4.231   2.206   2.828
13040TIP3    H139065   4.260   2.275   2.888
13040TIP3    H239066   4.153   2.243   2.785
13041TIP3   OH239067   5.087   3.767   3.720
13041TIP3    H139068   5.083   3.832   3.650
13041TIP3    H239069   5.030   3.801   3.788
13042TIP3   OH239070   5.362   1.339   4.569
13042TIP3    H139071   5.427   1.408   4.558
13042TIP3    H239072   5.393   1.268   4.514
13043TIP3   OH239073   6.471   4.552   5.589
13043TIP3    H139074   6.386   4.561   5.547
13043TIP3    H239075   6.486   4.457   5.593
13044TIP3   OH239076   3.119   0.750   6.340
13044TIP3    H139077   3.116   0.825   6.399
13044TIP3    H239078   3.062   0.775   6.267
13045TIP3   OH239079   6.859   1.448   1.625
13045TIP3    H139080   6.791   1.504   1.663
13045TIP3    H239081   6.911   1.508   1.571
13046TIP3   OH239082   0.298   5.059   3.305
13046TIP3    H139083   0.328   5.010   3.228
13046TIP3    H239084   0.372   5.055   3.366
13047TIP3   OH239085   4.159   5.988   6.730
13047TIP3    H139086   4.196   5.954   6.648
13047TIP3    H239087   4.233   5.992   6.790
13048TIP3   OH239088   6.383   0.879   0.089
13048TIP3    H139089   6.466   0.881   0.043
13048TIP3    H239090   6.317   0.880   0.019
13049TIP3   OH239091   1.169   3.361   1.207
13049TIP3    H139092   1.229   3.388   1.138
13049TIP3    H239093   1.084   3.396   1.180
13050TIP3   OH239094   7.424   0.452   5.248
13050TIP3    H139095   7.468   0.497   5.176
13050TIP3    H239096   7.478   0.374   5.264
13051TIP3   OH239097   6.711   2.906   3.512
13051TIP3    H139098   6.649   2.869   3.575
13051TIP3    H239099   6.686   2.868   3.428
13052TIP3   OH239100   0.288   1.985   2.547
13052TIP3    H139101   0.209   1.972   2.496
13052TIP3    H239102   0.344   1.910   2.525
13053TIP3   OH239103   4.425   4.438   4.698
13053TIP3    H139104   4.474   4.513   4.664
13053TIP3    H239105   4.400   4.389   4.620
13054TIP3   OH239106   4.439   0.797   0.701
13054TIP3    H139107   4.348   0.768   0.708
13054TIP3    H239108   4.489   0.734   0.753
13055TIP3   OH239109   0.434   1.744   3.524
13055TIP3    H139110   0.392   1.743   3.439
13055TIP3    H239111   0.508   1.683   3.516
13056TIP3   OH239112   6.563   3.290   0.781
13056TIP3    H139113   6.620   3.260   0.852
13056TIP3    H239114   6.518   3.211   0.752
13057TIP3   OH239115   0.266   0.106   4.473
13057TIP3    H139116   0.333   0.039   4.486
13057TIP3    H239117   0.186   0.057   4.456
13058TIP3   OH239118   2.421   3.309   2.466
13058TIP3    H139119   2.434   3.403   2.463
13058TIP3    H239120   2.503   3.272   2.432
13059TIP3   OH239121   6.460   0.980   6.288
13059TIP3    H139122   6.440   1.014   6.375
13059TIP3    H239123   6.539   1.027   6.261
13060TIP3   OH239124   1.781   7.089   0.429
13060TIP3    H139125   1.763   7.002   0.393
13060TIP3    H239126   1.876   7.096   0.431
13061TIP3   OH239127   4.481   2.573   2.877
13061TIP3    H139128   4.386   2.583   2.883
13061TIP3    H239129   4.494   2.482   2.849
13062TIP3   OH239130   5.843   2.874   3.711
13062TIP3    H139131   5.816   2.914   3.629
13062TIP3    H239132   5.927   2.916   3.732
13063TIP3   OH239133   5.743   5.241   2.463
13063TIP3    H139134   5.773   5.218   2.551
13063TIP3    H239135   5.671   5.301   2.476
13064TIP3   OH239136   0.728   1.154   6.399
13064TIP3    H139137   0.719   1.149   6.304
13064TIP3    H239138   0.727   1.064   6.429
13065TIP3   OH239139   7.088   3.529   1.129
13065TIP3    H139140   7.124   3.616   1.115
13065TIP3    H239141   7.053   3.531   1.218
13066TIP3   OH239142   0.656   1.790   1.279
13066TIP3    H139143   0.722   1.724   1.256
13066TIP3    H239144   0.597   1.792   1.204
13067TIP3   OH239145   5.879   5.397   4.521
13067TIP3    H139146   5.852   5.488   4.519
13067TIP3    H239147   5.957   5.396   4.576
13068TIP3   OH239148   4.844   0.131   1.435
13068TIP3    H139149   4.768   0.089   1.396
13068TIP3    H239150   4.807   0.194   1.497
13069TIP3   OH239151   6.052   7.389   0.343
13069TIP3    H139152   5.979   7.329   0.357
13069TIP3    H239153   6.097   7.356   0.266
13070TIP3   OH239154   0.624   5.651   4.235
13070TIP3    H139155   0.533   5.633   4.259
13070TIP3    H239156   0.668   5.566   4.240
13071TIP3   OH239157   7.541   2.274   4.668
13071TIP3    H139158   7.616   2.327   4.641
13071TIP3    H239159   7.495   2.329   4.732
13072TIP3   OH239160   3.663   3.180   2.405
13072TIP3    H139161   3.736   3.240   2.395
13072TIP3    H239162   3.589   3.224   2.363
13073TIP3   OH239163   0.775   1.798   6.212
13073TIP3    H139164   0.780   1.720   6.268
13073TIP3    H239165   0.731   1.864   6.266
13074TIP3   OH239166   5.102   6.413   0.081
13074TIP3    H139167   5.169   6.424   0.014
13074TIP3    H239168   5.068   6.502   0.094
13075TIP3   OH239169   5.969   3.826   0.430
13075TIP3    H139170   5.939   3.916   0.439
13075TIP3    H239171   5.945   3.800   0.341
13076TIP3   OH239172   6.381   5.933   2.300
13076TIP3    H139173   6.359   5.922   2.393
13076TIP3    H239174   6.453   5.997   2.300
13077TIP3   OH239175   1.520   3.948   2.216
13077TIP3    H139176   1.427   3.948   2.195
13077TIP3    H239177   1.549   3.859   2.195
13078TIP3   OH239178   3.562   4.540   6.057
13078TIP3    H139179   3.520   4.600   5.995
13078TIP3    H239180   3.579   4.461   6.006
13079TIP3   OH239181   1.504   4.225   0.621
13079TIP3    H139182   1.525   4.171   0.545
13079TIP3    H239183   1.589   4.252   0.656
13080TIP3   OH239184   6.752   4.376   0.808
13080TIP3    H139185   6.753   4.461   0.853
13080TIP3    H239186   6.842   4.346   0.812
13081TIP3   OH239187   4.076   0.312   0.842
13081TIP3    H139188   4.093   0.224   0.807
13081TIP3    H239189   4.162   0.343   0.870
13082TIP3   OH239190   5.650   5.004   4.518
13082TIP3    H139191   5.720   4.957   4.564
13082TIP3    H239192   5.649   5.091   4.558
13083TIP3   OH239193   5.126   3.960   1.208
13083TIP3    H139194   5.153   3.906   1.134
13083TIP3    H239195   5.122   3.898   1.281
13084TIP3   OH239196   0.919   7.619   1.231
13084TIP3    H139197   0.875   7.687   1.282
13084TIP3    H239198   0.848   7.570   1.190
13085TIP3   OH239199   7.333   1.712   2.308
13085TIP3    H139200   7.309   1.671   2.391
13085TIP3    H239201   7.342   1.638   2.248
13086TIP3   OH239202   2.577   7.263   4.683
13086TIP3    H139203   2.622   7.344   4.708
13086TIP3    H239204   2.524   7.240   4.759
13087TIP3   OH239205   1.583   6.147   1.368
13087TIP3    H139206   1.526   6.075   1.396
13087TIP3    H239207   1.539   6.226   1.401
13088TIP3   OH239208   2.304   1.612   2.128
13088TIP3    H139209   2.313   1.691   2.075
13088TIP3    H239210   2.352   1.545   2.080
13089TIP3   OH239211   3.543   6.673   4.056
13089TIP3    H139212   3.546   6.596   4.113
13089TIP3    H239213   3.521   6.746   4.114
13090TIP3   OH239214   6.405   0.087   5.024
13090TIP3    H139215   6.463   0.039   4.965
13090TIP3    H239216   6.352   0.019   5.067
13091TIP3   OH239217   4.601   3.454   4.546
13091TIP3    H139218   4.552   3.533   4.567
13091TIP3    H239219   4.648   3.476   4.465
13092TIP3   OH239220   1.847   5.775   3.176
13092TIP3    H139221   1.910   5.704   3.186
13092TIP3    H239222   1.781   5.758   3.244
13093TIP3   OH239223   3.226   4.394   0.867
13093TIP3    H139224   3.269   4.456   0.925
13093TIP3    H239225   3.263   4.309   0.891
13094TIP3   OH239226   3.997   5.062   0.161
13094TIP3    H139227   4.053   5.138   0.143
13094TIP3    H239228   4.018   5.038   0.252
13095TIP3   OH239229   3.100   7.287   1.756
13095TIP3    H139230   3.008   7.295   1.730
13095TIP3    H239231   3.141   7.368   1.724
13096TIP3   OH239232   7.875   1.113   6.042
13096TIP3    H139233   7.910   1.200   6.062
13096TIP3    H239234   7.900   1.060   6.117
13097TIP3   OH239235   3.965   4.819   5.195
13097TIP3    H139236   3.974   4.861   5.109
13097TIP3    H239237   3.880   4.776   5.192
13098TIP3   OH239238   8.093   1.867   4.324
13098TIP3    H139239   8.005   1.834   4.309
13098TIP3    H239240   8.089   1.960   4.301
13099TIP3   OH239241   0.097   1.149   5.826
13099TIP3    H139242   0.053   1.166   5.909
13099TIP3    H239243   0.143   1.066   5.840
13100TIP3   OH239244   5.163   5.228   5.243
13100TIP3    H139245   5.084   5.231   5.298
13100TIP3    H239246   5.215   5.303   5.274
13101TIP3   OH239247   5.096   3.059   2.212
13101TIP3    H139248   5.116   2.972   2.246
13101TIP3    H239249   5.165   3.116   2.247
13102TIP3   OH239250   7.435   6.447   0.945
13102TIP3    H139251   7.509   6.500   0.975
13102TIP3    H239252   7.413   6.483   0.859
13103TIP3   OH239253   5.604   7.175   3.096
13103TIP3    H139254   5.681   7.134   3.057
13103TIP3    H239255   5.537   7.170   3.028
13104TIP3   OH239256   5.638   3.279   2.031
13104TIP3    H139257   5.660   3.246   1.944
13104TIP3    H239258   5.547   3.253   2.045
13105TIP3   OH239259   4.885   5.692   5.956
13105TIP3    H139260   4.915   5.728   6.039
13105TIP3    H239261   4.895   5.763   5.893
13106TIP3   OH239262   3.101   2.149   3.209
13106TIP3    H139263   3.091   2.135   3.303
13106TIP3    H239264   3.117   2.062   3.173
13107TIP3   OH239265   2.931   0.711   4.290
13107TIP3    H139266   2.841   0.683   4.272
13107TIP3    H239267   2.963   0.744   4.205
13108TIP3   OH239268   7.069   5.748   4.241
13108TIP3    H139269   7.049   5.655   4.240
13108TIP3    H239270   7.043   5.777   4.329
13109TIP3   OH239271   8.151   0.911   5.925
13109TIP3    H139272   8.089   0.894   5.854
13109TIP3    H239273   8.096   0.923   6.002
13110TIP3   OH239274   0.254   1.040   3.871
13110TIP3    H139275   0.262   1.111   3.935
13110TIP3    H239276   0.259   1.085   3.786
13111TIP3   OH239277   8.085   3.018   2.868
13111TIP3    H139278   8.151   3.087   2.877
13111TIP3    H239279   8.048   3.009   2.956
13112TIP3   OH239280   3.644   0.574   2.816
13112TIP3    H139281   3.625   0.650   2.761
13112TIP3    H239282   3.718   0.602   2.871
13113TIP3   OH239283   6.369   4.847   1.884
13113TIP3    H139284   6.332   4.858   1.971
13113TIP3    H239285   6.332   4.764   1.852
13114TIP3   OH239286   2.902   0.832   6.181
13114TIP3    H139287   2.842   0.761   6.154
13114TIP3    H239288   2.934   0.868   6.098
13115TIP3   OH239289   4.328   2.366   1.567
13115TIP3    H139290   4.257   2.304   1.583
13115TIP3    H239291   4.284   2.447   1.541
13116TIP3   OH239292   4.937   3.291   3.303
13116TIP3    H139293   4.872   3.239   3.256
13116TIP3    H239294   4.933   3.258   3.393
13117TIP3   OH239295   7.052   6.436   3.443
13117TIP3    H139296   7.144   6.409   3.446
13117TIP3    H239297   7.035   6.449   3.350
13118TIP3   OH239298   6.981   0.580   4.511
13118TIP3    H139299   6.961   0.646   4.444
13118TIP3    H239300   6.912   0.514   4.500
13119TIP3   OH239301   5.047   5.802   4.987
13119TIP3    H139302   4.974   5.839   5.037
13119TIP3    H239303   5.077   5.728   5.039
13120TIP3   OH239304   3.656   0.170   1.130
13120TIP3    H139305   3.696   0.251   1.160
13120TIP3    H239306   3.578   0.160   1.185
13121TIP3   OH239307   5.807   0.005   1.660
13121TIP3    H139308   5.755   0.026   1.737
13121TIP3    H239309   5.889   0.053   1.672
13122TIP3   OH239310   5.215   7.580   1.816
13122TIP3    H139311   5.134   7.552   1.859
13122TIP3    H239312   5.280   7.584   1.886
13123TIP3   OH239313   5.430   4.816   0.980
13123TIP3    H139314   5.375   4.742   0.955
13123TIP3    H239315   5.394   4.890   0.932
13124TIP3   OH239316   3.082   0.491   6.365
13124TIP3    H139317   3.098   0.586   6.358
13124TIP3    H239318   3.017   0.483   6.434
13125TIP3   OH239319   1.918   1.254   5.218
13125TIP3    H139320   1.934   1.283   5.308
13125TIP3    H239321   1.970   1.174   5.209
13126TIP3   OH239322   3.992   5.335   4.951
13126TIP3    H139323   3.936   5.266   4.916
13126TIP3    H239324   3.941   5.374   5.022
13127TIP3   OH239325   5.404   5.249   4.566
13127TIP3    H139326   5.484   5.243   4.619
13127TIP3    H239327   5.391   5.343   4.553
13128TIP3   OH239328   0.423   1.318   1.865
13128TIP3    H139329   0.343   1.275   1.835
13128TIP3    H239330   0.486   1.247   1.879
13129TIP3   OH239331   7.624   0.950   2.262
13129TIP3    H139332   7.653   0.921   2.349
13129TIP3    H239333   7.555   1.015   2.280
13130TIP3   OH239334   0.310   6.216   6.001
13130TIP3    H139335   0.392   6.257   5.974
13130TIP3    H239336   0.329   6.122   6.002
13131TIP3   OH239337   3.358   4.019   2.101
13131TIP3    H139338   3.417   4.054   2.167
13131TIP3    H239339   3.277   4.001   2.149
13132TIP3   OH239340   3.103   1.844   3.362
13132TIP3    H139341   3.090   1.920   3.418
13132TIP3    H239342   3.159   1.785   3.413
13133TIP3   OH239343   6.590   7.338   5.781
13133TIP3    H139344   6.659   7.326   5.716
13133TIP3    H239345   6.510   7.313   5.735
13134TIP3   OH239346   0.586   6.716   3.616
13134TIP3    H139347   0.491   6.709   3.633
13134TIP3    H239348   0.611   6.629   3.584
13135TIP3   OH239349   4.724   2.873   1.861
13135TIP3    H139350   4.688   2.949   1.815
13135TIP3    H239351   4.816   2.897   1.877
13136TIP3   OH239352   2.738   3.696   2.309
13136TIP3    H139353   2.812   3.661   2.259
13136TIP3    H239354   2.775   3.720   2.393
13137TIP3   OH239355   8.118   2.805   3.567
13137TIP3    H139356   8.118   2.835   3.657
13137TIP3    H239357   8.143   2.882   3.516
13138TIP3   OH239358   7.205   0.737   0.401
13138TIP3    H139359   7.197   0.713   0.309
13138TIP3    H239360   7.296   0.714   0.424
13139TIP3   OH239361   3.168   3.963   0.165
13139TIP3    H139362   3.121   4.021   0.105
13139TIP3    H239363   3.118   3.968   0.247
13140TIP3   OH239364   2.314   2.873   2.663
13140TIP3    H139365   2.233   2.837   2.701
13140TIP3    H239366   2.284   2.950   2.615
13141TIP3   OH239367   7.569   5.293   1.573
13141TIP3    H139368   7.602   5.340   1.650
13141TIP3    H239369   7.643   5.294   1.512
13142TIP3   OH239370   3.240   1.256   0.309
13142TIP3    H139371   3.178   1.254   0.383
13142TIP3    H239372   3.297   1.181   0.324
13143TIP3   OH239373   5.062   7.563   0.085
13143TIP3    H139374   5.075   7.655   0.110
13143TIP3    H239375   5.108   7.554   0.002
13144TIP3   OH239376   1.088   2.510   2.503
13144TIP3    H139377   1.167   2.484   2.550
13144TIP3    H239378   1.091   2.605   2.501
13145TIP3   OH239379   2.909   4.811   1.743
13145TIP3    H139380   2.890   4.791   1.835
13145TIP3    H239381   2.825   4.839   1.707
13146TIP3   OH239382   6.271   3.996   0.548
13146TIP3    H139383   6.178   3.984   0.569
13146TIP3    H239384   6.303   3.908   0.529
13147TIP3   OH239385   2.564   2.130   1.930
13147TIP3    H139386   2.553   2.180   2.011
13147TIP3    H239387   2.605   2.192   1.869
13148TIP3   OH239388   1.143   3.545   1.559
13148TIP3    H139389   1.099   3.468   1.596
13148TIP3    H239390   1.228   3.512   1.529
13149TIP3   OH239391   5.703   4.776   2.112
13149TIP3    H139392   5.712   4.853   2.169
13149TIP3    H239393   5.741   4.803   2.029
13150TIP3   OH239394   1.668   1.553   6.337
13150TIP3    H139395   1.688   1.510   6.254
13150TIP3    H239396   1.710   1.497   6.403
13151TIP3   OH239397   1.462   3.079   1.904
13151TIP3    H139398   1.367   3.086   1.907
13151TIP3    H239399   1.492   3.148   1.963
13152TIP3   OH239400   0.724   1.743   0.148
13152TIP3    H139401   0.757   1.664   0.191
13152TIP3    H239402   0.722   1.809   0.217
13153TIP3   OH239403   5.250   3.683   2.005
13153TIP3    H139404   5.342   3.655   2.004
13153TIP3    H239405   5.210   3.635   1.932
13154TIP3   OH239406   0.098   1.986   2.371
13154TIP3    H139407   0.096   2.012   2.279
13154TIP3    H239408   0.023   1.927   2.381
13155TIP3   OH239409   3.717   0.915   6.441
13155TIP3    H139410   3.667   0.968   6.503
13155TIP3    H239411   3.808   0.941   6.455
13156TIP3   OH239412   4.833   3.061   5.929
13156TIP3    H139413   4.794   3.130   5.875
13156TIP3    H239414   4.869   3.108   6.005
13157TIP3   OH239415   5.407   3.613   1.621
13157TIP3    H139416   5.345   3.685   1.615
13157TIP3    H239417   5.382   3.565   1.699
13158TIP3   OH239418   7.310   1.049   1.498
13158TIP3    H139419   7.399   1.084   1.505
13158TIP3    H239420   7.322   0.954   1.498
13159TIP3   OH239421   1.001   1.665   4.825
13159TIP3    H139422   1.017   1.587   4.878
13159TIP3    H239423   0.910   1.688   4.843
13160TIP3   OH239424   4.410   5.401   4.869
13160TIP3    H139425   4.489   5.409   4.816
13160TIP3    H239426   4.371   5.318   4.842
13161TIP3   OH239427   3.632   2.171   0.231
13161TIP3    H139428   3.683   2.217   0.164
13161TIP3    H239429   3.563   2.233   0.254
13162TIP3   OH239430   5.733   4.542   3.153
13162TIP3    H139431   5.659   4.481   3.142
13162TIP3    H239432   5.693   4.628   3.158
13163TIP3   OH239433   7.164   0.663   4.958
13163TIP3    H139434   7.230   0.695   4.896
13163TIP3    H239435   7.081   0.683   4.915
13164TIP3   OH239436   7.008   1.489   1.189
13164TIP3    H139437   7.055   1.407   1.174
13164TIP3    H239438   6.925   1.462   1.228
13165TIP3   OH239439   2.250   2.698   4.204
13165TIP3    H139440   2.226   2.715   4.295
13165TIP3    H239441   2.299   2.616   4.207
13166TIP3   OH239442   3.974   4.704   0.844
13166TIP3    H139443   4.057   4.727   0.801
13166TIP3    H239444   3.959   4.613   0.819
13167TIP3   OH239445   4.237   4.688   2.583
13167TIP3    H139446   4.279   4.769   2.554
13167TIP3    H239447   4.310   4.628   2.602
13168TIP3   OH239448   7.634   0.932   1.979
13168TIP3    H139449   7.692   1.004   1.954
13168TIP3    H239450   7.619   0.944   2.073
13169TIP3   OH239451   7.493   3.362   1.715
13169TIP3    H139452   7.430   3.374   1.786
13169TIP3    H239453   7.564   3.311   1.753
13170TIP3   OH239454   1.981   7.723   5.335
13170TIP3    H139455   2.056   7.721   5.276
13170TIP3    H239456   1.944   7.635   5.329
13171TIP3   OH239457   1.104   4.063   4.311
13171TIP3    H139458   1.090   4.157   4.321
13171TIP3    H239459   1.157   4.039   4.387
13172TIP3   OH239460   4.577   1.486   6.120
13172TIP3    H139461   4.598   1.436   6.041
13172TIP3    H239462   4.661   1.494   6.166
13173TIP3   OH239463   1.628   6.680   6.236
13173TIP3    H139464   1.543   6.695   6.194
13173TIP3    H239465   1.655   6.765   6.269
13174TIP3   OH239466   3.259   3.632   2.254
13174TIP3    H139467   3.276   3.603   2.164
13174TIP3    H239468   3.342   3.670   2.283
13175TIP3   OH239469   2.846   6.279   4.613
13175TIP3    H139470   2.757   6.260   4.583
13175TIP3    H239471   2.889   6.194   4.614
13176TIP3   OH239472   7.381   6.025   2.276
13176TIP3    H139473   7.450   6.031   2.342
13176TIP3    H239474   7.426   6.040   2.193
13177TIP3   OH239475   7.777   2.375   2.213
13177TIP3    H139476   7.765   2.415   2.127
13177TIP3    H239477   7.819   2.291   2.195
13178TIP3   OH239478   5.464   5.103   6.418
13178TIP3    H139479   5.444   5.171   6.354
13178TIP3    H239480   5.402   5.117   6.489
13179TIP3   OH239481   7.292   6.469   1.885
13179TIP3    H139482   7.223   6.439   1.826
13179TIP3    H239483   7.253   6.543   1.932
13180TIP3   OH239484   4.991   0.179   4.144
13180TIP3    H139485   5.061   0.135   4.097
13180TIP3    H239486   4.972   0.257   4.092
13181TIP3   OH239487   4.443   6.052   4.112
13181TIP3    H139488   4.387   6.022   4.040
13181TIP3    H239489   4.388   6.111   4.163
13182TIP3   OH239490   5.034   1.758   1.036
13182TIP3    H139491   5.077   1.843   1.044
13182TIP3    H239492   4.989   1.746   1.120
13183TIP3   OH239493   0.124   5.068   5.960
13183TIP3    H139494   0.113   5.154   5.918
13183TIP3    H239495   0.183   5.020   5.902
13184TIP3   OH239496   0.441   2.514   4.004
13184TIP3    H139497   0.373   2.538   4.068
13184TIP3    H239498   0.483   2.436   4.041
13185TIP3   OH239499   3.521   1.235   4.916
13185TIP3    H139500   3.573   1.290   4.857
13185TIP3    H239501   3.503   1.291   4.991
13186TIP3   OH239502   4.123   1.664   5.704
13186TIP3    H139503   4.185   1.594   5.725
13186TIP3    H239504   4.126   1.669   5.608
13187TIP3   OH239505   7.053   6.167   4.590
13187TIP3    H139506   6.990   6.230   4.624
13187TIP3    H239507   7.117   6.157   4.660
13188TIP3   OH239508   1.183   2.238   6.502
13188TIP3    H139509   1.235   2.287   6.565
13188TIP3    H239510   1.218   2.150   6.505
13189TIP3   OH239511   3.680   5.246   3.993
13189TIP3    H139512   3.737   5.310   3.952
13189TIP3    H239513   3.722   5.161   3.975
13190TIP3   OH239514   3.890   3.232   4.034
13190TIP3    H139515   3.975   3.189   4.030
13190TIP3    H239516   3.845   3.192   4.108
13191TIP3   OH239517   8.010   4.754   4.092
13191TIP3    H139518   8.022   4.819   4.023
13191TIP3    H239519   7.961   4.799   4.160
13192TIP3   OH239520   2.943   1.880   0.932
13192TIP3    H139521   3.013   1.815   0.927
13192TIP3    H239522   2.987   1.962   0.955
13193TIP3   OH239523   4.057   4.179   2.890
13193TIP3    H139524   3.972   4.220   2.875
13193TIP3    H239525   4.098   4.175   2.804
13194TIP3   OH239526   3.511   5.804   0.928
13194TIP3    H139527   3.442   5.870   0.925
13194TIP3    H239528   3.464   5.722   0.947
13195TIP3   OH239529   7.718   3.821   5.468
13195TIP3    H139530   7.700   3.750   5.530
13195TIP3    H239531   7.675   3.792   5.387
13196TIP3   OH239532   1.975   4.106   0.878
13196TIP3    H139533   2.004   4.170   0.943
13196TIP3    H239534   2.056   4.068   0.844
13197TIP3   OH239535   6.408   7.555   3.824
13197TIP3    H139536   6.316   7.530   3.833
13197TIP3    H239537   6.423   7.558   3.729
13198TIP3   OH239538   5.898   3.791   5.438
13198TIP3    H139539   5.853   3.875   5.431
13198TIP3    H239540   5.841   3.730   5.391
13199TIP3   OH239541   2.112   4.901   4.907
13199TIP3    H139542   2.117   4.806   4.900
13199TIP3    H239543   2.202   4.928   4.926
13200TIP3   OH239544   6.168   0.252   0.255
13200TIP3    H139545   6.143   0.331   0.208
13200TIP3    H239546   6.263   0.262   0.268
13201TIP3   OH239547   7.991   0.920   4.466
13201TIP3    H139548   8.007   0.975   4.543
13201TIP3    H239549   8.004   0.979   4.392
13202TIP3   OH239550   6.432   4.378   1.852
13202TIP3    H139551   6.444   4.286   1.875
13202TIP3    H239552   6.510   4.401   1.802
13203TIP3   OH239553   6.232   0.429   4.961
13203TIP3    H139554   6.177   0.506   4.948
13203TIP3    H239555   6.321   0.459   4.943
13204TIP3   OH239556   1.690   1.964   4.695
13204TIP3    H139557   1.688   1.943   4.789
13204TIP3    H239558   1.783   1.975   4.675
13205TIP3   OH239559   0.774   2.840   3.007
13205TIP3    H139560   0.696   2.797   3.043
13205TIP3    H239561   0.742   2.884   2.928
13206TIP3   OH239562   1.138   6.107   3.554
13206TIP3    H139563   1.092   6.100   3.638
13206TIP3    H239564   1.121   6.196   3.525
13207TIP3   OH239565   5.449   6.269   2.991
13207TIP3    H139566   5.428   6.185   3.030
13207TIP3    H239567   5.371   6.323   3.006
13208TIP3   OH239568   0.578   1.992   2.747
13208TIP3    H139569   0.503   1.947   2.709
13208TIP3    H239570   0.599   1.941   2.826
13209TIP3   OH239571   6.890   6.089   4.856
13209TIP3    H139572   6.816   6.116   4.802
13209TIP3    H239573   6.944   6.169   4.864
13210TIP3   OH239574   1.443   5.143   3.026
13210TIP3    H139575   1.508   5.072   3.025
13210TIP3    H239576   1.359   5.099   3.013
13211TIP3   OH239577   7.248   1.959   1.772
13211TIP3    H139578   7.201   1.908   1.837
13211TIP3    H239579   7.195   2.037   1.759
13212TIP3   OH239580   7.339   2.306   3.646
13212TIP3    H139581   7.309   2.259   3.724
13212TIP3    H239582   7.394   2.377   3.681
13213TIP3   OH239583   0.365   2.492   6.611
13213TIP3    H139584   0.412   2.569   6.581
13213TIP3    H239585   0.345   2.443   6.531
13214TIP3   OH239586   3.450   2.432   4.944
13214TIP3    H139587   3.359   2.433   4.913
13214TIP3    H239588   3.447   2.378   5.024
13215TIP3   OH239589   6.861   0.371   0.400
13215TIP3    H139590   6.842   0.330   0.484
13215TIP3    H239591   6.922   0.310   0.357
13216TIP3   OH239592   3.272   1.016   0.081
13216TIP3    H139593   3.210   1.087   0.066
13216TIP3    H239594   3.232   0.939   0.039
13217TIP3   OH239595   1.926   7.228   3.620
13217TIP3    H139596   1.943   7.159   3.556
13217TIP3    H239597   1.841   7.265   3.595
13218TIP3   OH239598   6.206   6.249   5.749
13218TIP3    H139599   6.265   6.314   5.787
13218TIP3    H239600   6.152   6.297   5.686
13219TIP3   OH239601   3.671   0.383   1.719
13219TIP3    H139602   3.748   0.439   1.707
13219TIP3    H239603   3.606   0.419   1.660
13220TIP3   OH239604   0.044   0.526   5.097
13220TIP3    H139605   0.024   0.558   5.186
13220TIP3    H239606   0.083   0.602   5.053
13221TIP3   OH239607   1.590   4.898   2.846
13221TIP3    H139608   1.644   4.839   2.792
13221TIP3    H239609   1.595   4.982   2.802
13222TIP3   OH239610   7.997   3.379   5.144
13222TIP3    H139611   8.051   3.425   5.209
13222TIP3    H239612   7.918   3.432   5.137
13223TIP3   OH239613   7.454   7.007   2.572
13223TIP3    H139614   7.492   7.009   2.660
13223TIP3    H239615   7.488   7.086   2.530
13224TIP3   OH239616   0.655   2.244   2.680
13224TIP3    H139617   0.570   2.286   2.664
13224TIP3    H239618   0.633   2.152   2.695
13225TIP3   OH239619   6.282   3.144   2.084
13225TIP3    H139620   6.339   3.221   2.082
13225TIP3    H239621   6.195   3.179   2.101
13226TIP3   OH239622   3.774   4.537   5.420
13226TIP3    H139623   3.814   4.455   5.393
13226TIP3    H239624   3.755   4.526   5.513
13227TIP3   OH239625   4.582   0.346   6.639
13227TIP3    H139626   4.663   0.295   6.644
13227TIP3    H239627   4.540   0.333   6.724
13228TIP3   OH239628   0.343   5.333   5.690
13228TIP3    H139629   0.407   5.398   5.662
13228TIP3    H239630   0.391   5.277   5.751
13229TIP3   OH239631   3.122   4.620   1.830
13229TIP3    H139632   3.094   4.694   1.775
13229TIP3    H239633   3.213   4.607   1.807
13230TIP3   OH239634   4.343   7.220   2.133
13230TIP3    H139635   4.364   7.305   2.094
13230TIP3    H239636   4.414   7.162   2.105
13231TIP3   OH239637   3.453   5.879   6.348
13231TIP3    H139638   3.377   5.908   6.298
13231TIP3    H239639   3.524   5.936   6.318
13232TIP3   OH239640   2.585   2.537   5.811
13232TIP3    H139641   2.529   2.472   5.769
13232TIP3    H239642   2.546   2.621   5.788
13233TIP3   OH239643   5.014   7.469   6.131
13233TIP3    H139644   5.047   7.438   6.216
13233TIP3    H239645   5.091   7.502   6.085
13234TIP3   OH239646   2.865   6.935   4.661
13234TIP3    H139647   2.812   6.856   4.670
13234TIP3    H239648   2.924   6.933   4.737
13235TIP3   OH239649   5.996   5.120   4.608
13235TIP3    H139650   5.986   5.049   4.544
13235TIP3    H239651   5.923   5.107   4.669
13236TIP3   OH239652   5.148   3.250   6.071
13236TIP3    H139653   5.186   3.285   6.151
13236TIP3    H239654   5.224   3.221   6.019
13237TIP3   OH239655   0.745   0.085   1.257
13237TIP3    H139656   0.823   0.039   1.225
13237TIP3    H239657   0.674   0.022   1.245
13238TIP3   OH239658   5.417   6.501   4.379
13238TIP3    H139659   5.370   6.474   4.458
13238TIP3    H239660   5.376   6.450   4.309
13239TIP3   OH239661   2.842   4.636   4.429
13239TIP3    H139662   2.905   4.636   4.357
13239TIP3    H239663   2.763   4.676   4.392
13240TIP3   OH239664   6.306   1.628   4.754
13240TIP3    H139665   6.321   1.537   4.780
13240TIP3    H239666   6.351   1.680   4.821
13241TIP3   OH239667   6.449   1.134   3.745
13241TIP3    H139668   6.529   1.180   3.772
13241TIP3    H239669   6.428   1.078   3.820
13242TIP3   OH239670   7.688   6.270   5.258
13242TIP3    H139671   7.688   6.345   5.199
13242TIP3    H239672   7.744   6.206   5.213
13243TIP3   OH239673   6.551   1.856   3.065
13243TIP3    H139674   6.507   1.803   3.132
13243TIP3    H239675   6.531   1.812   2.982
13244TIP3   OH239676   6.831   6.067   0.505
13244TIP3    H139677   6.790   6.045   0.589
13244TIP3    H239678   6.796   6.003   0.443
13245TIP3   OH239679   2.333   7.714   5.678
13245TIP3    H139680   2.348   7.730   5.584
13245TIP3    H239681   2.240   7.730   5.691
13246TIP3   OH239682   4.366   2.081   1.315
13246TIP3    H139683   4.436   2.031   1.357
13246TIP3    H239684   4.294   2.077   1.377
13247TIP3   OH239685   7.010   6.010   0.807
13247TIP3    H139686   6.959   6.074   0.857
13247TIP3    H239687   7.098   6.048   0.802
13248TIP3   OH239688   4.075   0.596   2.223
13248TIP3    H139689   4.023   0.675   2.234
13248TIP3    H239690   4.164   0.627   2.205
13249TIP3   OH239691   7.123   1.654   1.019
13249TIP3    H139692   7.094   1.595   1.089
13249TIP3    H239693   7.043   1.702   0.994
13250TIP3   OH239694   5.561   6.774   4.958
13250TIP3    H139695   5.651   6.779   4.926
13250TIP3    H239696   5.511   6.739   4.885
13251TIP3   OH239697   2.586   6.054   1.284
13251TIP3    H139698   2.512   6.115   1.286
13251TIP3    H239699   2.556   5.979   1.336
13252TIP3   OH239700   1.038   3.102   6.340
13252TIP3    H139701   1.005   3.192   6.344
13252TIP3    H239702   1.112   3.101   6.400
13253TIP3   OH239703   2.060   0.733   1.857
13253TIP3    H139704   2.029   0.813   1.899
13253TIP3    H239705   1.992   0.711   1.794
13254TIP3   OH239706   7.212   7.019   2.355
13254TIP3    H139707   7.222   7.113   2.370
13254TIP3    H239708   7.273   6.978   2.417
13255TIP3   OH239709   3.423   7.414   6.297
13255TIP3    H139710   3.397   7.412   6.389
13255TIP3    H239711   3.481   7.338   6.287
13256TIP3   OH239712   5.400   4.325   0.836
13256TIP3    H139713   5.447   4.250   0.873
13256TIP3    H239714   5.446   4.344   0.754
13257TIP3   OH239715   8.106   1.891   0.326
13257TIP3    H139716   8.026   1.910   0.278
13257TIP3    H239717   8.098   1.940   0.408
13258TIP3   OH239718   1.281   7.132   2.146
13258TIP3    H139719   1.261   7.149   2.054
13258TIP3    H239720   1.196   7.135   2.190
13259TIP3   OH239721   1.646   0.561   5.908
13259TIP3    H139722   1.602   0.502   5.847
13259TIP3    H239723   1.575   0.598   5.961
13260TIP3   OH239724   7.044   6.706   4.250
13260TIP3    H139725   7.058   6.800   4.262
13260TIP3    H239726   7.128   6.674   4.216
13261TIP3   OH239727   0.998   5.615   3.349
13261TIP3    H139728   0.926   5.551   3.352
13261TIP3    H239729   0.964   5.686   3.295
13262TIP3   OH239730   0.337   3.660   3.839
13262TIP3    H139731   0.397   3.699   3.902
13262TIP3    H239732   0.360   3.567   3.839
13263TIP3   OH239733   7.438   6.367   2.321
13263TIP3    H139734   7.432   6.456   2.287
13263TIP3    H239735   7.407   6.311   2.249
13264TIP3   OH239736   4.623   0.373   0.753
13264TIP3    H139737   4.592   0.464   0.759
13264TIP3    H239738   4.718   0.380   0.747
13265TIP3   OH239739   5.869   3.402   6.252
13265TIP3    H139740   5.805   3.421   6.321
13265TIP3    H239741   5.949   3.377   6.300
13266TIP3   OH239742   6.575   5.627   0.262
13266TIP3    H139743   6.597   5.588   0.347
13266TIP3    H239744   6.483   5.602   0.248
13267TIP3   OH239745   8.238   2.624   5.589
13267TIP3    H139746   8.167   2.674   5.629
13267TIP3    H239747   8.211   2.533   5.595
13268TIP3   OH239748   7.222   1.224   0.314
13268TIP3    H139749   7.160   1.269   0.372
13268TIP3    H239750   7.259   1.294   0.260
13269TIP3   OH239751   3.438   0.174   1.279
13269TIP3    H139752   3.424   0.083   1.306
13269TIP3    H239753   3.366   0.222   1.318
13270TIP3   OH239754   7.930   6.138   0.039
13270TIP3    H139755   7.848   6.099   0.069
13270TIP3    H239756   7.905   6.225   0.007
13271TIP3   OH239757   0.707   3.964   1.028
13271TIP3    H139758   0.771   4.035   1.026
13271TIP3    H239759   0.691   3.944   0.936
13272TIP3   OH239760   5.002   2.229   0.852
13272TIP3    H139761   5.075   2.196   0.799
13272TIP3    H239762   5.043   2.259   0.933
13273TIP3   OH239763   6.332   6.824   4.189
13273TIP3    H139764   6.260   6.806   4.129
13273TIP3    H239765   6.393   6.752   4.177
13274TIP3   OH239766   2.301   5.327   4.558
13274TIP3    H139767   2.368   5.390   4.585
13274TIP3    H239768   2.288   5.344   4.464
13275TIP3   OH239769   4.380   6.591   0.165
13275TIP3    H139770   4.449   6.537   0.204
13275TIP3    H239771   4.423   6.635   0.091
13276TIP3   OH239772   4.469   7.011   1.996
13276TIP3    H139773   4.486   7.064   1.919
13276TIP3    H239774   4.404   6.946   1.967
13277TIP3   OH239775   4.034   1.776   2.978
13277TIP3    H139776   4.117   1.728   2.984
13277TIP3    H239777   4.004   1.782   3.069
13278TIP3   OH239778   7.236   0.408   1.166
13278TIP3    H139779   7.197   0.420   1.252
13278TIP3    H239780   7.162   0.390   1.108
13279TIP3   OH239781   1.172   0.243   2.922
13279TIP3    H139782   1.164   0.266   3.015
13279TIP3    H239783   1.114   0.168   2.911
13280TIP3   OH239784   6.906   4.383   1.184
13280TIP3    H139785   6.859   4.352   1.261
13280TIP3    H239786   6.853   4.354   1.110
13281TIP3   OH239787   5.166   4.399   0.537
13281TIP3    H139788   5.216   4.398   0.455
13281TIP3    H239789   5.222   4.448   0.598
13282TIP3   OH239790   4.317   3.271   5.189
13282TIP3    H139791   4.317   3.366   5.178
13282TIP3    H239792   4.235   3.251   5.233
13283TIP3   OH239793   1.359   2.225   4.848
13283TIP3    H139794   1.431   2.169   4.876
13283TIP3    H239795   1.310   2.243   4.928
13284TIP3   OH239796   6.625   7.690   0.675
13284TIP3    H139797   6.539   7.726   0.698
13284TIP3    H239798   6.634   7.708   0.581
13285TIP3   OH239799   2.301   4.726   1.284
13285TIP3    H139800   2.220   4.762   1.321
13285TIP3    H239801   2.313   4.773   1.202
13286TIP3   OH239802   0.435   6.581   1.807
13286TIP3    H139803   0.352   6.550   1.844
13286TIP3    H239804   0.429   6.676   1.811
13287TIP3   OH239805   6.166   7.177   4.732
13287TIP3    H139806   6.224   7.245   4.767
13287TIP3    H239807   6.161   7.196   4.639
13288TIP3   OH239808   4.580   4.864   0.040
13288TIP3    H139809   4.574   4.898   0.130
13288TIP3    H239810   4.526   4.924  -0.011
13289TIP3   OH239811   7.198   4.036   2.847
13289TIP3    H139812   7.224   3.962   2.901
13289TIP3    H239813   7.272   4.050   2.788
13290TIP3   OH239814   1.228   5.250   2.262
13290TIP3    H139815   1.275   5.331   2.242
13290TIP3    H239816   1.189   5.223   2.179
13291TIP3   OH239817   1.283   6.180   5.995
13291TIP3    H139818   1.329   6.110   6.041
13291TIP3    H239819   1.323   6.182   5.908
13292TIP3   OH239820   3.293   6.118   6.458
13292TIP3    H139821   3.300   6.123   6.363
13292TIP3    H239822   3.283   6.025   6.476
13293TIP3   OH239823   3.447   0.835   3.357
13293TIP3    H139824   3.369   0.813   3.306
13293TIP3    H239825   3.456   0.930   3.347
13294TIP3   OH239826   7.328   7.388   1.623
13294TIP3    H139827   7.265   7.319   1.643
13294TIP3    H239828   7.278   7.450   1.569
13295TIP3   OH239829   3.935   6.134   0.696
13295TIP3    H139830   3.933   6.123   0.791
13295TIP3    H239831   3.902   6.051   0.662
13296TIP3   OH239832   2.441   4.919   1.771
13296TIP3    H139833   2.418   4.829   1.792
13296TIP3    H239834   2.383   4.943   1.698
13297TIP3   OH239835   5.900   6.043   4.118
13297TIP3    H139836   5.982   6.093   4.112
13297TIP3    H239837   5.911   5.971   4.057
13298TIP3   OH239838   4.645   6.293   4.454
13298TIP3    H139839   4.605   6.333   4.531
13298TIP3    H239840   4.737   6.281   4.478
13299TIP3   OH239841   7.339   1.690   1.629
13299TIP3    H139842   7.420   1.640   1.625
13299TIP3    H239843   7.362   1.768   1.680
13300TIP3   OH239844   6.714   5.753   0.600
13300TIP3    H139845   6.662   5.833   0.606
13300TIP3    H239846   6.773   5.768   0.527
13301TIP3   OH239847   5.111   1.204   3.206
13301TIP3    H139848   5.044   1.174   3.145
13301TIP3    H239849   5.074   1.186   3.293
13302TIP3   OH239850   6.916   7.125   1.834
13302TIP3    H139851   6.908   7.203   1.780
13302TIP3    H239852   6.914   7.158   1.924
13303TIP3   OH239853   2.954   6.939   3.120
13303TIP3    H139854   2.986   6.925   3.209
13303TIP3    H239855   3.027   6.981   3.074
13304TIP3   OH239856   4.232   1.204   6.383
13304TIP3    H139857   4.227   1.192   6.478
13304TIP3    H239858   4.306   1.263   6.371
13305TIP3   OH239859   1.841   7.739   5.051
13305TIP3    H139860   1.926   7.708   5.019
13305TIP3    H239861   1.853   7.748   5.145
13306TIP3   OH239862   0.988   0.268   4.557
13306TIP3    H139863   0.894   0.280   4.564
13306TIP3    H239864   1.025   0.327   4.622
13307TIP3   OH239865   2.470   3.673   1.394
13307TIP3    H139866   2.505   3.664   1.305
13307TIP3    H239867   2.480   3.766   1.414
13308TIP3   OH239868   4.546   5.896   6.127
13308TIP3    H139869   4.460   5.937   6.141
13308TIP3    H239870   4.582   5.884   6.215
13309TIP3   OH239871   6.063   5.272   6.142
13309TIP3    H139872   6.033   5.343   6.084
13309TIP3    H239873   5.982   5.229   6.170
13310TIP3   OH239874   0.860   7.291   1.961
13310TIP3    H139875   0.828   7.226   2.023
13310TIP3    H239876   0.952   7.269   1.949
13311TIP3   OH239877   3.604   1.305   5.718
13311TIP3    H139878   3.567   1.321   5.631
13311TIP3    H239879   3.543   1.244   5.759
13312TIP3   OH239880   7.776   1.776   3.610
13312TIP3    H139881   7.787   1.695   3.559
13312TIP3    H239882   7.715   1.829   3.559
13313TIP3   OH239883   2.744   3.813   5.091
13313TIP3    H139884   2.666   3.852   5.052
13313TIP3    H239885   2.813   3.877   5.076
13314TIP3   OH239886   2.563   1.017   4.649
13314TIP3    H139887   2.475   1.015   4.613
13314TIP3    H239888   2.619   1.042   4.575
13315TIP3   OH239889   6.069   5.545   0.037
13315TIP3    H139890   6.087   5.585  -0.048
13315TIP3    H239891   6.147   5.491   0.055
13316TIP3   OH239892   4.629   3.128   1.807
13316TIP3    H139893   4.544   3.125   1.764
13316TIP3    H239894   4.692   3.125   1.735
13317TIP3   OH239895   3.495   3.433   3.021
13317TIP3    H139896   3.580   3.405   3.054
13317TIP3    H239897   3.432   3.394   3.081
13318TIP3   OH239898   1.045   5.538   1.077
13318TIP3    H139899   1.081   5.617   1.037
13318TIP3    H239900   0.953   5.537   1.051
13319TIP3   OH239901   3.011   1.535   6.526
13319TIP3    H139902   3.051   1.449   6.513
13319TIP3    H239903   2.949   1.544   6.454
13320TIP3   OH239904   6.331   4.683   6.639
13320TIP3    H139905   6.280   4.739   6.579
13320TIP3    H239906   6.265   4.641   6.694
13321TIP3   OH239907   6.247   2.634   6.374
13321TIP3    H139908   6.174   2.665   6.427
13321TIP3    H239909   6.257   2.542   6.397
13322TIP3   OH239910   3.336   7.014   0.549
13322TIP3    H139911   3.260   7.008   0.491
13322TIP3    H239912   3.397   6.948   0.515
13323TIP3   OH239913   1.116   0.390   1.235
13323TIP3    H139914   1.049   0.458   1.223
13323TIP3    H239915   1.087   0.318   1.180
13324TIP3   OH239916   4.008   4.304   1.896
13324TIP3    H139917   4.002   4.247   1.973
13324TIP3    H239918   4.069   4.373   1.923
13325TIP3   OH239919   4.026   6.459   0.740
13325TIP3    H139920   4.029   6.372   0.699
13325TIP3    H239921   3.979   6.513   0.678
13326TIP3   OH239922   6.138   1.206   2.676
13326TIP3    H139923   6.176   1.281   2.723
13326TIP3    H239924   6.167   1.218   2.585
13327TIP3   OH239925   7.004   2.881   1.767
13327TIP3    H139926   6.965   2.802   1.804
13327TIP3    H239927   6.961   2.953   1.813
13328TIP3   OH239928   2.553   1.984   1.520
13328TIP3    H139929   2.515   1.982   1.433
13328TIP3    H239930   2.491   2.036   1.572
13329TIP3   OH239931   6.735   7.787   5.751
13329TIP3    H139932   6.724   7.849   5.679
13329TIP3    H239933   6.673   7.716   5.731
13330TIP3   OH239934   5.344   5.342   3.047
13330TIP3    H139935   5.336   5.437   3.041
13330TIP3    H239936   5.399   5.326   3.123
13331TIP3   OH239937   1.091   5.863   3.855
13331TIP3    H139938   1.031   5.837   3.925
13331TIP3    H239939   1.054   5.944   3.821
13332TIP3   OH239940   2.148   5.627   5.795
13332TIP3    H139941   2.135   5.541   5.836
13332TIP3    H239942   2.139   5.610   5.701
13333TIP3   OH239943   0.573   1.175   4.567
13333TIP3    H139944   0.517   1.097   4.570
13333TIP3    H239945   0.634   1.157   4.495
13334TIP3   OH239946   3.899   6.238   4.436
13334TIP3    H139947   3.955   6.215   4.362
13334TIP3    H239948   3.809   6.226   4.403
13335TIP3   OH239949   1.415   2.681   5.508
13335TIP3    H139950   1.377   2.759   5.468
13335TIP3    H239951   1.480   2.651   5.445
13336TIP3   OH239952   7.560   1.208   1.896
13336TIP3    H139953   7.601   1.159   1.825
13336TIP3    H239954   7.466   1.206   1.874
13337TIP3   OH239955   3.289   3.334   0.414
13337TIP3    H139956   3.223   3.331   0.483
13337TIP3    H239957   3.292   3.425   0.386
13338TIP3   OH239958   3.461   1.730   1.923
13338TIP3    H139959   3.465   1.819   1.959
13338TIP3    H239960   3.533   1.684   1.966
13339TIP3   OH239961   2.840   4.882   2.433
13339TIP3    H139962   2.859   4.914   2.521
13339TIP3    H239963   2.926   4.871   2.393
13340TIP3   OH239964   4.609   0.977   5.848
13340TIP3    H139965   4.680   1.017   5.797
13340TIP3    H239966   4.546   1.047   5.861
13341TIP3   OH239967   2.941   7.592   4.924
13341TIP3    H139968   2.945   7.628   4.835
13341TIP3    H239969   2.974   7.502   4.914
13342TIP3   OH239970   2.878  -0.031   1.922
13342TIP3    H139971   2.964  -0.005   1.889
13342TIP3    H239972   2.837   0.051   1.949
13343TIP3   OH239973   7.484   0.290   3.415
13343TIP3    H139974   7.427   0.240   3.357
13343TIP3    H239975   7.495   0.234   3.492
13344TIP3   OH239976   7.119   4.467   0.926
13344TIP3    H139977   7.176   4.539   0.898
13344TIP3    H239978   7.133   4.461   1.021
13345TIP3   OH239979   7.172   2.084   4.600
13345TIP3    H139980   7.252   2.122   4.564
13345TIP3    H239981   7.109   2.090   4.528
13346TIP3   OH239982   6.967   0.662   2.976
13346TIP3    H139983   6.908   0.680   2.903
13346TIP3    H239984   6.967   0.567   2.984
13347TIP3   OH239985   1.915   0.709   0.616
13347TIP3    H139986   1.970   0.640   0.652
13347TIP3    H239987   1.926   0.783   0.675
13348TIP3   OH239988   4.324   5.143   3.251
13348TIP3    H139989   4.400   5.174   3.300
13348TIP3    H239990   4.349   5.154   3.159
13349TIP3   OH239991   3.149   4.790   2.442
13349TIP3    H139992   3.243   4.785   2.423
13349TIP3    H239993   3.113   4.708   2.409
13350TIP3   OH239994   1.995   6.763   0.486
13350TIP3    H139995   2.037   6.711   0.417
13350TIP3    H239996   2.033   6.730   0.568
13351TIP3   OH239997   5.755   7.240   2.101
13351TIP3    H139998   5.754   7.335   2.100
13351TIP3    H239999   5.842   7.216   2.067
13352TIP3   OH240000   1.963   6.320   2.905
13352TIP3    H140001   1.945   6.320   2.811
13352TIP3    H240002   1.917   6.397   2.938
13353TIP3   OH240003  -0.007   0.426   6.135
13353TIP3    H140004   0.053   0.375   6.189
13353TIP3    H240005   0.032   0.424   6.048
13354TIP3   OH240006   7.983   2.919   6.372
13354TIP3    H140007   7.937   2.884   6.295
13354TIP3    H240008   8.046   2.851   6.395
13355TIP3   OH240009   1.013   0.300   1.976
13355TIP3    H140010   1.088   0.269   1.926
13355TIP3    H240011   1.011   0.394   1.959
13356TIP3   OH240012   7.096   0.191   6.112
13356TIP3    H140013   7.040   0.254   6.157
13356TIP3    H240014   7.184   0.209   6.147
13357TIP3   OH240015   5.779   5.364   6.560
13357TIP3    H140016   5.774   5.316   6.477
13357TIP3    H240017   5.842   5.314   6.612
13358TIP3   OH240018   5.133   1.395   2.973
13358TIP3    H140019   5.219   1.353   2.977
13358TIP3    H240020   5.072   1.325   2.994
13359TIP3   OH240021   3.008   3.891   2.726
13359TIP3    H140022   3.037   3.848   2.806
13359TIP3    H240023   3.062   3.971   2.721
13360TIP3   OH240024   1.439   4.280   3.906
13360TIP3    H140025   1.508   4.337   3.871
13360TIP3    H240026   1.379   4.267   3.833
13361TIP3   OH240027   2.594   1.628   4.783
13361TIP3    H140028   2.544   1.588   4.855
13361TIP3    H240029   2.652   1.558   4.753
13362TIP3   OH240030   0.762   7.747   6.656
13362TIP3    H140031   0.767   7.726   6.563
13362TIP3    H240032   0.668   7.758   6.673
13363TIP3   OH240033   7.077   2.143   2.753
13363TIP3    H140034   7.120   2.145   2.839
13363TIP3    H240035   7.140   2.186   2.694
13364TIP3   OH240036   4.497   1.793   6.759
13364TIP3    H140037   4.434   1.731   6.724
13364TIP3    H240038   4.448   1.875   6.768
13365TIP3   OH240039   8.077   2.943   4.990
13365TIP3    H140040   8.112   3.025   5.023
13365TIP3    H240041   7.996   2.968   4.945
13366TIP3   OH240042   2.048   1.063   3.652
13366TIP3    H140043   2.068   1.027   3.738
13366TIP3    H240044   1.953   1.052   3.642
13367TIP3   OH240045   7.880   1.567   0.400
13367TIP3    H140046   7.864   1.528   0.314
13367TIP3    H240047   7.809   1.630   0.411
13368TIP3   OH240048   2.198   0.508   5.462
13368TIP3    H140049   2.233   0.597   5.447
13368TIP3    H240050   2.260   0.469   5.524
13369TIP3   OH240051   1.766   3.201   5.180
13369TIP3    H140052   1.754   3.256   5.257
13369TIP3    H240053   1.689   3.216   5.127
13370TIP3   OH240054   2.727   0.741   1.455
13370TIP3    H140055   2.807   0.727   1.506
13370TIP3    H240056   2.698   0.652   1.431
13371TIP3   OH240057   5.979   7.220   0.935
13371TIP3    H140058   5.984   7.309   0.969
13371TIP3    H240059   6.059   7.178   0.968
13372TIP3   OH240060   3.902   1.643   3.921
13372TIP3    H140061   3.896   1.696   4.001
13372TIP3    H240062   3.858   1.695   3.854
13373TIP3   OH240063   4.068   3.317   1.443
13373TIP3    H140064   4.048   3.234   1.399
13373TIP3    H240065   4.031   3.384   1.386
13374TIP3   OH240066   2.423   0.335   3.898
13374TIP3    H140067   2.381   0.322   3.813
13374TIP3    H240068   2.478   0.412   3.886
13375TIP3   OH240069   4.307   5.927   5.923
13375TIP3    H140070   4.258   5.869   5.981
13375TIP3    H240071   4.352   5.867   5.863
13376TIP3   OH240072   3.501   2.665   1.442
13376TIP3    H140073   3.593   2.645   1.425
13376TIP3    H240074   3.484   2.744   1.390
13377TIP3   OH240075   0.447   2.424   0.333
13377TIP3    H140076   0.378   2.361   0.353
13377TIP3    H240077   0.401   2.499   0.296
13378TIP3   OH240078   5.581   3.757   5.084
13378TIP3    H140079   5.646   3.745   5.015
13378TIP3    H240080   5.604   3.841   5.124
13379TIP3   OH240081   2.383   5.837   5.635
13379TIP3    H140082   2.289   5.846   5.652
13379TIP3    H240083   2.405   5.750   5.667
13380TIP3   OH240084   4.722   2.769   2.604
13380TIP3    H140085   4.796   2.789   2.546
13380TIP3    H240086   4.737   2.679   2.632
13381TIP3   OH240087   3.496   7.577   0.721
13381TIP3    H140088   3.555   7.530   0.781
13381TIP3    H240089   3.554   7.612   0.654
13382TIP3   OH240090   2.745   3.958   1.020
13382TIP3    H140091   2.734   4.053   1.018
13382TIP3    H240092   2.809   3.940   0.951
13383TIP3   OH240093   3.835   2.901   4.842
13383TIP3    H140094   3.790   2.906   4.926
13383TIP3    H240095   3.920   2.942   4.858
13384TIP3   OH240096   8.088   2.113   1.360
13384TIP3    H140097   8.118   2.045   1.299
13384TIP3    H240098   8.166   2.166   1.376
13385TIP3   OH240099   3.764   3.697   3.580
13385TIP3    H140100   3.824   3.768   3.602
13385TIP3    H240101   3.687   3.742   3.543
13386TIP3   OH240102   7.284   5.616   1.740
13386TIP3    H140103   7.196   5.647   1.722
13386TIP3    H240104   7.287   5.528   1.701
13387TIP3   OH240105   0.668   0.485   5.332
13387TIP3    H140106   0.718   0.403   5.331
13387TIP3    H240107   0.577   0.457   5.322
13388TIP3   OH240108   3.491   0.066   4.372
13388TIP3    H140109   3.502   0.152   4.414
13388TIP3    H240110   3.400   0.043   4.388
13389TIP3   OH240111   7.011   1.887   6.498
13389TIP3    H140112   6.993   1.865   6.589
13389TIP3    H240113   7.078   1.824   6.471
13390TIP3   OH240114   0.347   0.312   4.302
13390TIP3    H140115   0.390   0.256   4.237
13390TIP3    H240116   0.271   0.260   4.331
13391TIP3   OH240117   5.478   0.184   3.217
13391TIP3    H140118   5.444   0.095   3.213
13391TIP3    H240119   5.543   0.188   3.147
13392TIP3   OH240120   5.678   4.293   3.596
13392TIP3    H140121   5.659   4.372   3.545
13392TIP3    H240122   5.692   4.325   3.685
13393TIP3   OH240123   5.148   3.311   1.101
13393TIP3    H140124   5.079   3.253   1.068
13393TIP3    H240125   5.129   3.396   1.060
13394TIP3   OH240126   6.308   1.645   5.894
13394TIP3    H140127   6.380   1.634   5.956
13394TIP3    H240128   6.230   1.655   5.948
13395TIP3   OH240129   2.541   3.210   4.916
13395TIP3    H140130   2.582   3.133   4.876
13395TIP3    H240131   2.451   3.208   4.883
13396TIP3   OH240132   7.884   3.069   2.162
13396TIP3    H140133   7.821   3.038   2.098
13396TIP3    H240134   7.967   3.074   2.114
13397TIP3   OH240135   2.312   3.260   4.776
13397TIP3    H140136   2.307   3.225   4.687
13397TIP3    H240137   2.241   3.217   4.823
13398TIP3   OH240138   1.628   5.329   6.324
13398TIP3    H140139   1.710   5.362   6.287
13398TIP3    H240140   1.641   5.330   6.419
13399TIP3   OH240141   3.447   6.480   3.426
13399TIP3    H140142   3.479   6.496   3.337
13399TIP3    H240143   3.365   6.530   3.430
13400TIP3   OH240144   5.862   5.556   1.504
13400TIP3    H140145   5.898   5.616   1.438
13400TIP3    H240146   5.933   5.494   1.520
13401TIP3   OH240147   5.739   2.635   1.638
13401TIP3    H140148   5.654   2.678   1.629
13401TIP3    H240149   5.770   2.626   1.548
13402TIP3   OH240150   1.083   7.341   3.286
13402TIP3    H140151   1.053   7.419   3.333
13402TIP3    H240152   1.119   7.284   3.353
13403TIP3   OH240153   1.222   2.343   3.098
13403TIP3    H140154   1.148   2.357   3.156
13403TIP3    H240155   1.299   2.362   3.152
13404TIP3   OH240156   4.581   4.872   4.696
13404TIP3    H140157   4.575   4.968   4.687
13404TIP3    H240158   4.661   4.858   4.747
13405TIP3   OH240159   2.842   0.708   5.826
13405TIP3    H140160   2.812   0.678   5.740
13405TIP3    H240161   2.763   0.706   5.881
13406TIP3   OH240162   6.715   0.559   3.574
13406TIP3    H140163   6.680   0.624   3.513
13406TIP3    H240164   6.679   0.584   3.659
13407TIP3   OH240165   5.647   2.183   1.785
13407TIP3    H140166   5.690   2.113   1.833
13407TIP3    H240167   5.660   2.161   1.693
13408TIP3   OH240168   6.764   0.158   5.074
13408TIP3    H140169   6.787   0.222   5.006
13408TIP3    H240170   6.696   0.202   5.126
13409TIP3   OH240171   4.608   3.278   3.966
13409TIP3    H140172   4.523   3.282   4.009
13409TIP3    H240173   4.660   3.345   4.010
13410TIP3   OH240174   1.507   1.941   6.609
13410TIP3    H140175   1.540   1.851   6.609
13410TIP3    H240176   1.443   1.944   6.680
13411TIP3   OH240177   1.375   6.496   6.400
13411TIP3    H140178   1.350   6.493   6.307
13411TIP3    H240179   1.440   6.566   6.404
13412TIP3   OH240180   4.459   2.684   2.635
13412TIP3    H140181   4.545   2.703   2.597
13412TIP3    H240182   4.478   2.666   2.728
13413TIP3   OH240183   4.665   3.335   0.455
13413TIP3    H140184   4.614   3.310   0.532
13413TIP3    H240185   4.716   3.411   0.482
13414TIP3   OH240186   2.938   6.374   2.802
13414TIP3    H140187   2.904   6.347   2.888
13414TIP3    H240188   2.859   6.389   2.749
13415TIP3   OH240189   5.133   1.509   3.945
13415TIP3    H140190   5.201   1.502   3.878
13415TIP3    H240191   5.111   1.418   3.966
13416TIP3   OH240192   5.721   0.659   4.029
13416TIP3    H140193   5.763   0.727   3.977
13416TIP3    H240194   5.756   0.577   3.993
13417TIP3   OH240195   5.342   1.893   5.024
13417TIP3    H140196   5.360   1.987   5.022
13417TIP3    H240197   5.306   1.873   4.938
13418TIP3   OH240198   3.620   0.828   3.983
13418TIP3    H140199   3.709   0.856   4.008
13418TIP3    H240200   3.587   0.783   4.061
13419TIP3   OH240201   4.521   5.575   3.365
13419TIP3    H140202   4.444   5.620   3.330
13419TIP3    H240203   4.488   5.526   3.440
13420TIP3   OH240204   0.854   5.736   3.130
13420TIP3    H140205   0.946   5.730   3.105
13420TIP3    H240206   0.826   5.822   3.099
13421TIP3   OH240207   7.652   0.777   1.483
13421TIP3    H140208   7.646   0.695   1.533
13421TIP3    H240209   7.619   0.754   1.396
13422TIP3   OH240210   2.157   4.040   6.765
13422TIP3    H140211   2.171   3.997   6.681
13422TIP3    H240212   2.238   4.024   6.814
13423TIP3   OH240213   4.908   7.199   6.018
13423TIP3    H140214   4.844   7.270   6.007
13423TIP3    H240215   4.969   7.232   6.084
13424TIP3   OH240216   2.555   5.359   0.602
13424TIP3    H140217   2.633   5.407   0.627
13424TIP3    H240218   2.490   5.381   0.669
13425TIP3   OH240219   1.364   2.328   1.274
13425TIP3    H140220   1.449   2.331   1.229
13425TIP3    H240221   1.328   2.243   1.250
13426TIP3   OH240222   0.066   0.464   1.002
13426TIP3    H140223   0.160   0.448   1.011
13426TIP3    H240224   0.027   0.424   1.080
13427TIP3   OH240225   1.008   3.327   3.687
13427TIP3    H140226   0.967   3.412   3.671
13427TIP3    H240227   0.942   3.277   3.736
13428TIP3   OH240228   6.096   2.915   0.053
13428TIP3    H140229   6.104   3.010   0.068
13428TIP3    H240230   6.057   2.882   0.133
13429TIP3   OH240231   1.228   5.826   4.423
13429TIP3    H140232   1.200   5.770   4.350
13429TIP3    H240233   1.320   5.804   4.435
13430TIP3   OH240234   2.517   4.188   1.207
13430TIP3    H140235   2.510   4.269   1.157
13430TIP3    H240236   2.482   4.210   1.294
13431TIP3   OH240237   5.615   6.058   6.093
13431TIP3    H140238   5.613   6.154   6.100
13431TIP3    H240239   5.538   6.028   6.141
13432TIP3   OH240240   6.093   4.842   4.177
13432TIP3    H140241   6.045   4.858   4.096
13432TIP3    H240242   6.170   4.793   4.150
13433TIP3   OH240243   7.726   6.784   1.936
13433TIP3    H140244   7.718   6.716   2.003
13433TIP3    H240245   7.703   6.740   1.854
13434TIP3   OH240246   6.721   5.788   2.944
13434TIP3    H140247   6.719   5.712   2.885
13434TIP3    H240248   6.779   5.850   2.900
13435TIP3   OH240249   1.146   5.935   2.964
13435TIP3    H140250   1.113   5.849   2.992
13435TIP3    H240251   1.158   5.926   2.870
13436TIP3   OH240252   3.813   7.564   1.265
13436TIP3    H140253   3.835   7.594   1.353
13436TIP3    H240254   3.742   7.501   1.279
13437TIP3   OH240255   1.466   0.148   5.554
13437TIP3    H140256   1.540   0.099   5.589
13437TIP3    H240257   1.394   0.085   5.550
13438TIP3   OH240258   6.717   3.693   5.835
13438TIP3    H140259   6.776   3.744   5.890
13438TIP3    H240260   6.751   3.704   5.746
13439TIP3   OH240261   6.544   7.311   3.409
13439TIP3    H140262   6.594   7.298   3.329
13439TIP3    H240263   6.608   7.338   3.474
13440TIP3   OH240264   7.415   6.197   5.353
13440TIP3    H140265   7.504   6.233   5.351
13440TIP3    H240266   7.392   6.186   5.261
13441TIP3   OH240267   7.632   1.633   5.469
13441TIP3    H140268   7.660   1.702   5.409
13441TIP3    H240269   7.548   1.604   5.433
13442TIP3   OH240270   6.883   5.567   3.092
13442TIP3    H140271   6.860   5.498   3.029
13442TIP3    H240272   6.973   5.590   3.071
13443TIP3   OH240273   8.036   4.240   1.507
13443TIP3    H140274   7.954   4.222   1.553
13443TIP3    H240275   8.008   4.278   1.423
13444TIP3   OH240276   8.173   0.792   3.711
13444TIP3    H140277   8.147   0.735   3.638
13444TIP3    H240278   8.257   0.829   3.683
13445TIP3   OH240279   2.098   0.975   6.318
13445TIP3    H140280   2.098   0.881   6.302
13445TIP3    H240281   2.015   1.005   6.279
13446TIP3   OH240282   0.142   7.601   4.525
13446TIP3    H140283   0.081   7.553   4.581
13446TIP3    H240284   0.086   7.646   4.462
13447TIP3   OH240285   1.028   2.527   3.616
13447TIP3    H140286   0.957   2.573   3.661
13447TIP3    H240287   1.078   2.596   3.574
13448TIP3   OH240288   7.065   3.752   6.141
13448TIP3    H140289   7.102   3.806   6.211
13448TIP3    H240290   6.994   3.805   6.105
13449TIP3   OH240291   7.394   7.508   2.846
13449TIP3    H140292   7.387   7.581   2.784
13449TIP3    H240293   7.362   7.544   2.929
13450TIP3   OH240294   0.709   3.964   6.710
13450TIP3    H140295   0.620   3.997   6.714
13450TIP3    H240296   0.719   3.933   6.620
13451TIP3   OH240297   0.794   1.835   2.666
13451TIP3    H140298   0.722   1.861   2.607
13451TIP3    H240299   0.755   1.840   2.754
13452TIP3   OH240300   1.891   4.188   5.557
13452TIP3    H140301   1.874   4.276   5.590
13452TIP3    H240302   1.881   4.195   5.462
13453TIP3   OH240303   1.758   1.030   0.104
13453TIP3    H140304   1.799   1.034   0.190
13453TIP3    H240305   1.829   1.047   0.042
13454TIP3   OH240306   4.815   7.762   3.317
13454TIP3    H140307   4.849   7.722   3.237
13454TIP3    H240308   4.867   7.723   3.388
13455TIP3   OH240309   6.428   6.507   0.915
13455TIP3    H140310   6.371   6.546   0.850
13455TIP3    H240311   6.430   6.414   0.893
13456TIP3   OH240312   3.757   6.337   5.620
13456TIP3    H140313   3.846   6.320   5.588
13456TIP3    H240314   3.700   6.289   5.560
13457TIP3   OH240315   1.783   6.454   4.077
13457TIP3    H140316   1.790   6.547   4.056
13457TIP3    H240317   1.849   6.411   4.022
13458TIP3   OH240318   2.557   0.950   5.623
13458TIP3    H140319   2.571   1.031   5.573
13458TIP3    H240320   2.571   0.975   5.714
13459TIP3   OH240321   2.426   2.104   1.101
13459TIP3    H140322   2.403   2.074   1.190
13459TIP3    H240323   2.356   2.165   1.078
13460TIP3   OH240324   5.123   1.344   4.175
13460TIP3    H140325   5.218   1.341   4.187
13460TIP3    H240326   5.088   1.362   4.262
13461TIP3   OH240327   3.645   2.435   5.805
13461TIP3    H140328   3.711   2.370   5.832
13461TIP3    H240329   3.672   2.516   5.849
13462TIP3   OH240330   6.123   0.091   3.203
13462TIP3    H140331   6.197   0.094   3.264
13462TIP3    H240332   6.154   0.140   3.126
13463TIP3   OH240333   4.624   0.381   4.747
13463TIP3    H140334   4.578   0.359   4.828
13463TIP3    H240335   4.611   0.475   4.737
13464TIP3   OH240336   5.711   7.579   4.305
13464TIP3    H140337   5.690   7.566   4.397
13464TIP3    H240338   5.658   7.514   4.259
13465TIP3   OH240339   5.668   5.572   2.510
13465TIP3    H140340   5.608   5.609   2.575
13465TIP3    H240341   5.745   5.546   2.561
13466TIP3   OH240342   4.870   1.657   0.223
13466TIP3    H140343   4.899   1.748   0.224
13466TIP3    H240344   4.837   1.642   0.312
13467TIP3   OH240345   2.316   0.723   0.960
13467TIP3    H140346   2.260   0.716   1.037
13467TIP3    H240347   2.401   0.691   0.990
13468TIP3   OH240348   2.447   0.565   5.214
13468TIP3    H140349   2.406   0.614   5.285
13468TIP3    H240350   2.386   0.574   5.141
13469TIP3   OH240351   6.089   3.006   3.765
13469TIP3    H140352   6.059   3.096   3.771
13469TIP3    H240353   6.180   3.009   3.796
13470TIP3   OH240354   0.588   0.992   6.221
13470TIP3    H140355   0.626   0.995   6.133
13470TIP3    H240356   0.614   0.906   6.255
13471TIP3   OH240357   5.861   0.795   1.345
13471TIP3    H140358   5.916   0.718   1.328
13471TIP3    H240359   5.775   0.772   1.310
13472TIP3   OH240360   4.539   3.740   2.223
13472TIP3    H140361   4.555   3.649   2.196
13472TIP3    H240362   4.543   3.790   2.142
13473TIP3   OH240363   7.024   4.166   3.758
13473TIP3    H140364   7.002   4.221   3.683
13473TIP3    H240365   6.973   4.087   3.746
13474TIP3   OH240366   3.800   1.151   5.451
13474TIP3    H140367   3.859   1.225   5.465
13474TIP3    H240368   3.808   1.099   5.531
13475TIP3   OH240369   5.469   1.652   5.475
13475TIP3    H140370   5.403   1.668   5.408
13475TIP3    H240371   5.550   1.633   5.426
13476TIP3   OH240372   7.946   6.646   5.282
13476TIP3    H140373   7.999   6.723   5.301
13476TIP3    H240374   8.006   6.572   5.297
13477TIP3   OH240375   7.061   3.261   2.877
13477TIP3    H140376   7.019   3.262   2.791
13477TIP3    H240377   7.121   3.336   2.874
13478TIP3   OH240378   2.893   0.528   4.928
13478TIP3    H140379   2.897   0.574   5.012
13478TIP3    H240380   2.962   0.570   4.876
13479TIP3   OH240381   4.516   3.579   5.209
13479TIP3    H140382   4.600   3.534   5.205
13479TIP3    H240383   4.533   3.668   5.178
13480TIP3   OH240384   7.969   3.805   3.061
13480TIP3    H140385   7.958   3.899   3.044
13480TIP3    H240386   7.943   3.763   2.979
13481TIP3   OH240387   6.226   5.635   0.380
13481TIP3    H140388   6.245   5.572   0.310
13481TIP3    H240389   6.250   5.589   0.460
13482TIP3   OH240390   7.853   0.029   6.614
13482TIP3    H140391   7.794  -0.033   6.656
13482TIP3    H240392   7.796   0.090   6.568
13483TIP3   OH240393   7.808   0.675   5.878
13483TIP3    H140394   7.901   0.669   5.900
13483TIP3    H240395   7.770   0.728   5.949
13484TIP3   OH240396   2.005   4.197   3.385
13484TIP3    H140397   2.095   4.179   3.357
13484TIP3    H240398   1.978   4.119   3.433
13485TIP3   OH240399   3.267   5.681   0.194
13485TIP3    H140400   3.255   5.700   0.101
13485TIP3    H240401   3.242   5.763   0.238
13486TIP3   OH240402   2.119   6.609   5.922
13486TIP3    H140403   2.162   6.668   5.984
13486TIP3    H240404   2.171   6.529   5.925
13487TIP3   OH240405   4.986   5.839   0.510
13487TIP3    H140406   5.030   5.762   0.472
13487TIP3    H240407   5.025   5.913   0.464
13488TIP3   OH240408   1.083   5.239   1.970
13488TIP3    H140409   1.169   5.203   1.952
13488TIP3    H240410   1.065   5.296   1.895
13489TIP3   OH240411   0.569   1.412   5.706
13489TIP3    H140412   0.571   1.354   5.783
13489TIP3    H240413   0.510   1.368   5.645
13490TIP3   OH240414   2.430   0.693   5.695
13490TIP3    H140415   2.498   0.700   5.762
13490TIP3    H240416   2.404   0.601   5.697
13491TIP3   OH240417   0.912   6.676   0.626
13491TIP3    H140418   0.822   6.654   0.604
13491TIP3    H240419   0.965   6.610   0.581
13492TIP3   OH240420   1.173   2.422   1.883
13492TIP3    H140421   1.115   2.448   1.811
13492TIP3    H240422   1.122   2.358   1.932
13493TIP3   OH240423   1.096   6.436   0.051
13493TIP3    H140424   1.109   6.383   0.129
13493TIP3    H240425   1.001   6.443   0.042
13494TIP3   OH240426   0.324   5.286   0.268
13494TIP3    H140427   0.395   5.224   0.255
13494TIP3    H240428   0.363   5.358   0.318
13495TIP3   OH240429   1.500   2.470   0.964
13495TIP3    H140430   1.527   2.546   0.913
13495TIP3    H240431   1.559   2.469   1.039
13496TIP3   OH240432   3.436   3.862   5.285
13496TIP3    H140433   3.379   3.785   5.285
13496TIP3    H240434   3.460   3.874   5.377
13497TIP3   OH240435   3.986   4.336   4.059
13497TIP3    H140436   4.002   4.327   4.153
13497TIP3    H240437   3.986   4.247   4.025
13498TIP3   OH240438   2.083   4.145   2.184
13498TIP3    H140439   2.106   4.139   2.276
13498TIP3    H240440   2.166   4.141   2.137
13499TIP3   OH240441   0.329   6.116   3.027
13499TIP3    H140442   0.238   6.147   3.028
13499TIP3    H240443   0.375   6.177   2.969
13500TIP3   OH240444   7.466   0.119   3.616
13500TIP3    H140445   7.501   0.061   3.683
13500TIP3    H240446   7.405   0.065   3.566
13501TIP3   OH240447   0.666   5.582   6.630
13501TIP3    H140448   0.622   5.518   6.686
13501TIP3    H240449   0.751   5.544   6.612
13502TIP3   OH240450   7.775   3.353   3.316
13502TIP3    H140451   7.853   3.303   3.337
13502TIP3    H240452   7.753   3.399   3.397
13503TIP3   OH240453   4.653   4.694   3.253
13503TIP3    H140454   4.558   4.701   3.259
13503TIP3    H240455   4.682   4.781   3.224
13504TIP3   OH240456   1.286   2.940   4.195
13504TIP3    H140457   1.331   3.024   4.188
13504TIP3    H240458   1.301   2.898   4.110
13505TIP3   OH240459   3.163   5.961   0.224
13505TIP3    H140460   3.233   6.004   0.273
13505TIP3    H240461   3.095   5.945   0.289
13506TIP3   OH240462   4.401   7.602   2.196
13506TIP3    H140463   4.412   7.599   2.291
13506TIP3    H240464   4.484   7.573   2.161
13507TIP3   OH240465   8.060   0.259   2.945
13507TIP3    H140466   8.069   0.354   2.942
13507TIP3    H240467   8.141   0.228   2.985
13508TIP3   OH240468   0.387   0.622   4.851
13508TIP3    H140469   0.388   0.714   4.877
13508TIP3    H240470   0.363   0.624   4.758
13509TIP3   OH240471   5.840   1.454   0.532
13509TIP3    H140472   5.845   1.508   0.611
13509TIP3    H240473   5.856   1.365   0.564
13510TIP3   OH240474   3.747   1.904   3.850
13510TIP3    H140475   3.763   1.998   3.861
13510TIP3    H240476   3.735   1.892   3.756
13511TIP3   OH240477   3.359   5.082   4.285
13511TIP3    H140478   3.433   5.038   4.328
13511TIP3    H240479   3.399   5.151   4.232
13512TIP3   OH240480   0.690   3.543   3.877
13512TIP3    H140481   0.708   3.541   3.971
13512TIP3    H240482   0.603   3.504   3.868
13513TIP3   OH240483   0.335   5.360  -0.006
13513TIP3    H140484   0.268   5.312  -0.055
13513TIP3    H240485   0.328   5.326   0.084
13514TIP3   OH240486   8.093   1.588   2.365
13514TIP3    H140487   8.112   1.680   2.346
13514TIP3    H240488   8.009   1.589   2.410
13515TIP3   OH240489   0.287   4.649   5.275
13515TIP3    H140490   0.286   4.626   5.368
13515TIP3    H240491   0.347   4.723   5.269
13516TIP3   OH240492   0.129   6.843   1.625
13516TIP3    H140493   0.127   6.836   1.721
13516TIP3    H240494   0.222   6.850   1.604
13517TIP3   OH240495   5.363   7.212   2.480
13517TIP3    H140496   5.306   7.169   2.544
13517TIP3    H240497   5.444   7.230   2.529
13518TIP3   OH240498   1.471   5.628   0.115
13518TIP3    H140499   1.532   5.573   0.066
13518TIP3    H240500   1.487   5.606   0.207
13519TIP3   OH240501   3.525   5.570   5.225
13519TIP3    H140502   3.577   5.523   5.291
13519TIP3    H240503   3.440   5.584   5.267
13520TIP3   OH240504   1.098   1.190   1.293
13520TIP3    H140505   1.070   1.107   1.333
13520TIP3    H240506   1.022   1.247   1.303
13521TIP3   OH240507   7.515   3.257   3.701
13521TIP3    H140508   7.519   3.349   3.673
13521TIP3    H240509   7.566   3.210   3.635
13522TIP3   OH240510   6.999   6.359   2.651
13522TIP3    H140511   7.079   6.360   2.599
13522TIP3    H240512   7.030   6.362   2.742
13523TIP3   OH240513   7.762   2.954   1.787
13523TIP3    H140514   7.848   2.956   1.746
13523TIP3    H240515   7.774   2.903   1.867
13524TIP3   OH240516   5.641   2.419   5.053
13524TIP3    H140517   5.636   2.444   5.146
13524TIP3    H240518   5.701   2.484   5.015
13525TIP3   OH240519   7.945   2.567   3.115
13525TIP3    H140520   7.998   2.641   3.146
13525TIP3    H240521   7.855   2.600   3.114
13526TIP3   OH240522   7.962   5.886   1.523
13526TIP3    H140523   8.005   5.889   1.438
13526TIP3    H240524   8.006   5.954   1.574
13527TIP3   OH240525   0.165   1.539   2.590
13527TIP3    H140526   0.084   1.488   2.580
13527TIP3    H240527   0.135   1.628   2.608
13528TIP3   OH240528   6.023   4.121   4.813
13528TIP3    H140529   5.971   4.095   4.737
13528TIP3    H240530   6.040   4.038   4.859
13529TIP3   OH240531   3.126   1.856   2.331
13529TIP3    H140532   3.096   1.944   2.312
13529TIP3    H240533   3.190   1.837   2.263
13530TIP3   OH240534   6.953   4.293   1.824
13530TIP3    H140535   6.867   4.327   1.846
13530TIP3    H240536   7.012   4.367   1.835
13531TIP3   OH240537   1.709   2.386   2.080
13531TIP3    H140538   1.627   2.337   2.078
13531TIP3    H240539   1.682   2.478   2.081
13532TIP3   OH240540   7.407   2.510   3.354
13532TIP3    H140541   7.337   2.444   3.348
13532TIP3    H240542   7.380   2.580   3.295
13533TIP3   OH240543   0.627   6.140   3.110
13533TIP3    H140544   0.703   6.085   3.091
13533TIP3    H240545   0.567   6.083   3.158
13534TIP3   OH240546   0.271   7.390   5.875
13534TIP3    H140547   0.324   7.457   5.832
13534TIP3    H240548   0.202   7.370   5.812
13535TIP3   OH240549   7.655   7.683   4.716
13535TIP3    H140550   7.742   7.706   4.750
13535TIP3    H240551   7.599   7.681   4.793
13536TIP3   OH240552   3.192   2.242   3.798
13536TIP3    H140553   3.165   2.328   3.832
13536TIP3    H240554   3.270   2.260   3.746
13537TIP3   OH240555   0.436   7.772   0.216
13537TIP3    H140556   0.465   7.718   0.143
13537TIP3    H240557   0.515   7.788   0.268
13538TIP3   OH240558   0.564   7.666   3.044
13538TIP3    H140559   0.550   7.716   2.963
13538TIP3    H240560   0.624   7.721   3.095
13539TIP3   OH240561   4.149   2.327   5.277
13539TIP3    H140562   4.192   2.387   5.337
13539TIP3    H240563   4.144   2.244   5.324
13540TIP3   OH240564   5.165   6.389   1.414
13540TIP3    H140565   5.258   6.414   1.420
13540TIP3    H240566   5.164   6.317   1.351
13541TIP3   OH240567   0.568   7.073   2.878
13541TIP3    H140568   0.536   7.058   2.967
13541TIP3    H240569   0.655   7.113   2.891
13542TIP3   OH240570   5.693   1.599   1.920
13542TIP3    H140571   5.604   1.633   1.914
13542TIP3    H240572   5.748   1.678   1.927
13543TIP3   OH240573   6.736   3.656   4.814
13543TIP3    H140574   6.815   3.709   4.824
13543TIP3    H240575   6.714   3.663   4.721
13544TIP3   OH240576   7.543   6.426   4.315
13544TIP3    H140577   7.578   6.337   4.311
13544TIP3    H240578   7.613   6.481   4.280
13545TIP3   OH240579   1.255   5.067   5.636
13545TIP3    H140580   1.200   5.106   5.704
13545TIP3    H240581   1.336   5.118   5.638
13546TIP3   OH240582   7.558   7.673   1.935
13546TIP3    H140583   7.591   7.760   1.912
13546TIP3    H240584   7.547   7.629   1.851
13547TIP3   OH240585   6.825   1.633   3.052
13547TIP3    H140586   6.748   1.689   3.044
13547TIP3    H240587   6.800   1.567   3.117
13548TIP3   OH240588   6.705   3.756   5.268
13548TIP3    H140589   6.795   3.750   5.234
13548TIP3    H240590   6.678   3.845   5.248
13549TIP3   OH240591   0.175   6.489   3.020
13549TIP3    H140592   0.233   6.484   3.097
13549TIP3    H240593   0.196   6.574   2.981
13550TIP3   OH240594   3.804   6.396   3.287
13550TIP3    H140595   3.877   6.438   3.332
13550TIP3    H240596   3.742   6.374   3.357
13551TIP3   OH240597   7.990   3.174   3.373
13551TIP3    H140598   8.046   3.111   3.418
13551TIP3    H240599   7.952   3.126   3.300
13552TIP3   OH240600   3.302   7.016   0.092
13552TIP3    H140601   3.219   7.063   0.094
13552TIP3    H240602   3.277   6.924   0.086
13553TIP3   OH240603   1.934   1.691   2.125
13553TIP3    H140604   1.958   1.783   2.129
13553TIP3    H240605   1.932   1.662   2.216
13554TIP3   OH240606   0.084   1.939   6.689
13554TIP3    H140607   0.077   2.026   6.729
13554TIP3    H240608   0.177   1.928   6.671
13555TIP3   OH240609   4.888   0.712   6.615
13555TIP3    H140610   4.792   0.703   6.609
13555TIP3    H240611   4.903   0.804   6.635
13556TIP3   OH240612   0.245   4.562   4.340
13556TIP3    H140613   0.176   4.585   4.403
13556TIP3    H240614   0.232   4.621   4.267
13557TIP3   OH240615   7.389   6.695   1.305
13557TIP3    H140616   7.295   6.707   1.313
13557TIP3    H240617   7.426   6.783   1.314
13558TIP3   OH240618   3.935   0.825   0.842
13558TIP3    H140619   4.022   0.830   0.882
13558TIP3    H240620   3.917   0.731   0.835
13559TIP3   OH240621   2.974   3.801   6.057
13559TIP3    H140622   2.906   3.758   6.005
13559TIP3    H240623   2.927   3.862   6.114
13560TIP3   OH240624   7.557   7.248   2.191
13560TIP3    H140625   7.555   7.157   2.162
13560TIP3    H240626   7.562   7.299   2.110
13561TIP3   OH240627   6.212   0.180   2.957
13561TIP3    H140628   6.211   0.127   2.877
13561TIP3    H240629   6.148   0.249   2.942
13562TIP3   OH240630   1.065   1.680   1.343
13562TIP3    H140631   1.040   1.592   1.313
13562TIP3    H240632   0.986   1.716   1.382
13563TIP3   OH240633   6.602   2.807   3.731
13563TIP3    H140634   6.547   2.788   3.808
13563TIP3    H240635   6.688   2.828   3.768
13564TIP3   OH240636   2.937   6.876   2.266
13564TIP3    H140637   2.920   6.788   2.301
13564TIP3    H240638   3.016   6.866   2.213
13565TIP3   OH240639   1.662   3.627   3.373
13565TIP3    H140640   1.625   3.558   3.319
13565TIP3    H240641   1.636   3.708   3.330
13566TIP3   OH240642   1.290   0.766   5.559
13566TIP3    H140643   1.353   0.695   5.567
13566TIP3    H240644   1.205   0.722   5.557
13567TIP3   OH240645   2.157   0.882   0.009
13567TIP3    H140646   2.091   0.951   0.012
13567TIP3    H240647   2.112   0.804   0.043
13568TIP3   OH240648   1.584   7.023   4.927
13568TIP3    H140649   1.651   6.971   4.883
13568TIP3    H240650   1.614   7.113   4.918
13569TIP3   OH240651   3.043   6.811   6.523
13569TIP3    H140652   2.983   6.749   6.565
13569TIP3    H240653   2.998   6.838   6.443
13570TIP3   OH240654   0.084   6.274   5.875
13570TIP3    H140655   0.024   6.329   5.924
13570TIP3    H240656   0.165   6.275   5.926
13571TIP3   OH240657   7.941   5.753   3.388
13571TIP3    H140658   7.962   5.713   3.304
13571TIP3    H240659   7.863   5.806   3.371
13572TIP3   OH240660   5.441   3.759   6.593
13572TIP3    H140661   5.469   3.834   6.645
13572TIP3    H240662   5.367   3.791   6.542
13573TIP3   OH240663   3.887   0.928   4.013
13573TIP3    H140664   3.894   0.997   4.080
13573TIP3    H240665   3.938   0.960   3.940
13574TIP3   OH240666   0.302   6.478   6.343
13574TIP3    H140667   0.267   6.530   6.415
13574TIP3    H240668   0.253   6.396   6.347
13575TIP3   OH240669   6.129   7.705   5.352
13575TIP3    H140670   6.139   7.793   5.316
13575TIP3    H240671   6.059   7.714   5.417
13576TIP3   OH240672   7.092   2.117   3.914
13576TIP3    H140673   7.043   2.082   3.989
13576TIP3    H240674   7.063   2.065   3.840
13577TIP3   OH240675   6.328   0.711   1.862
13577TIP3    H140676   6.342   0.670   1.947
13577TIP3    H240677   6.404   0.768   1.850
13578TIP3   OH240678   3.091   7.498   4.263
13578TIP3    H140679   3.029   7.442   4.308
13578TIP3    H240680   3.147   7.438   4.214
13579TIP3   OH240681   5.325   2.213   1.394
13579TIP3    H140682   5.369   2.298   1.396
13579TIP3    H240683   5.260   2.218   1.464
13580TIP3   OH240684   3.365   3.102   1.689
13580TIP3    H140685   3.327   3.150   1.763
13580TIP3    H240686   3.436   3.051   1.729
13581TIP3   OH240687   6.776   1.938   6.051
13581TIP3    H140688   6.752   1.948   5.959
13581TIP3    H240689   6.733   2.011   6.095
13582TIP3   OH240690   2.556   0.163   1.618
13582TIP3    H140691   2.646   0.192   1.633
13582TIP3    H240692   2.564   0.094   1.552
13583TIP3   OH240693   0.275   7.485   2.856
13583TIP3    H140694   0.243   7.569   2.888
13583TIP3    H240695   0.264   7.425   2.930
13584TIP3   OH240696   6.162   0.710   0.219
13584TIP3    H140697   6.175   0.654   0.296
13584TIP3    H240698   6.245   0.757   0.210
13585TIP3   OH240699   2.788   0.328   4.716
13585TIP3    H140700   2.824   0.388   4.782
13585TIP3    H240701   2.695   0.349   4.713
13586TIP3   OH240702   1.199   5.820   1.277
13586TIP3    H140703   1.165   5.738   1.313
13586TIP3    H240704   1.129   5.884   1.291
13587TIP3   OH240705   5.952   3.729   0.871
13587TIP3    H140706   5.889   3.786   0.826
13587TIP3    H240707   6.000   3.685   0.801
13588TIP3   OH240708   4.112   3.506   0.526
13588TIP3    H140709   4.103   3.511   0.431
13588TIP3    H240710   4.108   3.412   0.546
13589TIP3   OH240711   2.237   1.802   5.726
13589TIP3    H140712   2.147   1.829   5.743
13589TIP3    H240713   2.259   1.844   5.642
13590TIP3   OH240714   5.418   3.363   0.461
13590TIP3    H140715   5.428   3.280   0.508
13590TIP3    H240716   5.325   3.385   0.472
13591TIP3   OH240717   7.658   3.556   1.961
13591TIP3    H140718   7.640   3.529   1.871
13591TIP3    H240719   7.747   3.592   1.958
13592TIP3   OH240720   4.491   4.955   6.044
13592TIP3    H140721   4.545   4.880   6.066
13592TIP3    H240722   4.410   4.943   6.094
13593TIP3   OH240723   2.417   2.462   6.265
13593TIP3    H140724   2.356   2.496   6.200
13593TIP3    H240725   2.504   2.483   6.231
13594TIP3   OH240726   0.619   1.035   0.182
13594TIP3    H140727   0.680   0.989   0.240
13594TIP3    H240728   0.534   0.996   0.200
13595TIP3   OH240729   1.559   0.652   1.872
13595TIP3    H140730   1.562   0.726   1.932
13595TIP3    H240731   1.579   0.689   1.786
13596TIP3   OH240732   0.710   2.079   2.053
13596TIP3    H140733   0.781   2.106   2.112
13596TIP3    H240734   0.683   1.993   2.087
13597TIP3   OH240735   4.218   0.470   3.996
13597TIP3    H140736   4.252   0.482   4.085
13597TIP3    H240737   4.187   0.379   3.995
13598TIP3   OH240738   8.101   1.043   4.704
13598TIP3    H140739   8.075   1.082   4.788
13598TIP3    H240740   8.112   0.950   4.723
13599TIP3   OH240741   0.560   2.338   0.694
13599TIP3    H140742   0.628   2.373   0.750
13599TIP3    H240743   0.606   2.281   0.632
13600TIP3   OH240744   2.765   0.738   0.129
13600TIP3    H140745   2.673   0.767   0.133
13600TIP3    H240746   2.760   0.643   0.134
13601TIP3   OH240747   3.735   6.072   1.728
13601TIP3    H140748   3.682   6.149   1.706
13601TIP3    H240749   3.808   6.107   1.779
13602TIP3   OH240750   6.784   1.171   1.030
13602TIP3    H140751   6.767   1.080   1.057
13602TIP3    H240752   6.862   1.165   0.975
13603TIP3   OH240753   3.380   5.429   4.727
13603TIP3    H140754   3.430   5.395   4.653
13603TIP3    H240755   3.407   5.521   4.734
13604TIP3   OH240756   7.283   0.095   3.066
13604TIP3    H140757   7.269   0.187   3.044
13604TIP3    H240758   7.281   0.092   3.162
13605TIP3   OH240759   4.603   0.537   6.443
13605TIP3    H140760   4.519   0.526   6.399
13605TIP3    H240761   4.596   0.482   6.521
13606TIP3   OH240762   4.873   0.707   5.012
13606TIP3    H140763   4.839   0.781   5.061
13606TIP3    H240764   4.858   0.631   5.068
13607TIP3   OH240765   6.337   0.435   2.655
13607TIP3    H140766   6.274   0.367   2.679
13607TIP3    H240767   6.303   0.515   2.695
13608TIP3   OH240768   2.244   6.947   6.037
13608TIP3    H140769   2.339   6.957   6.043
13608TIP3    H240770   2.225   6.868   6.087
13609TIP3   OH240771   0.861  -0.003   0.799
13609TIP3    H140772   0.903   0.078   0.771
13609TIP3    H240773   0.774  -0.001   0.760
13610TIP3   OH240774   3.043   3.687   6.480
13610TIP3    H140775   3.078   3.606   6.444
13610TIP3    H240776   3.100   3.755   6.445
13611TIP3   OH240777   3.627   4.978   2.227
13611TIP3    H140778   3.705   4.969   2.282
13611TIP3    H240779   3.659   5.014   2.145
13612TIP3   OH240780   6.561   1.814   2.210
13612TIP3    H140781   6.536   1.896   2.254
13612TIP3    H240782   6.592   1.758   2.281
13613TIP3   OH240783   3.011   0.295   4.535
13613TIP3    H140784   2.925   0.336   4.543
13613TIP3    H240785   2.998   0.205   4.562
13614TIP3   OH240786   1.934   4.673   4.584
13614TIP3    H140787   1.871   4.601   4.575
13614TIP3    H240788   1.977   4.657   4.667
13615TIP3   OH240789   3.851   7.705   4.977
13615TIP3    H140790   3.817   7.660   5.054
13615TIP3    H240791   3.906   7.776   5.012
13616TIP3   OH240792   6.011   4.864   3.695
13616TIP3    H140793   6.002   4.897   3.785
13616TIP3    H240794   6.106   4.851   3.685
13617TIP3   OH240795   1.797   0.959   3.485
13617TIP3    H140796   1.810   0.923   3.573
13617TIP3    H240797   1.810   0.884   3.427
13618TIP3   OH240798   2.924   3.559   3.780
13618TIP3    H140799   2.904   3.638   3.830
13618TIP3    H240800   3.020   3.551   3.785
13619TIP3   OH240801  -0.002   6.920   2.328
13619TIP3    H140802  -0.011   6.847   2.390
13619TIP3    H240803   0.026   6.878   2.247
13620TIP3   OH240804   4.642   0.791   1.746
13620TIP3    H140805   4.687   0.856   1.801
13620TIP3    H240806   4.565   0.837   1.712
13621TIP3   OH240807   7.259   1.755   6.510
13621TIP3    H140808   7.306   1.692   6.564
13621TIP3    H240809   7.234   1.706   6.432
13622TIP3   OH240810   7.636   4.562   1.516
13622TIP3    H140811   7.613   4.477   1.477
13622TIP3    H240812   7.571   4.623   1.482
13623TIP3   OH240813   4.622   0.540   5.108
13623TIP3    H140814   4.705   0.497   5.131
13623TIP3    H240815   4.588   0.573   5.191
13624TIP3   OH240816   2.035   1.865   2.561
13624TIP3    H140817   2.073   1.870   2.473
13624TIP3    H240818   2.089   1.801   2.607
13625TIP3   OH240819   6.678   4.750   5.315
13625TIP3    H140820   6.769   4.720   5.324
13625TIP3    H240821   6.626   4.680   5.355
13626TIP3   OH240822   6.846   7.627   1.402
13626TIP3    H140823   6.812   7.717   1.404
13626TIP3    H240824   6.801   7.586   1.328
13627TIP3   OH240825   7.700   1.582   3.809
13627TIP3    H140826   7.740   1.504   3.769
13627TIP3    H240827   7.727   1.654   3.751
13628TIP3   OH240828   3.423   3.650   6.201
13628TIP3    H140829   3.346   3.704   6.185
13628TIP3    H240830   3.479   3.664   6.125
13629TIP3   OH240831   4.646   7.500   2.132
13629TIP3    H140832   4.669   7.425   2.077
13629TIP3    H240833   4.721   7.513   2.189
13630TIP3   OH240834   1.101  -0.006   4.540
13630TIP3    H140835   1.065   0.053   4.606
13630TIP3    H240836   1.074   0.031   4.457
13631TIP3   OH240837   0.837   6.663   4.105
13631TIP3    H140838   0.880   6.744   4.078
13631TIP3    H240839   0.753   6.664   4.058
13632TIP3   OH240840   5.027   2.661   4.909
13632TIP3    H140841   5.001   2.746   4.874
13632TIP3    H240842   5.044   2.607   4.832
13633TIP3   OH240843   6.150   6.701   4.454
13633TIP3    H140844   6.133   6.769   4.388
13633TIP3    H240845   6.073   6.643   4.450
13634TIP3   OH240846   1.591   2.455   4.878
13634TIP3    H140847   1.504   2.462   4.838
13634TIP3    H240848   1.584   2.382   4.939
13635TIP3   OH240849   7.437   7.023   0.677
13635TIP3    H140850   7.394   6.975   0.607
13635TIP3    H240851   7.380   7.099   0.693
13636TIP3   OH240852   7.194   6.677   3.029
13636TIP3    H140853   7.276   6.667   3.076
13636TIP3    H240854   7.220   6.702   2.940
13637TIP3   OH240855   1.265   1.553   1.153
13637TIP3    H140856   1.288   1.465   1.123
13637TIP3    H240857   1.182   1.573   1.109
13638TIP3   OH240858   3.850   1.681   0.502
13638TIP3    H140859   3.809   1.767   0.492
13638TIP3    H240860   3.877   1.678   0.594
13639TIP3   OH240861   5.099   5.902   4.252
13639TIP3    H140862   5.115   5.914   4.345
13639TIP3    H240863   5.028   5.838   4.248
13640TIP3   OH240864   5.803   1.008   0.023
13640TIP3    H140865   5.756   0.965  -0.048
13640TIP3    H240866   5.884   0.958   0.032
13641TIP3   OH240867   6.764   6.866   3.318
13641TIP3    H140868   6.673   6.858   3.348
13641TIP3    H240869   6.809   6.793   3.361
13642TIP3   OH240870   7.990   7.247   1.888
13642TIP3    H140871   7.967   7.160   1.923
13642TIP3    H240872   7.916   7.269   1.832
13643TIP3   OH240873   5.532   4.026   1.295
13643TIP3    H140874   5.602   4.042   1.359
13643TIP3    H240875   5.451   4.038   1.344
13644TIP3   OH240876   5.934   4.244   0.302
13644TIP3    H140877   5.863   4.183   0.321
13644TIP3    H240878   6.014   4.194   0.317
13645TIP3   OH240879   7.522   2.795   0.310
13645TIP3    H140880   7.593   2.782   0.247
13645TIP3    H240881   7.489   2.883   0.291
13646TIP3   OH240882   5.486   1.531   6.207
13646TIP3    H140883   5.514   1.446   6.172
13646TIP3    H240884   5.394   1.519   6.229
13647TIP3   OH240885   0.872   4.183   0.975
13647TIP3    H140886   0.907   4.249   1.036
13647TIP3    H240887   0.853   4.232   0.895
13648TIP3   OH240888   7.456   0.211   0.800
13648TIP3    H140889   7.410   0.127   0.791
13648TIP3    H240890   7.537   0.200   0.751
13649TIP3   OH240891   0.659   6.599   0.604
13649TIP3    H140892   0.642   6.520   0.655
13649TIP3    H240893   0.575   6.644   0.601
13650TIP3   OH240894   1.159   4.014   1.196
13650TIP3    H140895   1.170   4.076   1.124
13650TIP3    H240896   1.104   3.945   1.160
13651TIP3   OH240897   3.864   6.182   2.767
13651TIP3    H140898   3.819   6.098   2.752
13651TIP3    H240899   3.917   6.167   2.845
13652TIP3   OH240900   4.515   4.928   3.892
13652TIP3    H140901   4.599   4.951   3.932
13652TIP3    H240902   4.485   4.853   3.943
13653TIP3   OH240903   1.553   5.690   3.886
13653TIP3    H140904   1.593   5.777   3.880
13653TIP3    H240905   1.623   5.629   3.864
13654TIP3   OH240906   1.441   2.777   2.137
13654TIP3    H140907   1.434   2.870   2.160
13654TIP3    H240908   1.352   2.752   2.112
13655TIP3   OH240909   3.489   6.443   3.130
13655TIP3    H140910   3.484   6.424   3.037
13655TIP3    H240911   3.574   6.486   3.142
13656TIP3   OH240912   6.880   6.675   3.471
13656TIP3    H140913   6.923   6.590   3.473
13656TIP3    H240914   6.860   6.694   3.563
13657TIP3   OH240915   5.628   7.132   6.135
13657TIP3    H140916   5.625   7.184   6.215
13657TIP3    H240917   5.587   7.049   6.159
13658TIP3   OH240918   4.563   1.053   1.324
13658TIP3    H140919   4.584   1.146   1.336
13658TIP3    H240920   4.637   1.007   1.364
13659TIP3   OH240921   8.066   7.656   1.010
13659TIP3    H140922   8.155   7.670   0.979
13659TIP3    H240923   8.036   7.743   1.036
13660TIP3   OH240924   5.408   3.757   0.521
13660TIP3    H140925   5.316   3.755   0.548
13660TIP3    H240926   5.452   3.696   0.580
13661TIP3   OH240927   7.171   3.644   1.429
13661TIP3    H140928   7.126   3.676   1.507
13661TIP3    H240929   7.264   3.660   1.447
13662TIP3   OH240930   4.329   4.065   2.768
13662TIP3    H140931   4.331   4.159   2.750
13662TIP3    H240932   4.405   4.050   2.825
13663TIP3   OH240933   4.988   4.869   3.294
13663TIP3    H140934   4.902   4.893   3.328
13663TIP3    H240935   5.004   4.931   3.224
13664TIP3   OH240936   5.941   6.966   0.833
13664TIP3    H140937   5.924   7.057   0.860
13664TIP3    H240938   5.891   6.913   0.896
13665TIP3   OH240939   3.011   2.962   3.284
13665TIP3    H140940   3.010   2.892   3.350
13665TIP3    H240941   2.977   3.039   3.330
13666TIP3   OH240942   6.097   6.038   2.770
13666TIP3    H140943   6.163   5.969   2.777
13666TIP3    H240944   6.070   6.054   2.860
13667TIP3   OH240945   0.865   3.880   0.258
13667TIP3    H140946   0.852   3.832   0.177
13667TIP3    H240947   0.917   3.820   0.313
13668TIP3   OH240948   7.240   4.185   5.056
13668TIP3    H140949   7.271   4.183   5.146
13668TIP3    H240950   7.266   4.100   5.019
13669TIP3   OH240951   5.551   4.896   4.290
13669TIP3    H140952   5.611   4.959   4.251
13669TIP3    H240953   5.576   4.894   4.383
13670TIP3   OH240954   6.501   3.390   3.090
13670TIP3    H140955   6.506   3.481   3.060
13670TIP3    H240956   6.558   3.388   3.168
13671TIP3   OH240957   7.802   6.980   4.403
13671TIP3    H140958   7.741   7.051   4.426
13671TIP3    H240959   7.763   6.939   4.326
13672TIP3   OH240960   7.960   7.521   0.784
13672TIP3    H140961   7.934   7.597   0.732
13672TIP3    H240962   7.999   7.557   0.863
13673TIP3   OH240963   3.671   1.801   0.727
13673TIP3    H140964   3.705   1.841   0.647
13673TIP3    H240965   3.578   1.787   0.709
13674TIP3   OH240966   6.288   3.806   3.124
13674TIP3    H140967   6.362   3.832   3.180
13674TIP3    H240968   6.284   3.711   3.133
13675TIP3   OH240969   7.024   0.040   0.645
13675TIP3    H140970   7.021   0.067   0.553
13675TIP3    H240971   7.106   0.077   0.678
13676TIP3   OH240972   7.071   1.715   3.002
13676TIP3    H140973   7.030   1.797   2.975
13676TIP3    H240974   6.998   1.654   3.015
13677TIP3   OH240975   2.612   7.295   1.461
13677TIP3    H140976   2.525   7.257   1.472
13677TIP3    H240977   2.599   7.389   1.475
13678TIP3   OH240978   7.935   0.305   4.434
13678TIP3    H140979   7.972   0.229   4.478
13678TIP3    H240980   7.961   0.379   4.488
13679TIP3   OH240981   3.507   7.519   2.854
13679TIP3    H140982   3.576   7.455   2.868
13679TIP3    H240983   3.513   7.577   2.930
13680TIP3   OH240984   7.102   4.695   4.140
13680TIP3    H140985   7.120   4.713   4.232
13680TIP3    H240986   7.123   4.602   4.129
13681TIP3   OH240987   3.862   2.811   6.482
13681TIP3    H140988   3.810   2.737   6.514
13681TIP3    H240989   3.798   2.871   6.443
13682TIP3   OH240990   3.247   4.967   3.587
13682TIP3    H140991   3.316   4.919   3.632
13682TIP3    H240992   3.293   5.040   3.544
13683TIP3   OH240993   4.729   4.386   4.028
13683TIP3    H140994   4.781   4.445   3.973
13683TIP3    H240995   4.757   4.406   4.118
13684TIP3   OH240996   1.452   3.438   2.529
13684TIP3    H140997   1.498   3.363   2.565
13684TIP3    H240998   1.385   3.459   2.593
13685TIP3   OH240999   2.653   3.190   5.802
13685TIP3    H141000   2.673   3.128   5.872
13685TIP3    H241001   2.711   3.264   5.818
13686TIP3   OH241002   5.748   1.583   4.224
13686TIP3    H141003   5.774   1.533   4.146
13686TIP3    H241004   5.806   1.659   4.224
13687TIP3   OH241005   4.351   5.672   5.788
13687TIP3    H141006   4.432   5.623   5.771
13687TIP3    H241007   4.286   5.604   5.805
13688TIP3   OH241008   0.173   5.091   4.865
13688TIP3    H141009   0.216   5.165   4.906
13688TIP3    H241010   0.089   5.126   4.835
13689TIP3   OH241011   4.412   1.972   4.401
13689TIP3    H141012   4.504   1.986   4.375
13689TIP3    H241013   4.417   1.908   4.472
13690TIP3   OH241014   0.850   6.698   6.481
13690TIP3    H141015   0.835   6.742   6.565
13690TIP3    H241016   0.814   6.611   6.493
13691TIP3   OH241017   2.067   0.641   2.254
13691TIP3    H141018   2.098   0.698   2.184
13691TIP3    H241019   2.052   0.557   2.212
13692TIP3   OH241020   6.965   4.363   2.807
13692TIP3    H141021   6.966   4.446   2.855
13692TIP3    H241022   6.967   4.296   2.875
13693TIP3   OH241023   4.522   5.467   6.201
13693TIP3    H141024   4.593   5.531   6.209
13693TIP3    H241025   4.522   5.442   6.109
13694TIP3   OH241026   4.873   0.011   1.768
13694TIP3    H141027   4.861   0.097   1.807
13694TIP3    H241028   4.944   0.022   1.706
13695TIP3   OH241029   8.255   3.243   2.878
13695TIP3    H141030   8.204   3.298   2.938
13695TIP3    H241031   8.244   3.284   2.793
13696TIP3   OH241032   3.516   2.992   6.067
13696TIP3    H141033   3.505   2.928   5.997
13696TIP3    H241034   3.447   2.970   6.130
13697TIP3   OH241035   6.075   6.701   3.399
13697TIP3    H141036   6.120   6.668   3.477
13697TIP3    H241037   5.984   6.708   3.425
13698TIP3   OH241038   1.484   5.910   6.660
13698TIP3    H141039   1.539   5.965   6.715
13698TIP3    H241040   1.395   5.930   6.688
13699TIP3   OH241041   7.874   1.677   2.160
13699TIP3    H141042   7.782   1.662   2.180
13699TIP3    H241043   7.901   1.745   2.222
13700TIP3   OH241044   5.390   1.416   5.598
13700TIP3    H141045   5.311   1.454   5.636
13700TIP3    H241046   5.432   1.489   5.553
13701TIP3   OH241047   4.615   1.336   1.349
13701TIP3    H141048   4.534   1.327   1.299
13701TIP3    H241049   4.679   1.369   1.286
13702TIP3   OH241050   4.054   0.647   1.717
13702TIP3    H141051   4.059   0.631   1.812
13702TIP3    H241052   4.033   0.740   1.710
13703TIP3   OH241053   4.644   5.099   2.937
13703TIP3    H141054   4.676   5.009   2.928
13703TIP3    H241055   4.584   5.110   2.863
13704TIP3   OH241056   3.936   7.325   5.524
13704TIP3    H141057   3.853   7.356   5.489
13704TIP3    H241058   3.916   7.239   5.560
13705TIP3   OH241059   5.967   6.629   2.610
13705TIP3    H141060   5.998   6.688   2.679
13705TIP3    H241061   6.043   6.615   2.554
13706TIP3   OH241062   2.417   2.906   0.116
13706TIP3    H141063   2.489   2.940   0.168
13706TIP3    H241064   2.428   2.947   0.030
13707TIP3   OH241065   7.138   2.826   1.290
13707TIP3    H141066   7.095   2.814   1.375
13707TIP3    H241067   7.222   2.868   1.312
13708TIP3   OH241068   2.868   0.959   1.588
13708TIP3    H141069   2.864   1.053   1.568
13708TIP3    H241070   2.811   0.918   1.523
13709TIP3   OH241071   2.879   4.146   4.164
13709TIP3    H141072   2.884   4.162   4.258
13709TIP3    H241073   2.785   4.136   4.147
13710TIP3   OH241074   6.111   7.024   4.435
13710TIP3    H141075   6.196   7.017   4.478
13710TIP3    H241076   6.093   7.118   4.432
13711TIP3   OH241077   0.823   0.895   1.358
13711TIP3    H141078   0.747   0.912   1.303
13711TIP3    H241079   0.787   0.885   1.446
13712TIP3   OH241080   1.510   4.801   4.982
13712TIP3    H141081   1.479   4.711   4.995
13712TIP3    H241082   1.468   4.829   4.901
13713TIP3   OH241083   8.247   7.571   2.205
13713TIP3    H141084   8.192   7.511   2.155
13713TIP3    H241085   8.190   7.643   2.229
13714TIP3   OH241086   6.737   0.655   4.999
13714TIP3    H141087   6.780   0.696   4.924
13714TIP3    H241088   6.800   0.664   5.071
13715TIP3   OH241089   3.438   6.733   1.137
13715TIP3    H141090   3.458   6.817   1.096
13715TIP3    H241091   3.521   6.686   1.136
13716TIP3   OH241092   6.949   7.212   2.296
13716TIP3    H141093   7.037   7.248   2.283
13716TIP3    H241094   6.918   7.252   2.377
13717TIP3   OH241095   0.585   6.014   2.621
13717TIP3    H141096   0.680   6.013   2.633
13717TIP3    H241097   0.550   6.034   2.708
13718TIP3   OH241098   6.788   5.271   5.427
13718TIP3    H141099   6.866   5.234   5.469
13718TIP3    H241100   6.823   5.331   5.361
13719TIP3   OH241101   4.721   7.766   1.435
13719TIP3    H141102   4.739   7.847   1.482
13719TIP3    H241103   4.648   7.788   1.377
13720TIP3   OH241104   6.215   5.776   5.819
13720TIP3    H141105   6.191   5.857   5.864
13720TIP3    H241106   6.260   5.805   5.740
13721TIP3   OH241107   1.642   4.481   6.547
13721TIP3    H141108   1.686   4.429   6.614
13721TIP3    H241109   1.670   4.571   6.565
13722TIP3   OH241110   5.855   5.807   2.884
13722TIP3    H141111   5.770   5.767   2.904
13722TIP3    H241112   5.912   5.732   2.864
13723TIP3   OH241113   3.122   4.139   2.574
13723TIP3    H141114   3.155   4.053   2.550
13723TIP3    H241115   3.195   4.182   2.618
13724TIP3   OH241116   2.985   5.047   6.647
13724TIP3    H141117   3.064   4.993   6.647
13724TIP3    H241118   2.917   4.990   6.683
13725TIP3   OH241119   0.102   2.843   0.681
13725TIP3    H141120   0.155   2.802   0.613
13725TIP3    H241121   0.081   2.772   0.741
13726TIP3   OH241122   2.621   5.919   2.961
13726TIP3    H141123   2.681   5.946   3.031
13726TIP3    H241124   2.575   5.999   2.937
13727TIP3   OH241125   4.138   0.275   6.345
13727TIP3    H141126   4.063   0.309   6.392
13727TIP3    H241127   4.210   0.334   6.367
13728TIP3   OH241128   7.612   6.995   0.934
13728TIP3    H141129   7.619   7.035   0.847
13728TIP3    H241130   7.667   7.050   0.990
13729TIP3   OH241131   2.204   7.118   1.288
13729TIP3    H141132   2.112   7.145   1.286
13729TIP3    H241133   2.204   7.027   1.259
13730TIP3   OH241134   7.387   2.716   3.169
13730TIP3    H141135   7.456   2.780   3.187
13730TIP3    H241136   7.308   2.755   3.206
13731TIP3   OH241137   6.554   0.508   5.618
13731TIP3    H141138   6.524   0.548   5.699
13731TIP3    H241139   6.615   0.439   5.646
13732TIP3   OH241140   8.089   7.292   4.564
13732TIP3    H141141   8.015   7.342   4.529
13732TIP3    H241142   8.102   7.221   4.501
13733TIP3   OH241143   7.597   1.348   6.641
13733TIP3    H141144   7.650   1.391   6.708
13733TIP3    H241145   7.639   1.264   6.626
13734TIP3   OH241146   4.978   2.205   3.838
13734TIP3    H141147   4.998   2.193   3.745
13734TIP3    H241148   4.926   2.129   3.862
13735TIP3   OH241149   2.948   6.494   1.783
13735TIP3    H141150   3.026   6.440   1.776
13735TIP3    H241151   2.946   6.523   1.874
13736TIP3   OH241152   4.191   3.415   4.626
13736TIP3    H141153   4.123   3.448   4.568
13736TIP3    H241154   4.207   3.326   4.595
13737TIP3   OH241155   7.809   2.287   6.447
13737TIP3    H141156   7.753   2.365   6.446
13737TIP3    H241157   7.837   2.277   6.356
13738TIP3   OH241158   7.840   1.784   4.287
13738TIP3    H141159   7.769   1.846   4.302
13738TIP3    H241160   7.802   1.717   4.230
13739TIP3   OH241161   5.242   5.573   1.682
13739TIP3    H141162   5.236   5.477   1.681
13739TIP3    H241163   5.232   5.599   1.591
13740TIP3   OH241164   0.568   4.660   5.096
13740TIP3    H141165   0.569   4.650   5.001
13740TIP3    H241166   0.520   4.741   5.111
13741TIP3   OH241167   3.110   1.206   1.396
13741TIP3    H141168   3.018   1.179   1.395
13741TIP3    H241169   3.146   1.172   1.315
13742TIP3   OH241170   6.502   3.587   5.153
13742TIP3    H141171   6.520   3.626   5.239
13742TIP3    H241172   6.585   3.545   5.129
13743TIP3   OH241173   7.959   3.334   4.157
13743TIP3    H141174   8.043   3.361   4.121
13743TIP3    H241175   7.918   3.283   4.087
13744TIP3   OH241176   4.248   6.573   4.640
13744TIP3    H141177   4.195   6.628   4.698
13744TIP3    H241178   4.244   6.486   4.681
13745TIP3   OH241179   0.179   0.299   4.954
13745TIP3    H141180   0.125   0.359   5.007
13745TIP3    H241181   0.253   0.278   5.011
13746TIP3   OH241182   5.395   7.059   4.137
13746TIP3    H141183   5.472   7.111   4.113
13746TIP3    H241184   5.402   6.980   4.084
13747TIP3   OH241185   4.741   2.039   0.319
13747TIP3    H141186   4.708   2.121   0.281
13747TIP3    H241187   4.808   2.010   0.258
13748TIP3   OH241188   2.716   6.458   2.614
13748TIP3    H141189   2.711   6.380   2.558
13748TIP3    H241190   2.636   6.453   2.667
13749TIP3   OH241191   4.411   4.540   6.529
13749TIP3    H141192   4.459   4.457   6.527
13749TIP3    H241193   4.319   4.515   6.519
13750TIP3   OH241194   3.842   1.843   0.015
13750TIP3    H141195   3.873   1.766  -0.033
13750TIP3    H241196   3.874   1.829   0.105
13751TIP3   OH241197   5.000   6.727   1.944
13751TIP3    H141198   5.013   6.632   1.947
13751TIP3    H241199   5.025   6.751   1.855
13752TIP3   OH241200   4.834   0.446   2.886
13752TIP3    H141201   4.896   0.504   2.929
13752TIP3    H241202   4.749   0.489   2.898
13753TIP3   OH241203   0.988   0.768   4.790
13753TIP3    H141204   1.027   0.825   4.857
13753TIP3    H241205   0.963   0.828   4.720
13754TIP3   OH241206   2.412   7.378   5.537
13754TIP3    H141207   2.433   7.376   5.630
13754TIP3    H241208   2.489   7.339   5.494
13755TIP3   OH241209   1.762   7.062   1.625
13755TIP3    H141210   1.795   7.085   1.712
13755TIP3    H241211   1.667   7.077   1.631
13756TIP3   OH241212   8.114   2.206   6.256
13756TIP3    H141213   8.155   2.165   6.332
13756TIP3    H241214   8.143   2.297   6.260
13757TIP3   OH241215   0.082   6.550   0.224
13757TIP3    H141216   0.127   6.604   0.159
13757TIP3    H241217  -0.010   6.554   0.198
13758TIP3   OH241218   6.080   0.006   1.460
13758TIP3    H141219   6.065   0.025   1.553
13758TIP3    H241220   5.993  -0.002   1.422
13759TIP3   OH241221   2.350   0.021   5.652
13759TIP3    H141222   2.326  -0.052   5.594
13759TIP3    H241223   2.266   0.052   5.686
13760TIP3   OH241224   1.241   1.191   6.210
13760TIP3    H141225   1.183   1.194   6.133
13760TIP3    H241226   1.302   1.263   6.196
13761TIP3   OH241227   0.299   2.341   5.760
13761TIP3    H141228   0.260   2.427   5.741
13761TIP3    H241229   0.337   2.314   5.676
13762TIP3   OH241230   2.178   4.269   5.870
13762TIP3    H141231   2.091   4.307   5.880
13762TIP3    H241232   2.236   4.332   5.914
13763TIP3   OH241233   6.276   1.730   3.661
13763TIP3    H141234   6.339   1.795   3.691
13763TIP3    H241235   6.209   1.728   3.730
13764TIP3   OH241236   3.399   4.449   3.942
13764TIP3    H141237   3.350   4.531   3.950
13764TIP3    H241238   3.337   4.388   3.903
13765TIP3   OH241239   4.290   4.437   3.053
13765TIP3    H141240   4.227   4.370   3.027
13765TIP3    H241241   4.307   4.486   2.972
13766TIP3   OH241242   4.810   3.216   0.247
13766TIP3    H141243   4.785   3.233   0.156
13766TIP3    H241244   4.781   3.293   0.295
13767TIP3   OH241245   1.677   0.523   0.286
13767TIP3    H141246   1.693   0.449   0.228
13767TIP3    H241247   1.647   0.593   0.228
13768TIP3   OH241248   2.201   2.733   5.188
13768TIP3    H141249   2.225   2.824   5.203
13768TIP3    H241250   2.109   2.737   5.159
13769TIP3   OH241251   3.749   7.394   5.963
13769TIP3    H141252   3.767   7.469   6.019
13769TIP3    H241253   3.687   7.426   5.898
13770TIP3   OH241254   1.424   3.988   6.114
13770TIP3    H141255   1.343   3.952   6.151
13770TIP3    H241256   1.396   4.033   6.035
13771TIP3   OH241257   5.813   6.252   2.896
13771TIP3    H141258   5.737   6.264   2.839
13771TIP3    H241259   5.851   6.340   2.903
13772TIP3   OH241260   6.345   6.053   1.195
13772TIP3    H141261   6.258   6.013   1.188
13772TIP3    H241262   6.395   5.991   1.248
13773TIP3   OH241263   4.215   6.240   1.742
13773TIP3    H141264   4.267   6.284   1.675
13773TIP3    H241265   4.280   6.214   1.808
13774TIP3   OH241266   1.719   1.334   4.817
13774TIP3    H141267   1.801   1.318   4.863
13774TIP3    H241268   1.669   1.391   4.876
13775TIP3   OH241269   0.449   7.178   5.835
13775TIP3    H141270   0.416   7.255   5.882
13775TIP3    H241271   0.465   7.113   5.903
13776TIP3   OH241272   0.168   0.226   3.280
13776TIP3    H141273   0.248   0.177   3.262
13776TIP3    H241274   0.180   0.259   3.369
13777TIP3   OH241275   1.340   6.937   5.347
13777TIP3    H141276   1.303   7.025   5.341
13777TIP3    H241277   1.293   6.896   5.419
13778TIP3   OH241278   4.453   3.211   0.286
13778TIP3    H141279   4.413   3.200   0.372
13778TIP3    H241280   4.512   3.286   0.296
13779TIP3   OH241281   0.341   0.808   6.437
13779TIP3    H141282   0.317   0.901   6.439
13779TIP3    H241283   0.431   0.806   6.471
13780TIP3   OH241284   2.667   1.721   1.931
13780TIP3    H141285   2.684   1.662   2.004
13780TIP3    H241286   2.597   1.680   1.881
13781TIP3   OH241287   5.521   1.741   1.452
13781TIP3    H141288   5.524   1.812   1.389
13781TIP3    H241289   5.565   1.668   1.409
13782TIP3   OH241290   0.269   6.319   4.531
13782TIP3    H141291   0.189   6.299   4.481
13782TIP3    H241292   0.322   6.240   4.523
13783TIP3   OH241293   4.851   1.599   1.978
13783TIP3    H141294   4.906   1.522   1.992
13783TIP3    H241295   4.894   1.647   1.908
13784TIP3   OH241296   2.043   7.593   0.179
13784TIP3    H141297   2.083   7.508   0.164
13784TIP3    H241298   1.951   7.581   0.155
13785TIP3   OH241299   7.537   4.291   4.820
13785TIP3    H141300   7.623   4.259   4.848
13785TIP3    H241301   7.528   4.260   4.730
13786TIP3   OH241302   1.738   6.310   5.752
13786TIP3    H141303   1.660   6.335   5.702
13786TIP3    H241304   1.774   6.393   5.783
13787TIP3   OH241305   0.055   7.666   0.891
13787TIP3    H141306   0.035   7.757   0.870
13787TIP3    H241307   0.142   7.669   0.931
13788TIP3   OH241308   4.304   4.374   0.350
13788TIP3    H141309   4.278   4.463   0.326
13788TIP3    H241310   4.236   4.318   0.312
13789TIP3   OH241311   2.183   0.796   6.588
13789TIP3    H141312   2.100   0.751   6.577
13789TIP3    H241313   2.223   0.794   6.501
13790TIP3   OH241314   2.596   7.575   0.287
13790TIP3    H141315   2.546   7.543   0.212
13790TIP3    H241316   2.673   7.616   0.248
13791TIP3   OH241317   7.592   0.376   0.406
13791TIP3    H141318   7.533   0.304   0.430
13791TIP3    H241319   7.617   0.416   0.489
13792TIP3   OH241320   2.329   1.513   3.510
13792TIP3    H141321   2.256   1.543   3.565
13792TIP3    H241322   2.288   1.459   3.443
13793TIP3   OH241323   0.329   6.386   1.614
13793TIP3    H141324   0.378   6.463   1.643
13793TIP3    H241325   0.237   6.411   1.619
13794TIP3   OH241326   0.154   1.300   6.243
13794TIP3    H141327   0.150   1.382   6.291
13794TIP3    H241328   0.247   1.277   6.242
13795TIP3   OH241329   4.657   3.262   2.328
13795TIP3    H141330   4.586   3.266   2.393
13795TIP3    H241331   4.614   3.230   2.249
13796TIP3   OH241332   6.228   7.714   3.604
13796TIP3    H141333   6.199   7.639   3.656
13796TIP3    H241334   6.322   7.700   3.593
13797TIP3   OH241335   1.726   2.149   1.286
13797TIP3    H141336   1.715   2.164   1.380
13797TIP3    H241337   1.650   2.095   1.262
13798TIP3   OH241338   5.480   0.494   3.545
13798TIP3    H141339   5.544   0.549   3.499
13798TIP3    H241340   5.533   0.427   3.587
13799TIP3   OH241341   4.132   7.739   0.923
13799TIP3    H141342   4.172   7.659   0.957
13799TIP3    H241343   4.205   7.787   0.884
13800TIP3   OH241344   1.651   1.091   6.643
13800TIP3    H141345   1.622   1.035   6.571
13800TIP3    H241346   1.589   1.073   6.714
13801TIP3   OH241347   0.474   4.228   2.896
13801TIP3    H141348   0.417   4.281   2.841
13801TIP3    H241349   0.414   4.176   2.950
13802TIP3   OH241350   1.629   5.948   6.421
13802TIP3    H141351   1.555   5.954   6.482
13802TIP3    H241352   1.698   6.001   6.462
13803TIP3   OH241353   1.893   4.135   2.977
13803TIP3    H141354   1.878   4.047   3.011
13803TIP3    H241355   1.837   4.141   2.900
13804TIP3   OH241356   3.591   1.615   3.298
13804TIP3    H141357   3.619   1.693   3.249
13804TIP3    H241358   3.497   1.610   3.282
13805TIP3   OH241359   8.235   5.542   6.317
13805TIP3    H141360   8.276   5.456   6.306
13805TIP3    H241361   8.141   5.524   6.322
13806TIP3   OH241362   7.315   1.130   4.698
13806TIP3    H141363   7.310   1.069   4.771
13806TIP3    H241364   7.328   1.215   4.739
13807TIP3   OH241365   1.590   6.259   6.632
13807TIP3    H141366   1.521   6.238   6.695
13807TIP3    H241367   1.543   6.266   6.548
13808TIP3   OH241368   3.386   1.240   1.464
13808TIP3    H141369   3.407   1.272   1.376
13808TIP3    H241370   3.295   1.211   1.457
13809TIP3   OH241371   1.257   0.642   4.865
13809TIP3    H141372   1.262   0.732   4.897
13809TIP3    H241373   1.180   0.641   4.808
13810TIP3   OH241374   7.087   6.177   0.486
13810TIP3    H141375   7.081   6.255   0.430
13810TIP3    H241376   6.999   6.142   0.488
13811TIP3   OH241377   8.017   1.276   2.011
13811TIP3    H141378   8.106   1.303   1.990
13811TIP3    H241379   7.963   1.353   1.996
13812TIP3   OH241380   2.441   7.327   2.822
13812TIP3    H141381   2.405   7.295   2.905
13812TIP3    H241382   2.371   7.313   2.758
13813TIP3   OH241383   7.827   5.061   4.920
13813TIP3    H141384   7.795   4.996   4.982
13813TIP3    H241385   7.920   5.040   4.909
13814TIP3   OH241386   4.330   0.680   2.554
13814TIP3    H141387   4.393   0.609   2.565
13814TIP3    H241388   4.244   0.637   2.558
13815TIP3   OH241389   8.057   2.907   4.077
13815TIP3    H141390   7.968   2.942   4.080
13815TIP3    H241391   8.100   2.944   4.155
13816TIP3   OH241392   2.705   4.185   4.845
13816TIP3    H141393   2.698   4.253   4.913
13816TIP3    H241394   2.795   4.152   4.855
13817TIP3   OH241395   0.853   7.303   5.087
13817TIP3    H141396   0.793   7.345   5.150
13817TIP3    H241397   0.909   7.373   5.057
13818TIP3   OH241398   7.710   2.405   2.482
13818TIP3    H141399   7.700   2.500   2.470
13818TIP3    H241400   7.748   2.374   2.399
13819TIP3   OH241401   1.516   3.842   0.960
13819TIP3    H141402   1.460   3.914   0.990
13819TIP3    H241403   1.551   3.804   1.040
13820TIP3   OH241404   3.950   1.106   0.812
13820TIP3    H141405   3.860   1.138   0.818
13820TIP3    H241406   3.944   1.014   0.838
13821TIP3   OH241407   7.796   2.114   4.175
13821TIP3    H141408   7.776   2.043   4.114
13821TIP3    H241409   7.892   2.112   4.183
13822TIP3   OH241410   5.069   6.749   1.169
13822TIP3    H141411   5.043   6.735   1.079
13822TIP3    H241412   5.006   6.812   1.203
13823TIP3   OH241413   2.283   6.157   2.337
13823TIP3    H141414   2.299   6.181   2.245
13823TIP3    H241415   2.353   6.200   2.385
13824TIP3   OH241416   2.779   6.564   4.283
13824TIP3    H141417   2.753   6.651   4.310
13824TIP3    H241418   2.825   6.528   4.359
13825TIP3   OH241419   7.157   1.535   5.949
13825TIP3    H141420   7.248   1.527   5.976
13825TIP3    H241421   7.159   1.595   5.875
13826TIP3   OH241422   2.777   6.625   1.201
13826TIP3    H141423   2.844   6.644   1.267
13826TIP3    H241424   2.782   6.700   1.141
13827TIP3   OH241425   5.040   5.509   6.306
13827TIP3    H141426   4.980   5.491   6.378
13827TIP3    H241427   4.994   5.476   6.228
13828TIP3   OH241428   5.956   0.822   6.067
13828TIP3    H141429   6.052   0.830   6.065
13828TIP3    H241430   5.924   0.911   6.056
13829TIP3   OH241431   3.844   1.208   2.830
13829TIP3    H141432   3.899   1.164   2.894
13829TIP3    H241433   3.878   1.297   2.826
13830TIP3   OH241434   0.084   7.132   4.480
13830TIP3    H141435   0.055   7.042   4.489
13830TIP3    H241436   0.082   7.149   4.386
13831TIP3   OH241437   7.167   6.629   4.989
13831TIP3    H141438   7.170   6.667   4.901
13831TIP3    H241439   7.214   6.693   5.044
13832TIP3   OH241440   0.660   2.467   2.114
13832TIP3    H141441   0.702   2.408   2.176
13832TIP3    H241442   0.566   2.453   2.127
13833TIP3   OH241443   2.023   5.617   3.524
13833TIP3    H141444   1.978   5.550   3.473
13833TIP3    H241445   2.064   5.674   3.458
13834TIP3   OH241446   6.262   3.890   0.848
13834TIP3    H141447   6.226   3.815   0.896
13834TIP3    H241448   6.186   3.932   0.809
13835TIP3   OH241449   1.954   3.175   1.101
13835TIP3    H141450   2.047   3.157   1.115
13835TIP3    H241451   1.917   3.176   1.190
13836TIP3   OH241452   7.089   7.367   5.363
13836TIP3    H141453   7.077   7.437   5.426
13836TIP3    H241454   7.044   7.398   5.284
13837TIP3   OH241455   3.656   1.708   4.527
13837TIP3    H141456   3.688   1.682   4.614
13837TIP3    H241457   3.659   1.804   4.528
13838TIP3   OH241458   1.975   2.582   5.876
13838TIP3    H141459   1.962   2.618   5.788
13838TIP3    H241460   2.001   2.656   5.929
13839TIP3   OH241461   1.605   7.652   4.156
13839TIP3    H141462   1.539   7.609   4.210
13839TIP3    H241463   1.684   7.599   4.166
13840TIP3   OH241464   4.737   5.685   6.258
13840TIP3    H141465   4.760   5.778   6.265
13840TIP3    H241466   4.755   5.650   6.345
13841TIP3   OH241467   7.768   4.566   4.276
13841TIP3    H141468   7.789   4.659   4.270
13841TIP3    H241469   7.720   4.547   4.195
13842TIP3   OH241470   6.015   5.701   0.729
13842TIP3    H141471   6.064   5.714   0.648
13842TIP3    H241472   5.946   5.639   0.705
13843TIP3   OH241473   2.818   3.744   1.529
13843TIP3    H141474   2.727   3.717   1.539
13843TIP3    H241475   2.819   3.793   1.447
13844TIP3   OH241476   6.859   4.772   4.468
13844TIP3    H141477   6.886   4.847   4.522
13844TIP3    H241478   6.917   4.774   4.393
13845TIP3   OH241479   1.829   6.554   5.885
13845TIP3    H141480   1.809   6.628   5.828
13845TIP3    H241481   1.917   6.573   5.918
13846TIP3   OH241482   3.925   4.626   6.554
13846TIP3    H141483   3.968   4.619   6.639
13846TIP3    H241484   3.870   4.704   6.562
13847TIP3   OH241485   1.839   2.829   4.479
13847TIP3    H141486   1.784   2.788   4.547
13847TIP3    H241487   1.910   2.871   4.528
13848TIP3   OH241488   4.807   7.409   3.647
13848TIP3    H141489   4.746   7.427   3.575
13848TIP3    H241490   4.752   7.413   3.725
13849TIP3   OH241491   7.402   3.383   0.355
13849TIP3    H141492   7.320   3.427   0.330
13849TIP3    H241493   7.397   3.376   0.450
13850TIP3   OH241494   4.867   4.070   1.205
13850TIP3    H141495   4.820   3.991   1.176
13850TIP3    H241496   4.959   4.049   1.192
13851TIP3   OH241497   6.997   3.272   0.087
13851TIP3    H141498   6.904   3.255   0.072
13851TIP3    H241499   7.002   3.366   0.102
13852TIP3   OH241500   3.653   4.088   6.155
13852TIP3    H141501   3.616   4.000   6.161
13852TIP3    H241502   3.677   4.110   6.245
13853TIP3   OH241503   7.015   4.715   5.340
13853TIP3    H141504   7.038   4.774   5.412
13853TIP3    H241505   7.086   4.727   5.276
13854TIP3   OH241506   5.259   4.344   5.135
13854TIP3    H141507   5.286   4.380   5.050
13854TIP3    H241508   5.273   4.416   5.197
13855TIP3   OH241509   0.661   5.923   6.103
13855TIP3    H141510   0.677   6.016   6.119
13855TIP3    H241511   0.570   5.919   6.074
13856TIP3   OH241512   4.518   4.586   5.255
13856TIP3    H141513   4.543   4.656   5.315
13856TIP3    H241514   4.523   4.506   5.307
13857TIP3   OH241515   1.466   3.274   1.566
13857TIP3    H141516   1.508   3.191   1.587
13857TIP3    H241517   1.383   3.250   1.524
13858TIP3   OH241518   7.451   4.717   1.399
13858TIP3    H141519   7.408   4.780   1.457
13858TIP3    H241520   7.393   4.712   1.323
13859TIP3   OH241521   4.645   5.571   4.346
13859TIP3    H141522   4.653   5.490   4.396
13859TIP3    H241523   4.553   5.596   4.356
13860TIP3   OH241524   4.157   2.799   1.262
13860TIP3    H141525   4.113   2.813   1.177
13860TIP3    H241526   4.247   2.776   1.239
13861TIP3   OH241527   0.436   6.154   3.776
13861TIP3    H141528   0.344   6.178   3.792
13861TIP3    H241529   0.449   6.172   3.683
13862TIP3   OH241530   3.277   7.587   3.836
13862TIP3    H141531   3.234   7.588   3.751
13862TIP3    H241532   3.208   7.612   3.898
13863TIP3   OH241533   7.832   5.303   4.406
13863TIP3    H141534   7.757   5.280   4.460
13863TIP3    H241535   7.889   5.354   4.465
13864TIP3   OH241536   6.480   2.589   0.441
13864TIP3    H141537   6.402   2.540   0.415
13864TIP3    H241538   6.519   2.618   0.359
13865TIP3   OH241539   1.918   1.541   0.294
13865TIP3    H141540   1.970   1.619   0.316
13865TIP3    H241541   1.980   1.468   0.300
13866TIP3   OH241542   5.327   4.745   2.666
13866TIP3    H141543   5.365   4.672   2.618
13866TIP3    H241544   5.332   4.819   2.605
13867TIP3   OH241545   0.447   3.590   2.554
13867TIP3    H141546   0.397   3.666   2.584
13867TIP3    H241547   0.507   3.625   2.489
13868TIP3   OH241548   1.639   5.115   4.209
13868TIP3    H141549   1.645   5.045   4.145
13868TIP3    H241550   1.599   5.074   4.286
13869TIP3   OH241551   1.625   0.830   6.147
13869TIP3    H141552   1.562   0.761   6.127
13869TIP3    H241553   1.615   0.846   6.241
13870TIP3   OH241554   5.172   2.615   4.009
13870TIP3    H141555   5.141   2.527   4.032
13870TIP3    H241556   5.195   2.655   4.092
13871TIP3   OH241557   4.533   5.357   4.029
13871TIP3    H141558   4.555   5.308   4.109
13871TIP3    H241559   4.567   5.445   4.046
13872TIP3   OH241560   4.912   2.510   3.836
13872TIP3    H141561   4.936   2.427   3.878
13872TIP3    H241562   4.993   2.542   3.798
13873TIP3   OH241563   7.525   6.901   6.315
13873TIP3    H141564   7.441   6.859   6.296
13873TIP3    H241565   7.514   6.991   6.286
13874TIP3   OH241566   4.253   2.797   0.099
13874TIP3    H141567   4.264   2.825   0.009
13874TIP3    H241568   4.213   2.872   0.143
13875TIP3   OH241569   4.480   5.661   2.974
13875TIP3    H141570   4.426   5.649   3.052
13875TIP3    H241571   4.484   5.756   2.962
13876TIP3   OH241572   7.401   5.224   0.086
13876TIP3    H141573   7.493   5.197   0.083
13876TIP3    H241574   7.373   5.221  -0.006
13877TIP3   OH241575   5.549   7.241   1.160
13877TIP3    H141576   5.574   7.188   1.085
13877TIP3    H241577   5.623   7.301   1.174
13878TIP3   OH241578   1.826  -0.014   2.737
13878TIP3    H141579   1.802   0.054   2.800
13878TIP3    H241580   1.915   0.010   2.709
13879TIP3   OH241581   5.964   4.556   4.454
13879TIP3    H141582   5.887   4.510   4.487
13879TIP3    H241583   6.009   4.585   4.534
13880TIP3   OH241584   5.775   0.614   2.313
13880TIP3    H141585   5.753   0.622   2.406
13880TIP3    H241586   5.814   0.698   2.290
13881TIP3   OH241587   7.367   1.381   4.170
13881TIP3    H141588   7.384   1.438   4.245
13881TIP3    H241589   7.453   1.343   4.150
13882TIP3   OH241590   2.843   5.107   1.536
13882TIP3    H141591   2.763   5.120   1.486
13882TIP3    H241592   2.823   5.142   1.623
13883TIP3   OH241593   0.713   1.331   1.999
13883TIP3    H141594   0.672   1.282   1.928
13883TIP3    H241595   0.807   1.313   1.989
13884TIP3   OH241596   1.839   4.587   5.003
13884TIP3    H141597   1.823   4.681   5.004
13884TIP3    H241598   1.753   4.547   5.017
13885TIP3   OH241599   0.190   0.308   2.420
13885TIP3    H141600   0.281   0.327   2.397
13885TIP3    H241601   0.195   0.266   2.506
13886TIP3   OH241602   5.455   5.157   4.133
13886TIP3    H141603   5.454   5.090   4.065
13886TIP3    H241604   5.463   5.240   4.085
13887TIP3   OH241605   7.560   0.541   6.244
13887TIP3    H141606   7.475   0.517   6.207
13887TIP3    H241607   7.609   0.459   6.246
13888TIP3   OH241608   7.738   2.876   6.515
13888TIP3    H141609   7.829   2.906   6.503
13888TIP3    H241610   7.720   2.892   6.608
13889TIP3   OH241611   0.419   4.143   0.609
13889TIP3    H141612   0.426   4.118   0.517
13889TIP3    H241613   0.332   4.114   0.635
13890TIP3   OH241614   4.013   2.626   5.881
13890TIP3    H141615   4.061   2.699   5.844
13890TIP3    H241616   3.995   2.568   5.807
13891TIP3   OH241617   7.543   4.309   4.342
13891TIP3    H141618   7.521   4.335   4.253
13891TIP3    H241619   7.539   4.390   4.393
13892TIP3   OH241620   3.254   0.852   2.955
13892TIP3    H141621   3.191   0.831   2.887
13892TIP3    H241622   3.310   0.775   2.961
13893TIP3   OH241623   1.236   5.139   5.300
13893TIP3    H141624   1.190   5.095   5.371
13893TIP3    H241625   1.236   5.076   5.228
13894TIP3   OH241626   5.730   0.416   4.447
13894TIP3    H141627   5.645   0.455   4.424
13894TIP3    H241628   5.794   0.476   4.410
13895TIP3   OH241629   2.653   1.016   6.687
13895TIP3    H141630   2.689   1.099   6.657
13895TIP3    H241631   2.581   1.041   6.745
13896TIP3   OH241632   7.740   5.202   5.387
13896TIP3    H141633   7.785   5.118   5.399
13896TIP3    H241634   7.811   5.267   5.390
13897TIP3   OH241635   1.466   6.035   1.117
13897TIP3    H141636   1.543   6.033   1.175
13897TIP3    H241637   1.426   6.120   1.133
13898TIP3   OH241638   5.789   5.289   5.664
13898TIP3    H141639   5.856   5.293   5.596
13898TIP3    H241640   5.839   5.276   5.745
13899TIP3   OH241641   1.885   5.171   0.630
13899TIP3    H141642   1.960   5.144   0.578
13899TIP3    H241643   1.829   5.094   0.632
13900TIP3   OH241644   0.426   4.607   6.564
13900TIP3    H141645   0.342   4.570   6.592
13900TIP3    H241646   0.482   4.600   6.641
13901TIP3   OH241647   3.874   4.961   2.884
13901TIP3    H141648   3.944   4.921   2.833
13901TIP3    H241649   3.829   4.887   2.925
13902TIP3   OH241650   3.507   2.276   1.807
13902TIP3    H141651   3.506   2.342   1.737
13902TIP3    H241652   3.481   2.324   1.885
13903TIP3   OH241653   1.815   3.256   0.887
13903TIP3    H141654   1.810   3.351   0.885
13903TIP3    H241655   1.854   3.235   0.972
13904TIP3   OH241656   2.848   1.101   5.577
13904TIP3    H141657   2.753   1.117   5.582
13904TIP3    H241658   2.863   1.079   5.485
13905TIP3   OH241659   2.652   4.379   5.102
13905TIP3    H141660   2.633   4.455   5.046
13905TIP3    H241661   2.587   4.385   5.172
13906TIP3   OH241662   2.202   5.483   3.323
13906TIP3    H141663   2.239   5.452   3.406
13906TIP3    H241664   2.113   5.447   3.321
13907TIP3   OH241665   6.491   7.371   5.068
13907TIP3    H141666   6.523   7.385   4.979
13907TIP3    H241667   6.423   7.304   5.058
13908TIP3   OH241668   4.523   4.294   3.068
13908TIP3    H141669   4.440   4.340   3.080
13908TIP3    H241670   4.575   4.353   3.013
13909TIP3   OH241671   6.246   6.282   3.450
13909TIP3    H141672   6.310   6.213   3.466
13909TIP3    H241673   6.161   6.239   3.463
13910TIP3   OH241674   7.855   4.048   5.435
13910TIP3    H141675   7.808   4.118   5.390
13910TIP3    H241676   7.787   3.983   5.454
13911TIP3   OH241677   2.007   0.356   4.741
13911TIP3    H141678   2.074   0.400   4.689
13911TIP3    H241679   2.055   0.318   4.815
13912TIP3   OH241680   3.565   0.301   5.069
13912TIP3    H141681   3.470   0.311   5.072
13912TIP3    H241682   3.585   0.289   4.977
13913TIP3   OH241683   6.520   1.476   0.100
13913TIP3    H141684   6.528   1.383   0.121
13913TIP3    H241685   6.475   1.514   0.175
13914TIP3   OH241686   5.130   0.417   6.217
13914TIP3    H141687   5.144   0.340   6.162
13914TIP3    H241688   5.060   0.390   6.277
13915TIP3   OH241689   2.380   2.667   2.357
13915TIP3    H141690   2.307   2.605   2.356
13915TIP3    H241691   2.338   2.753   2.349
13916TIP3   OH241692   2.852   4.921   4.773
13916TIP3    H141693   2.757   4.918   4.763
13916TIP3    H241694   2.874   5.014   4.763
13917TIP3   OH241695   6.299   0.357   2.392
13917TIP3    H141696   6.312   0.381   2.484
13917TIP3    H241697   6.380   0.383   2.349
13918TIP3   OH241698   0.607   2.699   5.371
13918TIP3    H141699   0.699   2.672   5.378
13918TIP3    H241700   0.559   2.632   5.419
13919TIP3   OH241701   2.258   2.110   2.842
13919TIP3    H141702   2.227   2.117   2.752
13919TIP3    H241703   2.351   2.088   2.834
13920TIP3   OH241704   0.310   6.893   5.792
13920TIP3    H141705   0.283   6.982   5.813
13920TIP3    H241706   0.248   6.864   5.726
13921TIP3   OH241707   3.063   2.418   3.281
13921TIP3    H141708   3.094   2.329   3.262
13921TIP3    H241709   3.048   2.457   3.194
13922TIP3   OH241710   2.689   6.707   4.694
13922TIP3    H141711   2.733   6.627   4.723
13922TIP3    H241712   2.602   6.702   4.734
13923TIP3   OH241713   1.668   1.120   5.185
13923TIP3    H141714   1.751   1.153   5.221
13923TIP3    H241715   1.690   1.035   5.147
13924TIP3   OH241716   7.032   7.667   0.649
13924TIP3    H141717   6.991   7.588   0.685
13924TIP3    H241718   7.126   7.652   0.660
13925TIP3   OH241719   0.570   7.726   6.272
13925TIP3    H141720   0.501   7.730   6.205
13925TIP3    H241721   0.651   7.745   6.224
13926TIP3   OH241722   0.997   5.343   4.681
13926TIP3    H141723   1.053   5.413   4.647
13926TIP3    H241724   1.012   5.345   4.776
13927TIP3   OH241725   5.110   1.502   3.230
13927TIP3    H141726   5.083   1.410   3.228
13927TIP3    H241727   5.165   1.513   3.153
13928TIP3   OH241728   2.133   0.796   6.065
13928TIP3    H141729   2.050   0.750   6.057
13928TIP3    H241730   2.152   0.826   5.976
13929TIP3   OH241731   0.912   4.073   2.079
13929TIP3    H141732   0.999   4.043   2.053
13929TIP3    H241733   0.863   3.993   2.095
13930TIP3   OH241734   7.069   7.327   4.442
13930TIP3    H141735   7.063   7.306   4.349
13930TIP3    H241736   7.026   7.413   4.449
13931TIP3   OH241737   4.984   2.051   4.169
13931TIP3    H141738   5.077   2.031   4.158
13931TIP3    H241739   4.940   1.999   4.101
13932TIP3   OH241740   4.678   6.614   4.855
13932TIP3    H141741   4.596   6.660   4.873
13932TIP3    H241742   4.735   6.637   4.929
13933TIP3   OH241743   1.859   2.135   0.235
13933TIP3    H141744   1.891   2.150   0.146
13933TIP3    H241745   1.766   2.115   0.225
13934TIP3   OH241746   4.967   5.889   1.753
13934TIP3    H141747   5.054   5.878   1.715
13934TIP3    H241748   4.963   5.982   1.777
13935TIP3   OH241749   6.113   3.341   2.494
13935TIP3    H141750   6.172   3.415   2.478
13935TIP3    H241751   6.137   3.310   2.581
13936TIP3   OH241752   5.062   0.781   4.270
13936TIP3    H141753   5.110   0.864   4.271
13936TIP3    H241754   5.073   0.746   4.358
13937TIP3   OH241755   3.987   1.522   3.545
13937TIP3    H141756   3.917   1.584   3.526
13937TIP3    H241757   4.038   1.564   3.614
13938TIP3   OH241758   4.818   6.156   2.465
13938TIP3    H141759   4.799   6.147   2.558
13938TIP3    H241760   4.766   6.088   2.423
13939TIP3   OH241761   7.067   4.564   5.628
13939TIP3    H141762   7.103   4.648   5.599
13939TIP3    H241763   7.120   4.498   5.584
13940TIP3   OH241764   0.528   3.917   4.998
13940TIP3    H141765   0.502   3.874   5.079
13940TIP3    H241766   0.463   3.986   4.986
13941TIP3   OH241767   7.783   3.298   2.954
13941TIP3    H141768   7.794   3.386   2.990
13941TIP3    H241769   7.763   3.312   2.861
13942TIP3   OH241770   4.502   1.927   0.178
13942TIP3    H141771   4.570   1.931   0.244
13942TIP3    H241772   4.502   2.014   0.138
13943TIP3   OH241773   3.396   6.019   5.995
13943TIP3    H141774   3.404   5.987   5.905
13943TIP3    H241775   3.342   5.955   6.040
13944TIP3   OH241776   3.903   7.355   4.933
13944TIP3    H141777   3.814   7.335   4.962
13944TIP3    H241778   3.892   7.409   4.855
13945TIP3   OH241779   6.574   7.752   1.025
13945TIP3    H141780   6.598   7.842   1.051
13945TIP3    H241781   6.524   7.763   0.945
13946TIP3   OH241782   5.710   0.212   4.663
13946TIP3    H141783   5.802   0.204   4.689
13946TIP3    H241784   5.712   0.266   4.584
13947TIP3   OH241785   5.898   1.496   5.684
13947TIP3    H141786   5.888   1.587   5.711
13947TIP3    H241787   5.925   1.501   5.592
13948TIP3   OH241788   7.517   2.070   2.853
13948TIP3    H141789   7.527   2.144   2.793
13948TIP3    H241790   7.477   2.109   2.931
13949TIP3   OH241791   4.470   3.615   5.500
13949TIP3    H141792   4.424   3.560   5.437
13949TIP3    H241793   4.470   3.702   5.461
13950TIP3   OH241794   7.286   0.907   0.156
13950TIP3    H141795   7.311   0.919   0.248
13950TIP3    H241796   7.241   0.823   0.154
13951TIP3   OH241797   6.707   0.417   4.295
13951TIP3    H141798   6.793   0.442   4.262
13951TIP3    H241799   6.704   0.452   4.384
13952TIP3   OH241800   6.186   0.637   2.748
13952TIP3    H141801   6.143   0.652   2.832
13952TIP3    H241802   6.114   0.627   2.686
13953TIP3   OH241803   2.763   5.778   4.244
13953TIP3    H141804   2.851   5.743   4.229
13953TIP3    H241805   2.717   5.765   4.161
13954TIP3   OH241806   4.089   7.080   2.218
13954TIP3    H141807   4.174   7.113   2.248
13954TIP3    H241808   4.025   7.135   2.262
13955TIP3   OH241809   4.197   4.257   4.742
13955TIP3    H141810   4.194   4.185   4.679
13955TIP3    H241811   4.285   4.293   4.733
13956TIP3   OH241812   4.105   3.637   2.170
13956TIP3    H141813   4.116   3.646   2.265
13956TIP3    H241814   4.164   3.702   2.133
13957TIP3   OH241815   1.834   4.170   5.863
13957TIP3    H141816   1.864   4.180   5.772
13957TIP3    H241817   1.875   4.243   5.910
13958TIP3   OH241818   1.552   2.656   3.203
13958TIP3    H141819   1.466   2.679   3.238
13958TIP3    H241820   1.566   2.566   3.230
13959TIP3   OH241821   3.979   0.930   6.532
13959TIP3    H141822   4.014   0.952   6.619
13959TIP3    H241823   4.053   0.895   6.484
13960TIP3   OH241824   7.107   3.916   1.430
13960TIP3    H141825   7.147   3.851   1.372
13960TIP3    H241826   7.062   3.977   1.370
13961TIP3   OH241827   3.879   0.871   1.144
13961TIP3    H141828   3.791   0.905   1.132
13961TIP3    H241829   3.867   0.776   1.154
13962TIP3   OH241830   0.016   6.558   0.501
13962TIP3    H141831  -0.025   6.642   0.525
13962TIP3    H241832   0.055   6.574   0.415
13963TIP3   OH241833   6.102   5.074   0.711
13963TIP3    H141834   6.156   5.109   0.641
13963TIP3    H241835   6.152   5.000   0.746
13964TIP3   OH241836   0.915   2.514   6.291
13964TIP3    H141837   0.871   2.527   6.206
13964TIP3    H241838   0.959   2.429   6.281
13965TIP3   OH241839   2.822   4.599   4.925
13965TIP3    H141840   2.730   4.583   4.906
13965TIP3    H241841   2.857   4.637   4.844
13966TIP3   OH241842   1.607   3.337   5.713
13966TIP3    H141843   1.598   3.409   5.775
13966TIP3    H241844   1.517   3.312   5.691
13967TIP3   OH241845   7.815   1.467   2.758
13967TIP3    H141846   7.746   1.509   2.810
13967TIP3    H241847   7.792   1.374   2.758
13968TIP3   OH241848   2.552   5.059   4.085
13968TIP3    H141849   2.630   5.005   4.098
13968TIP3    H241850   2.529   5.045   3.993
13969TIP3   OH241851   1.092   2.211   2.058
13969TIP3    H141852   1.018   2.151   2.053
13969TIP3    H241853   1.069   2.273   2.128
13970TIP3   OH241854   6.740   3.112   4.263
13970TIP3    H141855   6.748   3.108   4.168
13970TIP3    H241856   6.740   3.020   4.291
13971TIP3   OH241857   7.172   4.533   6.428
13971TIP3    H141858   7.144   4.619   6.396
13971TIP3    H241859   7.264   4.545   6.453
13972TIP3   OH241860   1.242   4.629   4.188
13972TIP3    H141861   1.334   4.651   4.171
13972TIP3    H241862   1.211   4.591   4.106
13973TIP3   OH241863   3.488   3.117   5.594
13973TIP3    H141864   3.482   3.094   5.501
13973TIP3    H241865   3.415   3.071   5.635
13974TIP3   OH241866   6.939   3.175   5.296
13974TIP3    H141867   6.850   3.171   5.331
13974TIP3    H241868   6.956   3.269   5.285
13975TIP3   OH241869   4.516   7.541   3.368
13975TIP3    H141870   4.485   7.579   3.451
13975TIP3    H241871   4.460   7.465   3.354
13976TIP3   OH241872   5.598   4.622   6.345
13976TIP3    H141873   5.528   4.687   6.341
13976TIP3    H241874   5.641   4.638   6.429
13977TIP3   OH241875   1.162   5.619   0.540
13977TIP3    H141876   1.103   5.674   0.489
13977TIP3    H241877   1.199   5.679   0.605
13978TIP3   OH241878   2.897   1.389   3.347
13978TIP3    H141879   2.864   1.456   3.286
13978TIP3    H241880   2.822   1.365   3.400
13979TIP3   OH241881   1.165   7.011   6.460
13979TIP3    H141882   1.105   7.085   6.465
13979TIP3    H241883   1.134   6.959   6.386
13980TIP3   OH241884   7.448   5.121   6.571
13980TIP3    H141885   7.519   5.142   6.632
13980TIP3    H241886   7.374   5.175   6.601
13981TIP3   OH241887   2.245   2.484   0.608
13981TIP3    H141888   2.217   2.451   0.522
13981TIP3    H241889   2.235   2.579   0.601
13982TIP3   OH241890   0.231   5.893   6.564
13982TIP3    H141891   0.201   5.876   6.653
13982TIP3    H241892   0.239   5.807   6.524
13983TIP3   OH241893   8.072   7.069   1.430
13983TIP3    H141894   8.155   7.114   1.445
13983TIP3    H241895   8.044   7.100   1.344
13984TIP3   OH241896   6.995   1.133   0.862
13984TIP3    H141897   6.957   1.082   0.790
13984TIP3    H241898   7.074   1.086   0.885
13985TIP3   OH241899   4.261   0.048   1.686
13985TIP3    H141900   4.288  -0.011   1.615
13985TIP3    H241901   4.302   0.132   1.663
13986TIP3   OH241902   6.533   7.175   4.064
13986TIP3    H141903   6.559   7.216   3.981
13986TIP3    H241904   6.576   7.228   4.131
13987TIP3   OH241905   2.934   4.272   0.332
13987TIP3    H141906   2.933   4.368   0.335
13987TIP3    H241907   2.981   4.245   0.410
13988TIP3   OH241908   0.698   0.361   1.647
13988TIP3    H141909   0.756   0.421   1.693
13988TIP3    H241910   0.627   0.417   1.614
13989TIP3   OH241911   4.906   0.697   6.197
13989TIP3    H141912   4.868   0.777   6.161
13989TIP3    H241913   4.951   0.726   6.276
13990TIP3   OH241914   7.938   0.371   5.570
13990TIP3    H141915   7.910   0.316   5.496
13990TIP3    H241916   7.889   0.336   5.645
13991TIP3   OH241917   6.323   2.156   5.592
13991TIP3    H141918   6.329   2.082   5.653
13991TIP3    H241919   6.397   2.212   5.615
13992TIP3   OH241920   0.516   1.975   5.054
13992TIP3    H141921   0.597   1.933   5.082
13992TIP3    H241922   0.452   1.904   5.050
13993TIP3   OH241923   6.724   7.833   3.523
13993TIP3    H141924   6.673   7.854   3.602
13993TIP3    H241925   6.743   7.739   3.531
13994TIP3   OH241926   3.943   6.579   1.893
13994TIP3    H141927   3.861   6.575   1.943
13994TIP3    H241928   3.928   6.522   1.818
13995TIP3   OH241929   3.856   0.228   5.107
13995TIP3    H141930   3.903   0.191   5.182
13995TIP3    H241931   3.764   0.210   5.125
13996TIP3   OH241932   5.604   5.512   3.349
13996TIP3    H141933   5.552   5.591   3.368
13996TIP3    H241934   5.682   5.545   3.306
13997TIP3   OH241935   6.746   5.214   1.506
13997TIP3    H141936   6.770   5.128   1.538
13997TIP3    H241937   6.718   5.199   1.415
13998TIP3   OH241938   0.768   0.433   4.215
13998TIP3    H141939   0.721   0.496   4.270
13998TIP3    H241940   0.848   0.478   4.189
13999TIP3   OH241941   3.816   5.238   6.282
13999TIP3    H141942   3.858   5.280   6.357
13999TIP3    H241943   3.818   5.145   6.302
14000TIP3   OH241944   6.278   0.103   4.099
14000TIP3    H141945   6.372   0.113   4.080
14000TIP3    H241946   6.276   0.065   4.187
14001TIP3   OH241947   1.064   5.813   1.740
14001TIP3    H141948   1.026   5.891   1.781
14001TIP3    H241949   1.112   5.770   1.811
14002TIP3   OH241950   0.925   2.311   3.225
14002TIP3    H141951   0.922   2.215   3.228
14002TIP3    H241952   0.941   2.337   3.315
14003TIP3   OH241953   1.487   1.810   4.247
14003TIP3    H141954   1.527   1.818   4.333
14003TIP3    H241955   1.513   1.723   4.217
14004TIP3   OH241956   6.475   6.593   4.100
14004TIP3    H141957   6.555   6.575   4.049
14004TIP3    H241958   6.475   6.526   4.168
14005TIP3   OH241959   7.301   2.098   0.552
14005TIP3    H141960   7.252   2.019   0.531
14005TIP3    H241961   7.258   2.167   0.502
14006TIP3   OH241962   1.563   1.258   4.403
14006TIP3    H141963   1.643   1.300   4.434
14006TIP3    H241964   1.556   1.179   4.456
14007TIP3   OH241965   3.965   6.164   4.170
14007TIP3    H141966   4.007   6.166   4.083
14007TIP3    H241967   3.876   6.135   4.153
14008TIP3   OH241968   1.560   5.785   5.690
14008TIP3    H141969   1.492   5.826   5.743
14008TIP3    H241970   1.577   5.848   5.620
14009TIP3   OH241971   6.088   3.479   0.942
14009TIP3    H141972   6.013   3.508   0.890
14009TIP3    H241973   6.161   3.478   0.881
14010TIP3   OH241974   7.629   5.169   6.315
14010TIP3    H141975   7.612   5.134   6.402
14010TIP3    H241976   7.575   5.248   6.310
14011TIP3   OH241977   4.977   2.131   4.458
14011TIP3    H141978   5.028   2.212   4.462
14011TIP3    H241979   4.995   2.095   4.372
14012TIP3   OH241980   0.470   3.434   5.694
14012TIP3    H141981   0.554   3.426   5.649
14012TIP3    H241982   0.412   3.373   5.648
14013TIP3   OH241983   1.378   5.273   4.421
14013TIP3    H141984   1.438   5.342   4.391
14013TIP3    H241985   1.436   5.201   4.446
14014TIP3   OH241986   1.187   7.436   1.911
14014TIP3    H141987   1.239   7.355   1.907
14014TIP3    H241988   1.252   7.505   1.926
14015TIP3   OH241989   1.090   2.164   5.151
14015TIP3    H141990   1.066   2.255   5.165
14015TIP3    H241991   1.019   2.113   5.190
14016TIP3   OH241992   4.905   4.473   5.859
14016TIP3    H141993   4.864   4.415   5.795
14016TIP3    H241994   4.849   4.468   5.936
14017TIP3   OH241995   2.017   6.597   5.144
14017TIP3    H141996   2.094   6.619   5.196
14017TIP3    H241997   1.980   6.519   5.186
14018TIP3   OH241998   5.012   3.493   2.718
14018TIP3    H141999   4.924   3.465   2.742
14018TIP3    H242000   5.068   3.418   2.736
14019TIP3   OH242001   5.037   4.615   2.318
14019TIP3    H142002   5.019   4.696   2.366
14019TIP3    H242003   5.132   4.606   2.321
14020TIP3   OH242004   6.641   7.185   4.777
14020TIP3    H142005   6.627   7.279   4.762
14020TIP3    H242006   6.716   7.182   4.836
14021TIP3   OH242007   4.759   2.083   2.263
14021TIP3    H142008   4.741   2.159   2.209
14021TIP3    H242009   4.679   2.069   2.313
14022TIP3   OH242010   0.757   4.289   6.429
14022TIP3    H142011   0.767   4.244   6.346
14022TIP3    H242012   0.663   4.305   6.437
14023TIP3   OH242013   5.190   0.586   5.049
14023TIP3    H142014   5.112   0.641   5.055
14023TIP3    H242015   5.249   0.621   5.116
14024TIP3   OH242016   5.409   1.831   1.194
14024TIP3    H142017   5.340   1.770   1.222
14024TIP3    H242018   5.361   1.902   1.150
14025TIP3   OH242019   6.654   3.589   0.168
14025TIP3    H142020   6.642   3.673   0.123
14025TIP3    H242021   6.565   3.556   0.181
14026TIP3   OH242022   0.361   4.886   5.864
14026TIP3    H142023   0.378   4.792   5.856
14026TIP3    H242024   0.427   4.927   5.809
14027TIP3   OH242025   3.697   7.537   4.126
14027TIP3    H142026   3.691   7.447   4.095
14027TIP3    H242027   3.657   7.589   4.056
14028TIP3   OH242028   4.617   0.917   3.524
14028TIP3    H142029   4.524   0.913   3.503
14028TIP3    H242030   4.624   0.984   3.592
14029TIP3   OH242031   4.472   4.195   0.514
14029TIP3    H142032   4.500   4.268   0.569
14029TIP3    H242033   4.429   4.236   0.439
14030TIP3   OH242034   7.952   5.334   3.737
14030TIP3    H142035   7.974   5.374   3.821
14030TIP3    H242036   8.005   5.255   3.734
14031TIP3   OH242037   6.635   5.135   1.269
14031TIP3    H142038   6.611   5.135   1.176
14031TIP3    H242039   6.638   5.042   1.292
14032TIP3   OH242040   5.359   5.150   0.996
14032TIP3    H142041   5.341   5.235   0.955
14032TIP3    H242042   5.447   5.160   1.032
14033TIP3   OH242043   3.456   7.761   1.886
14033TIP3    H142044   3.401   7.797   1.816
14033TIP3    H242045   3.524   7.827   1.899
14034TIP3   OH242046   6.200   6.856   0.476
14034TIP3    H142047   6.198   6.951   0.467
14034TIP3    H242048   6.288   6.836   0.507
14035TIP3   OH242049   2.664   7.532   4.644
14035TIP3    H142050   2.647   7.626   4.649
14035TIP3    H242051   2.602   7.501   4.577
14036TIP3   OH242052   0.269   4.976   2.023
14036TIP3    H142053   0.339   5.000   1.962
14036TIP3    H242054   0.249   4.885   2.001
14037TIP3   OH242055   6.707   6.010   3.642
14037TIP3    H142056   6.619   5.988   3.611
14037TIP3    H242057   6.751   6.047   3.566
14038TIP3   OH242058   6.977   3.300   2.624
14038TIP3    H142059   6.902   3.314   2.566
14038TIP3    H242060   7.042   3.364   2.596
14039TIP3   OH242061   1.318   0.321   2.480
14039TIP3    H142062   1.410   0.304   2.499
14039TIP3    H242063   1.320   0.376   2.401
14040TIP3   OH242064   6.350   2.616   6.787
14040TIP3    H142065   6.291   2.543   6.766
14040TIP3    H242066   6.356   2.666   6.706
14041TIP3   OH242067   2.041   6.139   1.684
14041TIP3    H142068   2.035   6.172   1.774
14041TIP3    H242069   1.952   6.147   1.650
14042TIP3   OH242070   4.640   7.321   2.605
14042TIP3    H142071   4.699   7.338   2.679
14042TIP3    H242072   4.585   7.399   2.600
14043TIP3   OH242073   8.037   1.515   3.255
14043TIP3    H142074   7.973   1.463   3.205
14043TIP3    H242075   8.007   1.605   3.247
14044TIP3   OH242076   1.838   6.187   1.482
14044TIP3    H142077   1.838   6.282   1.486
14044TIP3    H242078   1.769   6.165   1.419
14045TIP3   OH242079   7.673   1.965   6.662
14045TIP3    H142080   7.756   1.990   6.702
14045TIP3    H242081   7.665   2.021   6.586
14046TIP3   OH242082   6.603   5.333   3.774
14046TIP3    H142083   6.587   5.388   3.698
14046TIP3    H242084   6.630   5.395   3.843
14047TIP3   OH242085   4.126   1.585   3.777
14047TIP3    H142086   4.191   1.571   3.846
14047TIP3    H242087   4.044   1.600   3.824
14048TIP3   OH242088   4.174   7.196   3.196
14048TIP3    H142089   4.153   7.194   3.103
14048TIP3    H242090   4.203   7.106   3.216
14049TIP3   OH242091   5.842   0.106   6.511
14049TIP3    H142092   5.849   0.200   6.528
14049TIP3    H242093   5.851   0.099   6.416
14050TIP3   OH242094   5.084   5.587   2.842
14050TIP3    H142095   5.163   5.635   2.868
14050TIP3    H242096   5.042   5.643   2.777
14051TIP3   OH242097   4.058   1.044   3.628
14051TIP3    H142098   3.983   1.032   3.686
14051TIP3    H242099   4.086   1.135   3.644
14052TIP3   OH242100   6.603   5.524   1.909
14052TIP3    H142101   6.598   5.467   1.986
14052TIP3    H242102   6.551   5.480   1.843
14053TIP3   OH242103   0.934   4.508   6.392
14053TIP3    H142104   0.985   4.503   6.311
14053TIP3    H242105   0.881   4.429   6.392
14054TIP3   OH242106   7.605   1.561   2.920
14054TIP3    H142107   7.511   1.579   2.913
14054TIP3    H242108   7.610   1.475   2.962
14055TIP3   OH242109   6.272   6.691   2.920
14055TIP3    H142110   6.363   6.660   2.915
14055TIP3    H242111   6.257   6.703   3.014
14056TIP3   OH242112   0.239   6.468   4.016
14056TIP3    H142113   0.217   6.410   3.943
14056TIP3    H242114   0.280   6.410   4.080
14057TIP3   OH242115   4.324   0.500   6.266
14057TIP3    H142116   4.321   0.477   6.173
14057TIP3    H242117   4.249   0.558   6.279
14058TIP3   OH242118   3.666   3.112   3.868
14058TIP3    H142119   3.610   3.106   3.945
14058TIP3    H242120   3.747   3.151   3.900
14059TIP3   OH242121   7.191   3.190   6.126
14059TIP3    H142122   7.153   3.277   6.115
14059TIP3    H242123   7.237   3.194   6.210
14060TIP3   OH242124   1.157   4.991   2.873
14060TIP3    H142125   1.078   5.014   2.824
14060TIP3    H242126   1.137   5.017   2.963
14061TIP3   OH242127   1.168   0.484   0.667
14061TIP3    H142128   1.214   0.564   0.642
14061TIP3    H242129   1.132   0.450   0.585
14062TIP3   OH242130   3.033   2.084   3.466
14062TIP3    H142131   2.958   2.143   3.475
14062TIP3    H242132   3.068   2.076   3.555
14063TIP3   OH242133   5.799   7.076   3.282
14063TIP3    H142134   5.844   7.040   3.206
14063TIP3    H242135   5.713   7.102   3.249
14064TIP3   OH242136   7.592   5.495   6.066
14064TIP3    H142137   7.513   5.492   6.011
14064TIP3    H242138   7.663   5.466   6.008
14065TIP3   OH242139   6.256   2.479   0.307
14065TIP3    H142140   6.270   2.546   0.240
14065TIP3    H242141   6.251   2.397   0.257
14066TIP3   OH242142   4.979   0.761   5.329
14066TIP3    H142143   4.976   0.808   5.412
14066TIP3    H242144   5.008   0.673   5.351
14067TIP3   OH242145   6.367   0.789   1.092
14067TIP3    H142146   6.299   0.754   1.034
14067TIP3    H242147   6.427   0.716   1.106
14068TIP3   OH242148   2.167   5.536   3.744
14068TIP3    H142149   2.109   5.556   3.818
14068TIP3    H242150   2.126   5.581   3.669
14069TIP3   OH242151   5.508   6.203   0.869
14069TIP3    H142152   5.570   6.229   0.801
14069TIP3    H242153   5.451   6.279   0.879
14070TIP3   OH242154   3.739   3.312   6.518
14070TIP3    H142155   3.817   3.258   6.506
14070TIP3    H242156   3.686   3.295   6.441
14071TIP3   OH242157   1.412   7.035   4.644
14071TIP3    H142158   1.382   7.118   4.605
14071TIP3    H242159   1.365   7.029   4.727
14072TIP3   OH242160   4.881   1.067   5.388
14072TIP3    H142161   4.966   1.053   5.430
14072TIP3    H242162   4.903   1.101   5.301
14073TIP3   OH242163   2.084   2.843   0.251
14073TIP3    H142164   2.019   2.837   0.321
14073TIP3    H242165   2.124   2.930   0.263
14074TIP3   OH242166   2.199   2.886   0.968
14074TIP3    H142167   2.280   2.840   0.946
14074TIP3    H242168   2.219   2.978   0.952
14075TIP3   OH242169   5.330   5.489   5.607
14075TIP3    H142170   5.352   5.451   5.522
14075TIP3    H242171   5.399   5.458   5.666
14076TIP3   OH242172   4.825   1.402   3.565
14076TIP3    H142173   4.763   1.456   3.615
14076TIP3    H242174   4.848   1.456   3.489
14077TIP3   OH242175   1.543   5.816   4.200
14077TIP3    H142176   1.594   5.773   4.131
14077TIP3    H242177   1.456   5.828   4.160
14078TIP3   OH242178   2.013   5.747   1.855
14078TIP3    H142179   2.068   5.735   1.778
14078TIP3    H242180   1.996   5.658   1.886
14079TIP3   OH242181   4.757   4.142   5.403
14079TIP3    H142182   4.667   4.115   5.422
14079TIP3    H242183   4.784   4.088   5.329
14080TIP3   OH242184   5.655   1.946   4.871
14080TIP3    H142185   5.563   1.954   4.846
14080TIP3    H242186   5.676   2.030   4.911
14081TIP3   OH242187   3.744   5.950   2.734
14081TIP3    H142188   3.784   5.877   2.781
14081TIP3    H242189   3.763   5.931   2.642
14082TIP3   OH242190   6.844   3.430   1.790
14082TIP3    H142191   6.881   3.428   1.702
14082TIP3    H242192   6.856   3.520   1.820
14083TIP3   OH242193   8.199   3.543   5.220
14083TIP3    H142194   8.152   3.590   5.152
14083TIP3    H242195   8.292   3.555   5.199
14084TIP3   OH242196   1.476   0.257   6.111
14084TIP3    H142197   1.416   0.258   6.036
14084TIP3    H242198   1.445   0.186   6.167
14085TIP3   OH242199   2.230   4.639   5.239
14085TIP3    H142200   2.149   4.590   5.247
14085TIP3    H242201   2.209   4.727   5.272
14086TIP3   OH242202   4.416   1.161   5.902
14086TIP3    H142203   4.360   1.143   5.977
14086TIP3    H242204   4.356   1.182   5.831
14087TIP3   OH242205   2.452   3.668   6.613
14087TIP3    H142206   2.545   3.645   6.614
14087TIP3    H242207   2.421   3.633   6.529
14088TIP3   OH242208   6.801   2.436   6.168
14088TIP3    H142209   6.806   2.435   6.264
14088TIP3    H242210   6.876   2.382   6.140
14089TIP3   OH242211   4.990   2.991   1.929
14089TIP3    H142212   5.045   3.017   2.002
14089TIP3    H242213   4.963   3.073   1.888
14090TIP3   OH242214   0.682   4.786   0.135
14090TIP3    H142215   0.692   4.693   0.115
14090TIP3    H242216   0.730   4.831   0.066
14091TIP3   OH242217   6.825   3.219   3.092
14091TIP3    H142218   6.905   3.261   3.126
14091TIP3    H242219   6.846   3.126   3.089
14092TIP3   OH242220   4.619   6.386   3.305
14092TIP3    H142221   4.631   6.425   3.391
14092TIP3    H242222   4.551   6.319   3.319
14093TIP3   OH242223   6.555   4.129   3.719
14093TIP3    H142224   6.633   4.073   3.716
14093TIP3    H242225   6.550   4.169   3.632
14094TIP3   OH242226   5.865   0.808   5.260
14094TIP3    H142227   5.841   0.794   5.168
14094TIP3    H242228   5.945   0.757   5.272
14095TIP3   OH242229   4.709   4.245   4.528
14095TIP3    H142230   4.632   4.232   4.473
14095TIP3    H242231   4.686   4.205   4.612
14096TIP3   OH242232   1.736   0.473   4.171
14096TIP3    H142233   1.686   0.553   4.151
14096TIP3    H242234   1.710   0.451   4.260
14097TIP3   OH242235   1.751   3.225   6.166
14097TIP3    H142236   1.805   3.159   6.209
14097TIP3    H242237   1.730   3.287   6.235
14098TIP3   OH242238   7.589   4.742   1.737
14098TIP3    H142239   7.669   4.794   1.742
14098TIP3    H242240   7.610   4.671   1.676
14099TIP3   OH242241   4.731   0.215   1.044
14099TIP3    H142242   4.722   0.125   1.012
14099TIP3    H242243   4.801   0.252   0.991
14100TIP3   OH242244   0.242   1.617   4.988
14100TIP3    H142245   0.249   1.668   4.908
14100TIP3    H242246   0.225   1.682   5.057
14101TIP3   OH242247   8.233   5.425   6.688
14101TIP3    H142248   8.283   5.390   6.615
14101TIP3    H242249   8.171   5.355   6.711
14102TIP3   OH242250   6.193   2.995   0.598
14102TIP3    H142251   6.172   3.087   0.612
14102TIP3    H242252   6.148   2.949   0.669
14103TIP3   OH242253   5.341   0.056   4.404
14103TIP3    H142254   5.377   0.137   4.366
14103TIP3    H242255   5.412  -0.008   4.393
14104TIP3   OH242256   8.140   1.916   2.602
14104TIP3    H142257   8.087   1.871   2.536
14104TIP3    H242258   8.133   2.009   2.580
14105TIP3   OH242259   1.080   2.996   1.195
14105TIP3    H142260   1.136   3.050   1.139
14105TIP3    H242261   1.053   3.055   1.266
14106TIP3   OH242262   7.629   6.837   4.974
14106TIP3    H142263   7.665   6.858   5.060
14106TIP3    H242264   7.682   6.889   4.913
14107TIP3   OH242265   7.150   4.133   0.357
14107TIP3    H142266   7.207   4.141   0.280
14107TIP3    H242267   7.063   4.160   0.326
14108TIP3   OH242268   6.663   1.263   3.876
14108TIP3    H142269   6.721   1.229   3.944
14108TIP3    H242270   6.604   1.323   3.922
14109TIP3   OH242271   5.355   4.533   5.314
14109TIP3    H142272   5.443   4.568   5.303
14109TIP3    H242273   5.345   4.521   5.409
14110TIP3   OH242274   4.347   3.856   2.365
14110TIP3    H142275   4.403   3.822   2.295
14110TIP3    H242276   4.286   3.784   2.383
14111TIP3   OH242277   3.290   3.165   1.184
14111TIP3    H142278   3.289   3.106   1.108
14111TIP3    H242279   3.234   3.121   1.248
14112TIP3   OH242280   6.024   1.907   6.184
14112TIP3    H142281   6.018   1.820   6.146
14112TIP3    H242282   6.029   1.966   6.108
14113TIP3   OH242283   6.301   7.039   0.261
14113TIP3    H142284   6.358   7.061   0.334
14113TIP3    H242285   6.240   7.113   0.254
14114TIP3   OH242286   4.669   1.713   5.154
14114TIP3    H142287   4.655   1.782   5.089
14114TIP3    H242288   4.718   1.646   5.106
14115TIP3   OH242289   2.599   1.120   3.684
14115TIP3    H142290   2.557   1.073   3.611
14115TIP3    H242291   2.550   1.201   3.692
14116TIP3   OH242292   6.877   2.304   2.896
14116TIP3    H142293   6.924   2.221   2.895
14116TIP3    H242294   6.945   2.370   2.882
14117TIP3   OH242295   0.140   2.540   2.658
14117TIP3    H142296   0.081   2.585   2.597
14117TIP3    H242297   0.115   2.447   2.651
14118TIP3   OH242298   2.676   7.137   2.829
14118TIP3    H142299   2.649   7.065   2.886
14118TIP3    H242300   2.596   7.188   2.816
14119TIP3   OH242301   1.376   3.014   2.280
14119TIP3    H142302   1.376   2.979   2.369
14119TIP3    H242303   1.313   3.086   2.283
14120TIP3   OH242304   3.036   6.867   1.037
14120TIP3    H142305   2.986   6.869   1.119
14120TIP3    H242306   3.011   6.784   0.996
14121TIP3   OH242307   3.136   3.319   4.133
14121TIP3    H142308   3.118   3.263   4.058
14121TIP3    H242309   3.224   3.352   4.118
14122TIP3   OH242310   0.835   6.739   4.878
14122TIP3    H142311   0.812   6.782   4.960
14122TIP3    H242312   0.784   6.785   4.811
14123TIP3   OH242313   2.084   1.609   3.330
14123TIP3    H142314   2.157   1.604   3.268
14123TIP3    H242315   2.087   1.526   3.378
14124TIP3   OH242316   7.165   7.418   0.250
14124TIP3    H142317   7.226   7.366   0.303
14124TIP3    H242318   7.118   7.353   0.198
14125TIP3   OH242319   2.096   1.843   0.762
14125TIP3    H142320   2.140   1.927   0.753
14125TIP3    H242321   2.040   1.853   0.839
14126TIP3   OH242322   0.483   0.257   3.812
14126TIP3    H142323   0.496   0.321   3.742
14126TIP3    H242324   0.561   0.266   3.867
14127TIP3   OH242325   6.403   3.057   4.620
14127TIP3    H142326   6.472   3.123   4.608
14127TIP3    H242327   6.406   3.038   4.714
14128TIP3   OH242328   4.756   7.645   1.744
14128TIP3    H142329   4.825   7.641   1.810
14128TIP3    H242330   4.676   7.663   1.795
14129TIP3   OH242331   4.617   0.596   6.124
14129TIP3    H142332   4.600   0.642   6.041
14129TIP3    H242333   4.544   0.623   6.180
14130TIP3   OH242334   3.979   7.083   4.080
14130TIP3    H142335   4.072   7.098   4.062
14130TIP3    H242336   3.976   7.065   4.174
14131TIP3   OH242337   3.829   6.277   6.302
14131TIP3    H142338   3.901   6.238   6.254
14131TIP3    H242339   3.849   6.258   6.394
14132TIP3   OH242340   1.506   6.856   5.672
14132TIP3    H142341   1.552   6.915   5.613
14132TIP3    H242342   1.414   6.865   5.649
14133TIP3   OH242343   2.949   4.174   2.809
14133TIP3    H142344   2.854   4.173   2.811
14133TIP3    H242345   2.972   4.150   2.719
14134TIP3   OH242346   6.070   5.819   6.244
14134TIP3    H142347   5.984   5.830   6.203
14134TIP3    H242348   6.132   5.847   6.177
14135TIP3   OH242349   2.390   0.895   6.146
14135TIP3    H142350   2.306   0.917   6.106
14135TIP3    H242351   2.431   0.834   6.085
14136TIP3   OH242352   6.579   6.897   2.945
14136TIP3    H142353   6.571   6.929   3.034
14136TIP3    H242354   6.559   6.803   2.951
14137TIP3   OH242355   5.109   5.053   1.024
14137TIP3    H142356   5.195   5.095   1.021
14137TIP3    H242357   5.098   5.016   0.936
14138TIP3   OH242358   1.842   5.607   6.432
14138TIP3    H142359   1.860   5.523   6.390
14138TIP3    H242360   1.806   5.661   6.362
14139TIP3   OH242361   2.504   3.465   1.164
14139TIP3    H142362   2.537   3.484   1.076
14139TIP3    H242363   2.582   3.464   1.219
14140TIP3   OH242364   4.903   5.014   6.501
14140TIP3    H142365   4.943   5.100   6.514
14140TIP3    H242366   4.919   4.994   6.409
14141TIP3   OH242367   2.788   5.926   6.020
14141TIP3    H142368   2.742   5.843   6.008
14141TIP3    H242369   2.717   5.991   6.027
14142TIP3   OH242370   5.350   6.104   3.422
14142TIP3    H142371   5.419   6.161   3.386
14142TIP3    H242372   5.334   6.138   3.510
14143TIP3   OH242373   0.589   1.237   2.740
14143TIP3    H142374   0.551   1.167   2.792
14143TIP3    H242375   0.675   1.252   2.778
14144TIP3   OH242376   2.595   0.578   3.857
14144TIP3    H142377   2.682   0.613   3.839
14144TIP3    H242378   2.582   0.592   3.950
14145TIP3   OH242379   6.702   7.114   3.159
14145TIP3    H142380   6.608   7.127   3.142
14145TIP3    H242381   6.705   7.042   3.221
14146TIP3   OH242382   6.275   1.549   1.319
14146TIP3    H142383   6.312   1.572   1.234
14146TIP3    H242384   6.197   1.603   1.327
14147TIP3   OH242385   5.465   0.214   5.860
14147TIP3    H142386   5.501   0.293   5.820
14147TIP3    H242387   5.499   0.142   5.806
14148TIP3   OH242388   4.326   7.441   5.168
14148TIP3    H142389   4.277   7.407   5.243
14148TIP3    H242390   4.258   7.464   5.104
14149TIP3   OH242391   1.028   1.306   0.049
14149TIP3    H142392   1.040   1.216   0.078
14149TIP3    H242393   0.967   1.300  -0.024
14150TIP3   OH242394   6.523   3.017   5.132
14150TIP3    H142395   6.497   3.021   5.040
14150TIP3    H242396   6.445   2.987   5.179
14151TIP3   OH242397   2.077   4.976   3.197
14151TIP3    H142398   2.005   4.913   3.187
14151TIP3    H242399   2.113   4.984   3.108
14152TIP3   OH242400   7.752   5.799   6.227
14152TIP3    H142401   7.788   5.713   6.246
14152TIP3    H242402   7.772   5.851   6.306
14153TIP3   OH242403   0.361   0.142   6.462
14153TIP3    H142404   0.429   0.078   6.439
14153TIP3    H242405   0.369   0.152   6.557
14154TIP3   OH242406   3.602   6.257   2.915
14154TIP3    H142407   3.677   6.211   2.877
14154TIP3    H242408   3.563   6.194   2.975
14155TIP3   OH242409   8.082   7.288   6.064
14155TIP3    H142410   8.082   7.331   5.979
14155TIP3    H242411   8.116   7.353   6.125
14156TIP3   OH242412   4.394   0.345   0.494
14156TIP3    H142413   4.401   0.250   0.487
14156TIP3    H242414   4.465   0.371   0.554
14157TIP3   OH242415   1.601   1.194   5.824
14157TIP3    H142416   1.566   1.119   5.872
14157TIP3    H242417   1.572   1.180   5.734
14158TIP3   OH242418   7.038   1.042   1.274
14158TIP3    H142419   7.066   0.954   1.300
14158TIP3    H242420   7.031   1.091   1.356
14159TIP3   OH242421   0.285   0.411   2.844
14159TIP3    H142422   0.343   0.347   2.886
14159TIP3    H242423   0.318   0.496   2.873
14160TIP3   OH242424   5.633   2.621   0.797
14160TIP3    H142425   5.591   2.545   0.838
14160TIP3    H242426   5.663   2.588   0.712
14161TIP3   OH242427   1.835   1.178   6.345
14161TIP3    H142428   1.768   1.122   6.385
14161TIP3    H242429   1.856   1.136   6.262
14162TIP3   OH242430   4.803   5.488   3.872
14162TIP3    H142431   4.843   5.454   3.952
14162TIP3    H242432   4.716   5.450   3.870
14163TIP3   OH242433   4.506   2.152   5.445
14163TIP3    H142434   4.528   2.059   5.449
14163TIP3    H242435   4.590   2.197   5.454
14164TIP3   OH242436   7.758   6.376   1.224
14164TIP3    H142437   7.779   6.299   1.277
14164TIP3    H242438   7.680   6.413   1.265
14165TIP3   OH242439   3.412   2.583   3.355
14165TIP3    H142440   3.480   2.572   3.422
14165TIP3    H242441   3.354   2.650   3.392
14166TIP3   OH242442   2.462   6.400   2.700
14166TIP3    H142443   2.404   6.453   2.755
14166TIP3    H242444   2.435   6.419   2.611
14167TIP3   OH242445   6.886   1.788   0.883
14167TIP3    H142446   6.845   1.749   0.806
14167TIP3    H242447   6.845   1.875   0.890
14168TIP3   OH242448   7.630   3.733   4.216
14168TIP3    H142449   7.665   3.821   4.202
14168TIP3    H242450   7.657   3.684   4.139
14169TIP3   OH242451   6.473   6.296   5.394
14169TIP3    H142452   6.468   6.289   5.489
14169TIP3    H242453   6.486   6.206   5.364
14170TIP3   OH242454   1.510   7.532   0.814
14170TIP3    H142455   1.466   7.587   0.750
14170TIP3    H242456   1.598   7.519   0.779
14171TIP3   OH242457   5.490   6.626   6.005
14171TIP3    H142458   5.473   6.594   5.916
14171TIP3    H242459   5.531   6.552   6.049
14172TIP3   OH242460   6.238   6.023   6.474
14172TIP3    H142461   6.251   5.990   6.385
14172TIP3    H242462   6.244   5.945   6.530
14173TIP3   OH242463   6.372   5.497   3.370
14173TIP3    H142464   6.368   5.448   3.288
14173TIP3    H242465   6.340   5.585   3.347
14174TIP3   OH242466   2.604   5.659   0.011
14174TIP3    H142467   2.681   5.714   0.023
14174TIP3    H242468   2.637   5.570   0.020
14175TIP3   OH242469   3.233   5.563   3.068
14175TIP3    H142470   3.254   5.590   3.157
14175TIP3    H242471   3.262   5.636   3.013
14176TIP3   OH242472   6.356   1.686   4.301
14176TIP3    H142473   6.344   1.779   4.280
14176TIP3    H242474   6.427   1.686   4.366
14177TIP3   OH242475   4.744   5.765   2.552
14177TIP3    H142476   4.722   5.675   2.531
14177TIP3    H242477   4.660   5.810   2.559
14178TIP3   OH242478   3.993   3.563   3.145
14178TIP3    H142479   4.029   3.598   3.064
14178TIP3    H242480   4.043   3.606   3.214
14179TIP3   OH242481   3.119   3.246   3.570
14179TIP3    H142482   3.160   3.162   3.550
14179TIP3    H242483   3.138   3.261   3.662
14180TIP3   OH242484   0.567   4.497   1.543
14180TIP3    H142485   0.501   4.551   1.586
14180TIP3    H242486   0.636   4.558   1.518
14181TIP3   OH242487   6.573   5.929   2.733
14181TIP3    H142488   6.599   5.857   2.789
14181TIP3    H242489   6.634   5.926   2.659
14182TIP3   OH242490   1.422   0.963   1.947
14182TIP3    H142491   1.415   0.994   2.037
14182TIP3    H242492   1.506   0.997   1.916
14183TIP3   OH242493   7.182   5.449   4.865
14183TIP3    H142494   7.226   5.483   4.787
14183TIP3    H242495   7.197   5.355   4.862
14184TIP3   OH242496   0.350   5.596   6.675
14184TIP3    H142497   0.294   5.530   6.636
14184TIP3    H242498   0.428   5.597   6.620
14185TIP3   OH242499   0.515   4.351   0.779
14185TIP3    H142500   0.486   4.290   0.711
14185TIP3    H242501   0.437   4.405   0.796
14186TIP3   OH242502   2.364   3.080   0.690
14186TIP3    H142503   2.297   3.106   0.754
14186TIP3    H242504   2.327   3.105   0.606
14187TIP3   OH242505   1.786   3.659   6.618
14187TIP3    H142506   1.790   3.583   6.676
14187TIP3    H242507   1.840   3.634   6.543
14188TIP3   OH242508   4.344   3.913   1.003
14188TIP3    H142509   4.419   3.964   1.033
14188TIP3    H242510   4.277   3.928   1.069
14189TIP3   OH242511   0.970   2.990   4.610
14189TIP3    H142512   0.938   2.908   4.647
14189TIP3    H242513   1.043   2.965   4.554
14190TIP3   OH242514   7.004   4.253   0.787
14190TIP3    H142515   7.068   4.322   0.806
14190TIP3    H242516   7.050   4.193   0.729
14191TIP3   OH242517   2.786   1.315   5.370
14191TIP3    H142518   2.743   1.373   5.433
14191TIP3    H242519   2.878   1.340   5.373
14192TIP3   OH242520   0.292   0.238   0.755
14192TIP3    H142521   0.203   0.201   0.757
14192TIP3    H242522   0.282   0.325   0.792
14193TIP3   OH242523   4.745   5.400   5.244
14193TIP3    H142524   4.838   5.388   5.262
14193TIP3    H242525   4.741   5.413   5.149
14194TIP3   OH242526   2.870   6.775   3.787
14194TIP3    H142527   2.907   6.794   3.701
14194TIP3    H242528   2.944   6.741   3.838
14195TIP3   OH242529   1.298   2.297   0.071
14195TIP3    H142530   1.322   2.208   0.044
14195TIP3    H242531   1.351   2.354   0.015
14196TIP3   OH242532   6.322   0.154   3.372
14196TIP3    H142533   6.382   0.199   3.432
14196TIP3    H242534   6.379   0.097   3.320
14197TIP3   OH242535   5.944   4.550   2.490
14197TIP3    H142536   5.858   4.510   2.502
14197TIP3    H242537   5.960   4.598   2.572
14198TIP3   OH242538   3.747   3.119   0.608
14198TIP3    H142539   3.842   3.111   0.608
14198TIP3    H242540   3.729   3.191   0.669
14199TIP3   OH242541   4.985   1.446   1.553
14199TIP3    H142542   5.000   1.407   1.639
14199TIP3    H242543   5.059   1.504   1.539
14200TIP3   OH242544   4.465   1.770   3.396
14200TIP3    H142545   4.442   1.698   3.338
14200TIP3    H242546   4.556   1.792   3.373
14201TIP3   OH242547   1.918   5.373   6.289
14201TIP3    H142548   2.012   5.361   6.294
14201TIP3    H242549   1.893   5.334   6.205
14202TIP3   OH242550   1.895   3.628   5.911
14202TIP3    H142551   1.964   3.679   5.953
14202TIP3    H242552   1.936   3.591   5.833
14203TIP3   OH242553   2.798   0.745   5.092
14203TIP3    H142554   2.727   0.703   5.043
14203TIP3    H242555   2.798   0.835   5.062
14204TIP3   OH242556   7.548   1.967   5.562
14204TIP3    H142557   7.501   1.969   5.478
14204TIP3    H242558   7.498   1.908   5.617
14205TIP3   OH242559   2.623   4.519   0.437
14205TIP3    H142560   2.700   4.561   0.473
14205TIP3    H242561   2.585   4.470   0.510
14206TIP3   OH242562   8.186   4.623   0.187
14206TIP3    H142563   8.267   4.663   0.155
14206TIP3    H242564   8.154   4.684   0.254
14207TIP3   OH242565   7.527   1.217   5.069
14207TIP3    H142566   7.468   1.196   5.141
14207TIP3    H242567   7.577   1.293   5.100
14208TIP3   OH242568   3.246   1.194   6.769
14208TIP3    H142569   3.183   1.140   6.722
14208TIP3    H242570   3.265   1.267   6.710
14209TIP3   OH242571   1.602   5.729   6.262
14209TIP3    H142572   1.548   5.683   6.327
14209TIP3    H242573   1.632   5.808   6.307
14210TIP3   OH242574   5.693   6.332   2.261
14210TIP3    H142575   5.757   6.396   2.230
14210TIP3    H242576   5.745   6.269   2.311
14211TIP3   OH242577   3.804   5.392   3.776
14211TIP3    H142578   3.879   5.438   3.739
14211TIP3    H242579   3.801   5.309   3.728
14212TIP3   OH242580   0.231   6.326   5.036
14212TIP3    H142581   0.165   6.396   5.034
14212TIP3    H242582   0.247   6.311   5.129
14213TIP3   OH242583   4.315   7.498   4.133
14213TIP3    H142584   4.348   7.408   4.136
14213TIP3    H242585   4.368   7.545   4.197
14214TIP3   OH242586   1.520   4.321   1.191
14214TIP3    H142587   1.481   4.287   1.111
14214TIP3    H242588   1.615   4.320   1.174
14215TIP3   OH242589   7.523   4.751   5.241
14215TIP3    H142590   7.539   4.799   5.322
14215TIP3    H242591   7.532   4.659   5.265
14216TIP3   OH242592   4.368   1.357   1.577
14216TIP3    H142593   4.395   1.444   1.547
14216TIP3    H242594   4.320   1.319   1.503
14217TIP3   OH242595   1.108   7.411   1.307
14217TIP3    H142596   1.147   7.441   1.225
14217TIP3    H242597   1.038   7.474   1.324
14218TIP3   OH242598   0.801   5.354   3.659
14218TIP3    H142599   0.837   5.357   3.570
14218TIP3    H242600   0.821   5.441   3.695
14219TIP3   OH242601   6.520   2.188   6.438
14219TIP3    H142602   6.495   2.235   6.518
14219TIP3    H242603   6.573   2.115   6.469
14220TIP3   OH242604   5.340   0.419   3.314
14220TIP3    H142605   5.390   0.342   3.286
14220TIP3    H242606   5.374   0.439   3.401
14221TIP3   OH242607   1.900   0.938   2.007
14221TIP3    H142608   1.906   1.019   2.057
14221TIP3    H242609   1.830   0.888   2.050
14222TIP3   OH242610   7.494   0.585   5.001
14222TIP3    H142611   7.486   0.638   4.922
14222TIP3    H242612   7.436   0.511   4.987
14223TIP3   OH242613   2.107   7.365   3.241
14223TIP3    H142614   2.090   7.406   3.325
14223TIP3    H242615   2.090   7.434   3.176
14224TIP3   OH242616   2.955   4.931   0.778
14224TIP3    H142617   3.011   4.945   0.854
14224TIP3    H242618   2.917   4.844   0.790
14225TIP3   OH242619   6.982   3.201   0.783
14225TIP3    H142620   7.048   3.194   0.714
14225TIP3    H242621   6.993   3.289   0.819
14226TIP3   OH242622   6.601   0.718   2.759
14226TIP3    H142623   6.693   0.729   2.736
14226TIP3    H242624   6.602   0.670   2.842
14227TIP3   OH242625   4.715   0.139   3.244
14227TIP3    H142626   4.662   0.191   3.304
14227TIP3    H242627   4.775   0.090   3.300
14228TIP3   OH242628   4.225   6.153   5.767
14228TIP3    H142629   4.238   6.069   5.810
14228TIP3    H242630   4.305   6.166   5.715
14229TIP3   OH242631   6.011   6.478   0.597
14229TIP3    H142632   5.948   6.453   0.530
14229TIP3    H242633   5.976   6.560   0.633
14230TIP3   OH242634   6.560   2.069   5.184
14230TIP3    H142635   6.631   2.130   5.203
14230TIP3    H242636   6.594   1.983   5.211
14231TIP3   OH242637   7.470   0.242   6.494
14231TIP3    H142638   7.462   0.153   6.530
14231TIP3    H242639   7.407   0.294   6.544
14232TIP3   OH242640   4.964   0.971   1.687
14232TIP3    H142641   4.900   0.993   1.754
14232TIP3    H242642   5.045   1.013   1.715
14233TIP3   OH242643   0.377   6.853   1.816
14233TIP3    H142644   0.299   6.866   1.871
14233TIP3    H242645   0.421   6.938   1.817
14234TIP3   OH242646   6.853   0.180   4.393
14234TIP3    H142647   6.810   0.265   4.395
14234TIP3    H242648   6.915   0.186   4.320
14235TIP3   OH242649   2.493   2.667   3.559
14235TIP3    H142650   2.570   2.712   3.523
14235TIP3    H242651   2.422   2.730   3.550
14236TIP3   OH242652   1.392   5.776   3.573
14236TIP3    H142653   1.339   5.719   3.517
14236TIP3    H242654   1.356   5.762   3.661
14237TIP3   OH242655   5.504   5.443   4.024
14237TIP3    H142656   5.459   5.455   4.108
14237TIP3    H242657   5.597   5.452   4.046
14238TIP3   OH242658   3.563   1.175   2.634
14238TIP3    H142659   3.588   1.177   2.726
14238TIP3    H242660   3.493   1.240   2.626
14239TIP3   OH242661   0.331   2.237   1.656
14239TIP3    H142662   0.301   2.219   1.745
14239TIP3    H242663   0.274   2.185   1.601
14240TIP3   OH242664   8.131   1.846   4.836
14240TIP3    H142665   8.057   1.896   4.802
14240TIP3    H242666   8.156   1.788   4.764
14241TIP3   OH242667   0.482   4.623   0.331
14241TIP3    H142668   0.540   4.687   0.290
14241TIP3    H242669   0.466   4.657   0.418
14242TIP3   OH242670   6.527   7.520   4.508
14242TIP3    H142671   6.493   7.496   4.422
14242TIP3    H242672   6.617   7.548   4.490
14243TIP3   OH242673   7.772   7.769   0.380
14243TIP3    H142674   7.730   7.846   0.343
14243TIP3    H242675   7.825   7.734   0.308
14244TIP3   OH242676   6.978   2.380   2.443
14244TIP3    H142677   6.947   2.429   2.367
14244TIP3    H242678   7.022   2.304   2.406
14245TIP3   OH242679   3.985   6.784   5.251
14245TIP3    H142680   3.935   6.770   5.331
14245TIP3    H242681   3.920   6.785   5.181
14246TIP3   OH242682   6.564   6.832   1.852
14246TIP3    H142683   6.560   6.919   1.892
14246TIP3    H242684   6.473   6.803   1.850
14247TIP3   OH242685   1.246   3.623   6.195
14247TIP3    H142686   1.289   3.577   6.123
14247TIP3    H242687   1.316   3.637   6.259
14248TIP3   OH242688   6.088   0.421   1.090
14248TIP3    H142689   6.100   0.338   1.045
14248TIP3    H242690   6.095   0.487   1.020
14249TIP3   OH242691   5.007   4.444   1.632
14249TIP3    H142692   5.019   4.391   1.711
14249TIP3    H242693   5.095   4.452   1.595
14250TIP3   OH242694   7.311   0.224   4.413
14250TIP3    H142695   7.377   0.168   4.373
14250TIP3    H242696   7.316   0.306   4.364
14251TIP3   OH242697   0.082   7.745   3.210
14251TIP3    H142698   0.100   7.700   3.128
14251TIP3    H242699   0.007   7.801   3.191
14252TIP3   OH242700   6.850   6.794   0.936
14252TIP3    H142701   6.845   6.748   1.020
14252TIP3    H242702   6.780   6.860   0.942
14253TIP3   OH242703   6.373   3.936   2.889
14253TIP3    H142704   6.350   3.889   2.969
14253TIP3    H242705   6.333   3.885   2.819
14254TIP3   OH242706   7.072   6.004   5.109
14254TIP3    H142707   7.101   6.046   5.190
14254TIP3    H242708   7.024   6.072   5.063
14255TIP3   OH242709   6.770   4.642   4.919
14255TIP3    H142710   6.743   4.715   4.974
14255TIP3    H242711   6.690   4.617   4.872
14256TIP3   OH242712   3.366   0.670   6.248
14256TIP3    H142713   3.425   0.614   6.298
14256TIP3    H242714   3.294   0.690   6.309
14257TIP3   OH242715   0.877   6.980   2.493
14257TIP3    H142716   0.817   7.052   2.474
14257TIP3    H242717   0.932   7.013   2.564
14258TIP3   OH242718   3.165   6.554   4.853
14258TIP3    H142719   3.165   6.562   4.948
14258TIP3    H242720   3.258   6.551   4.830
14259TIP3   OH242721   1.871   3.725   3.505
14259TIP3    H142722   1.835   3.727   3.593
14259TIP3    H242723   1.799   3.694   3.450
14260TIP3   OH242724   6.055   4.622   5.110
14260TIP3    H142725   6.056   4.550   5.173
14260TIP3    H242726   6.053   4.578   5.024
14261TIP3   OH242727   3.926   5.571   0.592
14261TIP3    H142728   3.908   5.663   0.571
14261TIP3    H242729   3.960   5.534   0.510
14262TIP3   OH242730   8.185   4.416   5.202
14262TIP3    H142731   8.150   4.479   5.264
14262TIP3    H242732   8.108   4.385   5.153
14263TIP3   OH242733   4.831   7.100   0.577
14263TIP3    H142734   4.881   7.175   0.544
14263TIP3    H242735   4.770   7.079   0.506
14264TIP3   OH242736   8.056   1.831   0.931
14264TIP3    H142737   8.058   1.751   0.983
14264TIP3    H242738   8.087   1.805   0.845
14265TIP3   OH242739   3.456   3.055   5.061
14265TIP3    H142740   3.470   3.142   5.023
14265TIP3    H242741   3.447   2.998   4.985
14266TIP3   OH242742   6.308   2.374   3.301
14266TIP3    H142743   6.290   2.288   3.263
14266TIP3    H242744   6.234   2.428   3.274
14267TIP3   OH242745   1.413   7.420   5.999
14267TIP3    H142746   1.484   7.481   6.016
14267TIP3    H242747   1.446   7.363   5.930
14268TIP3   OH242748   2.780   4.700   3.486
14268TIP3    H142749   2.779   4.611   3.449
14268TIP3    H242750   2.702   4.703   3.542
14269TIP3   OH242751   0.729   0.328   0.706
14269TIP3    H142752   0.812   0.293   0.672
14269TIP3    H242753   0.662   0.283   0.656
14270TIP3   OH242754   7.080   5.863   4.731
14270TIP3    H142755   7.023   5.934   4.760
14270TIP3    H242756   7.163   5.880   4.774
14271TIP3   OH242757   2.096   6.436   4.672
14271TIP3    H142758   2.167   6.386   4.632
14271TIP3    H242759   2.083   6.511   4.613
14272TIP3   OH242760   5.074   0.417   0.382
14272TIP3    H142761   5.097   0.327   0.358
14272TIP3    H242762   5.117   0.472   0.317
14273TIP3   OH242763   5.967   4.581   3.028
14273TIP3    H142764   5.927   4.570   2.942
14273TIP3    H242765   5.896   4.567   3.090
14274TIP3   OH242766   6.252   0.091   2.453
14274TIP3    H142767   6.339   0.106   2.490
14274TIP3    H242768   6.225   0.176   2.419
14275TIP3   OH242769   5.175   5.762   0.183
14275TIP3    H142770   5.174   5.841   0.237
14275TIP3    H242771   5.089   5.761   0.141
14276TIP3   OH242772   8.203   0.426   5.746
14276TIP3    H142773   8.210   0.344   5.697
14276TIP3    H242774   8.136   0.409   5.812
14277TIP3   OH242775   1.576   1.892   3.779
14277TIP3    H142776   1.586   1.924   3.869
14277TIP3    H242777   1.609   1.964   3.724
14278TIP3   OH242778   1.444   7.313   6.543
14278TIP3    H142779   1.369   7.324   6.601
14278TIP3    H242780   1.497   7.391   6.556
14279TIP3   OH242781   0.977   7.618   5.991
14279TIP3    H142782   0.970   7.524   6.005
14279TIP3    H242783   1.071   7.637   6.002
14280TIP3   OH242784   1.317   0.103   6.727
14280TIP3    H142785   1.299   0.024   6.675
14280TIP3    H242786   1.254   0.167   6.695
14281TIP3   OH242787   8.221   1.393   2.566
14281TIP3    H142788   8.151   1.427   2.510
14281TIP3    H242789   8.195   1.417   2.655
14282TIP3   OH242790   4.720   0.629   1.413
14282TIP3    H142791   4.699   0.717   1.443
14282TIP3    H242792   4.682   0.571   1.479
14283TIP3   OH242793   3.861   2.306   5.489
14283TIP3    H142794   3.844   2.390   5.446
14283TIP3    H242795   3.855   2.241   5.419
14284TIP3   OH242796   1.140   7.570   1.070
14284TIP3    H142797   1.112   7.633   1.137
14284TIP3    H242798   1.072   7.575   1.003
14285TIP3   OH242799   2.468   1.448   1.158
14285TIP3    H142800   2.397   1.432   1.096
14285TIP3    H242801   2.430   1.506   1.223
14286TIP3   OH242802   2.015   1.328   5.949
14286TIP3    H142803   2.099   1.285   5.967
14286TIP3    H242804   1.957   1.258   5.919
14287TIP3   OH242805   1.700   5.546   4.743
14287TIP3    H142806   1.605   5.554   4.741
14287TIP3    H242807   1.727   5.602   4.815
14288TIP3   OH242808   4.141   2.596   6.299
14288TIP3    H142809   4.049   2.569   6.302
14288TIP3    H242810   4.189   2.517   6.275
14289TIP3   OH242811   1.685   3.772   1.180
14289TIP3    H142812   1.684   3.744   1.272
14289TIP3    H242813   1.771   3.812   1.168
14290TIP3   OH242814   3.751   4.984   5.622
14290TIP3    H142815   3.817   5.049   5.647
14290TIP3    H242816   3.797   4.924   5.564
14291TIP3   OH242817   6.214   0.195   4.843
14291TIP3    H142818   6.206   0.285   4.872
14291TIP3    H242819   6.265   0.152   4.912
14292TIP3   OH242820   4.345   6.944   0.063
14292TIP3    H142821   4.310   6.969   0.149
14292TIP3    H242822   4.344   6.849   0.064
14293TIP3   OH242823   7.641   5.994   1.693
14293TIP3    H142824   7.567   6.051   1.718
14293TIP3    H242825   7.708   6.055   1.662
14294TIP3   OH242826   1.711   4.520   3.998
14294TIP3    H142827   1.697   4.466   4.076
14294TIP3    H242828   1.806   4.530   3.993
14295TIP3   OH242829   0.388   2.995   2.667
14295TIP3    H142830   0.386   3.087   2.693
14295TIP3    H242831   0.296   2.967   2.670
14296TIP3   OH242832   0.923   3.327   1.594
14296TIP3    H142833   0.841   3.375   1.579
14296TIP3    H242834   0.910   3.284   1.678
14297TIP3   OH242835   8.039   5.559   3.102
14297TIP3    H142836   8.081   5.641   3.075
14297TIP3    H242837   8.106   5.515   3.154
14298TIP3   OH242838   4.361   7.429   5.719
14298TIP3    H142839   4.295   7.361   5.729
14298TIP3    H242840   4.334   7.498   5.780
14299TIP3   OH242841   6.323   6.894   2.599
14299TIP3    H142842   6.363   6.807   2.592
14299TIP3    H242843   6.277   6.892   2.683
14300TIP3   OH242844   7.499   1.271   3.629
14300TIP3    H142845   7.519   1.306   3.542
14300TIP3    H242846   7.495   1.176   3.617
14301TIP3   OH242847   1.916   5.746   4.598
14301TIP3    H142848   1.951   5.821   4.551
14301TIP3    H242849   1.907   5.776   4.688
14302TIP3   OH242850   2.341   6.315   2.064
14302TIP3    H142851   2.418   6.326   2.008
14302TIP3    H242852   2.326   6.402   2.102
14303TIP3   OH242853   3.793   2.444   1.098
14303TIP3    H142854   3.810   2.538   1.107
14303TIP3    H242855   3.793   2.429   1.004
14304TIP3   OH242856   0.381   4.871   6.456
14304TIP3    H142857   0.352   4.872   6.365
14304TIP3    H242858   0.402   4.779   6.473
14305TIP3   OH242859   5.993   0.252   4.683
14305TIP3    H142860   5.960   0.313   4.748
14305TIP3    H242861   6.076   0.220   4.720
14306TIP3   OH242862   3.898   6.563   5.073
14306TIP3    H142863   3.947   6.487   5.101
14306TIP3    H242864   3.855   6.595   5.152
14307TIP3   OH242865   5.387   3.834   5.693
14307TIP3    H142866   5.333   3.902   5.651
14307TIP3    H242867   5.347   3.822   5.779
14308TIP3   OH242868   6.102   2.302   3.920
14308TIP3    H142869   6.168   2.286   3.852
14308TIP3    H242870   6.153   2.323   3.998
14309TIP3   OH242871   0.708   5.720   4.961
14309TIP3    H142872   0.695   5.707   5.055
14309TIP3    H242873   0.797   5.756   4.955
14310TIP3   OH242874   3.803   1.197   3.382
14310TIP3    H142875   3.734   1.237   3.435
14310TIP3    H242876   3.781   1.219   3.292
14311TIP3   OH242877   1.400   1.513   5.708
14311TIP3    H142878   1.419   1.564   5.629
14311TIP3    H242879   1.305   1.516   5.715
14312TIP3   OH242880   0.086   4.957   0.603
14312TIP3    H142881   0.163   4.909   0.633
14312TIP3    H242882   0.090   4.952   0.508
14313TIP3   OH242883   0.126   4.427   2.517
14313TIP3    H142884   0.198   4.478   2.480
14313TIP3    H242885   0.063   4.492   2.548
14314TIP3   OH242886   7.434   0.670   6.465
14314TIP3    H142887   7.474   0.748   6.426
14314TIP3    H242888   7.415   0.614   6.390
14315TIP3   OH242889   2.108   7.228   1.998
14315TIP3    H142890   2.136   7.157   1.940
14315TIP3    H242891   2.136   7.308   1.953
14316TIP3   OH242892   2.685   5.930   6.670
14316TIP3    H142893   2.629   5.951   6.595
14316TIP3    H242894   2.771   5.914   6.632
14317TIP3   OH242895   6.137   3.711   4.084
14317TIP3    H142896   6.211   3.726   4.027
14317TIP3    H242897   6.175   3.702   4.172
14318TIP3   OH242898   4.312   4.055   0.147
14318TIP3    H142899   4.248   4.116   0.183
14318TIP3    H242900   4.267   4.012   0.074
14319TIP3   OH242901   6.331   3.713   0.600
14319TIP3    H142902   6.248   3.682   0.637
14319TIP3    H242903   6.396   3.695   0.669
14320TIP3   OH242904   8.049   3.554   2.629
14320TIP3    H142905   8.112   3.546   2.557
14320TIP3    H242906   8.020   3.645   2.625
14321TIP3   OH242907   4.441   0.993   2.651
14321TIP3    H142908   4.426   1.087   2.658
14321TIP3    H242909   4.455   0.978   2.558
14322TIP3   OH242910   7.608   2.667   0.925
14322TIP3    H142911   7.657   2.724   0.984
14322TIP3    H242912   7.558   2.727   0.869
14323TIP3   OH242913   7.236   1.176   0.659
14323TIP3    H142914   7.306   1.112   0.673
14323TIP3    H242915   7.226   1.219   0.744
14324TIP3   OH242916   5.849   5.231   5.092
14324TIP3    H142917   5.836   5.155   5.035
14324TIP3    H242918   5.855   5.306   5.033
14325TIP3   OH242919   3.819   3.474   6.750
14325TIP3    H142920   3.777   3.554   6.720
14325TIP3    H242921   3.823   3.418   6.673
14326TIP3   OH242922   7.499   2.039   2.468
14326TIP3    H142923   7.513   2.012   2.378
14326TIP3    H242924   7.509   1.958   2.519
14327TIP3   OH242925   0.448   6.632   0.842
14327TIP3    H142926   0.368   6.662   0.800
14327TIP3    H242927   0.507   6.708   0.838
14328TIP3   OH242928   4.340   6.824   3.693
14328TIP3    H142929   4.406   6.754   3.690
14328TIP3    H242930   4.372   6.890   3.632
14329TIP3   OH242931   3.855   4.349   0.367
14329TIP3    H142932   3.781   4.299   0.402
14329TIP3    H242933   3.830   4.440   0.381
14330TIP3   OH242934   4.947   0.979   4.497
14330TIP3    H142935   4.898   0.953   4.419
14330TIP3    H242936   5.005   1.048   4.468
14331TIP3   OH242937   7.121   4.847   2.810
14331TIP3    H142938   7.076   4.890   2.738
14331TIP3    H242939   7.054   4.792   2.851
14332TIP3   OH242940   3.176   2.584   1.394
14332TIP3    H142941   3.257   2.557   1.350
14332TIP3    H242942   3.205   2.632   1.472
14333TIP3   OH242943   3.782   5.248   0.090
14333TIP3    H142944   3.847   5.180   0.107
14333TIP3    H242945   3.739   5.262   0.175
14334TIP3   OH242946   5.179   0.204   4.830
14334TIP3    H142947   5.155   0.174   4.918
14334TIP3    H242948   5.188   0.299   4.839
14335TIP3   OH242949   5.748  -0.004   1.377
14335TIP3    H142950   5.659   0.013   1.346
14335TIP3    H242951   5.744   0.015   1.471
14336TIP3   OH242952   2.953   0.310   4.212
14336TIP3    H142953   2.926   0.385   4.159
14336TIP3    H242954   2.971   0.346   4.298
14337TIP3   OH242955   2.090   3.993   5.961
14337TIP3    H142956   2.078   3.943   5.880
14337TIP3    H242957   2.121   4.079   5.932
14338TIP3   OH242958   4.083   1.361   6.153
14338TIP3    H142959   4.151   1.429   6.148
14338TIP3    H242960   4.117   1.290   6.099
14339TIP3   OH242961   7.684   0.701   4.678
14339TIP3    H142962   7.690   0.744   4.763
14339TIP3    H242963   7.750   0.632   4.681
14340TIP3   OH242964   2.500   0.297   5.231
14340TIP3    H142965   2.472   0.385   5.208
14340TIP3    H242966   2.471   0.285   5.321
14341TIP3   OH242967   4.446   1.536   3.247
14341TIP3    H142968   4.523   1.508   3.296
14341TIP3    H242969   4.427   1.461   3.189
14342TIP3   OH242970   6.373   5.267   4.180
14342TIP3    H142971   6.361   5.310   4.095
14342TIP3    H242972   6.349   5.176   4.164
14343TIP3   OH242973   6.274   0.211   5.596
14343TIP3    H142974   6.297   0.122   5.622
14343TIP3    H242975   6.217   0.200   5.520
14344TIP3   OH242976   6.984   1.220   5.503
14344TIP3    H142977   7.031   1.294   5.543
14344TIP3    H242978   6.993   1.149   5.567
14345TIP3   OH242979   4.820   5.460   6.080
14345TIP3    H142980   4.845   5.526   6.016
14345TIP3    H242981   4.801   5.510   6.160
14346TIP3   OH242982   2.426   7.209   1.879
14346TIP3    H142983   2.349   7.243   1.834
14346TIP3    H242984   2.487   7.188   1.809
14347TIP3   OH242985   7.757   3.980   0.732
14347TIP3    H142986   7.758   3.992   0.826
14347TIP3    H242987   7.827   4.037   0.699
14348TIP3   OH242988   3.043   1.621   5.815
14348TIP3    H142989   2.968   1.607   5.873
14348TIP3    H242990   3.004   1.647   5.732
14349TIP3   OH242991   2.564   4.928   4.827
14349TIP3    H142992   2.520   4.897   4.906
14349TIP3    H242993   2.575   4.849   4.774
14350TIP3   OH242994   2.125   0.212   4.932
14350TIP3    H142995   2.131   0.230   5.026
14350TIP3    H242996   2.088   0.123   4.928
14351TIP3   OH242997   8.053   1.306   2.312
14351TIP3    H142998   8.051   1.280   2.220
14351TIP3    H242999   8.060   1.402   2.309
14352TIP3   OH243000   5.651   3.776   0.201
14352TIP3    H143001   5.658   3.709   0.270
14352TIP3    H243002   5.563   3.813   0.213
14353TIP3   OH243003   7.792   5.455   4.141
14353TIP3    H143004   7.777   5.361   4.150
14353TIP3    H243005   7.789   5.488   4.231
14354TIP3   OH243006   4.500   2.558   0.229
14354TIP3    H143007   4.542   2.537   0.145
14354TIP3    H243008   4.492   2.654   0.228
14355TIP3   OH243009   4.521   7.209   5.348
14355TIP3    H143010   4.439   7.174   5.383
14355TIP3    H243011   4.543   7.282   5.406
14356TIP3   OH243012   0.887   5.317   4.428
14356TIP3    H143013   0.899   5.294   4.520
14356TIP3    H243014   0.836   5.245   4.391
14357TIP3   OH243015   0.318   1.863   5.225
14357TIP3    H143016   0.230   1.871   5.261
14357TIP3    H243017   0.367   1.816   5.292
14358TIP3   OH243018   2.898   2.907   5.765
14358TIP3    H143019   2.917   2.834   5.706
14358TIP3    H243020   2.978   2.959   5.765
14359TIP3   OH243021   6.778   6.721   3.072
14359TIP3    H143022   6.762   6.766   3.155
14359TIP3    H243023   6.795   6.792   3.010
14360TIP3   OH243024   5.212   0.300   5.799
14360TIP3    H143025   5.301   0.270   5.814
14360TIP3    H243026   5.209   0.319   5.705
14361TIP3   OH243027   1.206   7.136   6.012
14361TIP3    H143028   1.299   7.114   6.003
14361TIP3    H243029   1.171   7.069   6.070
14362TIP3   OH243030   6.908   1.492   6.576
14362TIP3    H143031   6.984   1.517   6.628
14362TIP3    H243032   6.944   1.471   6.489
14363TIP3   OH243033   3.196   7.165   1.974
14363TIP3    H143034   3.200   7.222   2.051
14363TIP3    H243035   3.146   7.215   1.910
14364TIP3   OH243036   1.217   2.302   1.532
14364TIP3    H143037   1.279   2.263   1.594
14364TIP3    H243038   1.151   2.234   1.518
14365TIP3   OH243039  -0.009   5.429   3.171
14365TIP3    H143040   0.062   5.488   3.196
14365TIP3    H243041   0.035   5.360   3.121
14366TIP3   OH243042   7.884   3.361   1.838
14366TIP3    H143043   7.894   3.409   1.756
14366TIP3    H243044   7.974   3.342   1.865
14367TIP3   OH243045   2.479   7.236   4.098
14367TIP3    H143046   2.554   7.251   4.155
14367TIP3    H243047   2.412   7.297   4.131
14368TIP3   OH243048   7.450   5.452   3.202
14368TIP3    H143049   7.502   5.394   3.146
14368TIP3    H243050   7.508   5.526   3.220
14369TIP3   OH243051   0.930   4.587   2.844
14369TIP3    H143052   0.928   4.596   2.940
14369TIP3    H243053   0.869   4.516   2.826
14370TIP3   OH243054   3.967   5.912   1.430
14370TIP3    H143055   4.052   5.929   1.472
14370TIP3    H243056   3.942   5.997   1.392
14371TIP3   OH243057   7.747   6.824   3.147
14371TIP3    H143058   7.791   6.777   3.075
14371TIP3    H243059   7.780   6.782   3.226
14372TIP3   OH243060   7.065   7.298   6.229
14372TIP3    H143061   7.073   7.361   6.158
14372TIP3    H243062   7.151   7.258   6.236
14373TIP3   OH243063   4.174   0.062   0.752
14373TIP3    H143064   4.173   0.010   0.832
14373TIP3    H243065   4.087   0.048   0.714
14374TIP3   OH243066   0.240   6.746   2.919
14374TIP3    H143067   0.223   6.840   2.921
14374TIP3    H243068   0.336   6.739   2.915
14375TIP3   OH243069   4.422   2.435   0.733
14375TIP3    H143070   4.432   2.394   0.647
14375TIP3    H243071   4.486   2.389   0.788
14376TIP3   OH243072   2.217   4.304   2.681
14376TIP3    H143073   2.126   4.332   2.689
14376TIP3    H243074   2.258   4.332   2.763
14377TIP3   OH243075   5.306   2.054   4.513
14377TIP3    H143076   5.253   2.056   4.433
14377TIP3    H243077   5.359   2.134   4.508
14378TIP3   OH243078   1.605   7.632   3.166
14378TIP3    H143079   1.666   7.648   3.237
14378TIP3    H243080   1.594   7.717   3.124
14379TIP3   OH243081   1.961   0.642   3.448
14379TIP3    H143082   2.015   0.699   3.502
14379TIP3    H243083   2.007   0.558   3.449
14380TIP3   OH243084   2.947   7.042   0.819
14380TIP3    H143085   2.907   7.115   0.866
14380TIP3    H243086   2.963   6.976   0.886
14381TIP3   OH243087   2.059   2.223   3.504
14381TIP3    H143088   2.025   2.245   3.417
14381TIP3    H243089   2.032   2.296   3.559
14382TIP3   OH243090   4.296   6.187   4.697
14382TIP3    H143091   4.208   6.202   4.733
14382TIP3    H243092   4.281   6.168   4.605
14383TIP3   OH243093   7.515   4.518   4.963
14383TIP3    H143094   7.452   4.582   4.931
14383TIP3    H243095   7.502   4.442   4.907
14384TIP3   OH243096   1.746   6.100   4.536
14384TIP3    H143097   1.721   6.017   4.578
14384TIP3    H243098   1.666   6.129   4.491
14385TIP3   OH243099   3.141   0.464   6.089
14385TIP3    H143100   3.048   0.481   6.072
14385TIP3    H243101   3.150   0.472   6.184
14386TIP3   OH243102   6.014   4.171   3.538
14386TIP3    H143103   5.983   4.130   3.458
14386TIP3    H243104   6.002   4.265   3.524
14387TIP3   OH243105   4.449   4.433   3.331
14387TIP3    H143106   4.428   4.340   3.327
14387TIP3    H243107   4.532   4.441   3.285
14388TIP3   OH243108   4.314   6.492   2.753
14388TIP3    H143109   4.240   6.507   2.694
14388TIP3    H243110   4.371   6.432   2.704
14389TIP3   OH243111   4.097   2.753   0.467
14389TIP3    H143112   4.150   2.819   0.512
14389TIP3    H243113   4.045   2.802   0.404
14390TIP3   OH243114   7.023   0.727   6.620
14390TIP3    H143115   7.068   0.776   6.551
14390TIP3    H243116   6.951   0.682   6.576
14391TIP3   OH243117   2.377   2.887   1.331
14391TIP3    H143118   2.351   2.833   1.405
14391TIP3    H243119   2.417   2.965   1.371
14392TIP3   OH243120   4.230   7.355   0.060
14392TIP3    H143121   4.235   7.444   0.025
14392TIP3    H243122   4.301   7.308   0.016
14393TIP3   OH243123   3.376   7.347   1.197
14393TIP3    H143124   3.421   7.332   1.114
14393TIP3    H243125   3.320   7.423   1.180
14394TIP3   OH243126   3.868   1.382   4.453
14394TIP3    H143127   3.797   1.319   4.441
14394TIP3    H243128   3.864   1.437   4.375
14395TIP3   OH243129   6.814   2.775   5.469
14395TIP3    H143130   6.842   2.684   5.465
14395TIP3    H243131   6.863   2.818   5.398
14396TIP3   OH243132   0.768   6.042   5.736
14396TIP3    H143133   0.818   6.030   5.817
14396TIP3    H243134   0.749   6.135   5.732
14397TIP3   OH243135   1.037   2.417   6.734
14397TIP3    H143136   0.977   2.365   6.681
14397TIP3    H243137   1.108   2.356   6.758
14398TIP3   OH243138   5.040   1.334   1.805
14398TIP3    H143139   4.956   1.292   1.822
14398TIP3    H243140   5.104   1.262   1.812
14399TIP3   OH243141   2.405   3.114   5.270
14399TIP3    H143142   2.344   3.119   5.196
14399TIP3    H243143   2.440   3.025   5.267
14400TIP3   OH243144   6.501   7.779   5.317
14400TIP3    H143145   6.483   7.807   5.407
14400TIP3    H243146   6.440   7.707   5.301
14401TIP3   OH243147   5.579   3.670   6.115
14401TIP3    H143148   5.651   3.682   6.052
14401TIP3    H243149   5.597   3.733   6.184
14402TIP3   OH243150   6.857   7.080   6.183
14402TIP3    H143151   6.916   7.153   6.168
14402TIP3    H243152   6.821   7.061   6.096
14403TIP3   OH243153   1.110   0.468   3.794
14403TIP3    H143154   1.103   0.494   3.702
14403TIP3    H243155   1.029   0.419   3.810
14404TIP3   OH243156   0.760   4.934   0.367
14404TIP3    H143157   0.823   5.005   0.354
14404TIP3    H243158   0.739   4.905   0.279
14405TIP3   OH243159   2.959   0.998   3.094
14405TIP3    H143160   2.988   1.089   3.087
14405TIP3    H243161   2.888   1.000   3.158
14406TIP3   OH243162   0.481   1.985   1.090
14406TIP3    H143163   0.507   1.972   0.998
14406TIP3    H243164   0.562   2.014   1.133
14407TIP3   OH243165   6.074   6.564   1.029
14407TIP3    H143166   6.062   6.469   1.029
14407TIP3    H243167   6.008   6.597   1.090
14408TIP3   OH243168   4.639   4.954   3.187
14408TIP3    H143169   4.560   4.923   3.143
14408TIP3    H243170   4.682   5.010   3.124
14409TIP3   OH243171   6.257   1.580   2.581
14409TIP3    H143172   6.165   1.602   2.590
14409TIP3    H243173   6.293   1.647   2.522
14410TIP3   OH243174   0.337   7.106   1.571
14410TIP3    H143175   0.389   7.136   1.497
14410TIP3    H243176   0.378   7.024   1.598
14411TIP3   OH243177   6.033   5.249   6.544
14411TIP3    H143178   6.116   5.280   6.507
14411TIP3    H243179   6.038   5.271   6.637
14412TIP3   OH243180   2.026   1.392   4.240
14412TIP3    H143181   2.091   1.423   4.304
14412TIP3    H243182   2.078   1.346   4.174
14413TIP3   OH243183   8.244   5.751   3.855
14413TIP3    H143184   8.321   5.695   3.862
14413TIP3    H243185   8.214   5.740   3.765
14414TIP3   OH243186   0.574   5.375   2.718
14414TIP3    H143187   0.657   5.338   2.748
14414TIP3    H243188   0.520   5.382   2.797
14415TIP3   OH243189   2.008   6.460   6.180
14415TIP3    H143190   1.929   6.514   6.173
14415TIP3    H243191   2.007   6.428   6.270
14416TIP3   OH243192   8.208   6.670   1.541
14416TIP3    H143193   8.246   6.589   1.574
14416TIP3    H243194   8.281   6.732   1.541
14417TIP3   OH243195   0.386   7.020   6.663
14417TIP3    H143196   0.345   6.951   6.715
14417TIP3    H243197   0.455   7.055   6.720
14418TIP3   OH243198   8.260   6.061   1.893
14418TIP3    H143199   8.258   6.144   1.941
14418TIP3    H243200   8.301   5.999   1.954
14419TIP3   OH243201   0.807   4.419   0.788
14419TIP3    H143202   0.715   4.399   0.772
14419TIP3    H243203   0.810   4.515   0.792
14420TIP3   OH243204   5.686   4.761   2.453
14420TIP3    H143205   5.614   4.707   2.423
14420TIP3    H243206   5.692   4.831   2.389
14421TIP3   OH243207   3.500   6.247   2.583
14421TIP3    H143208   3.503   6.246   2.679
14421TIP3    H243209   3.555   6.322   2.558
14422TIP3   OH243210   0.493   2.178   2.378
14422TIP3    H143211   0.448   2.180   2.462
14422TIP3    H243212   0.467   2.095   2.338
14423TIP3   OH243213   4.790   4.999   3.975
14423TIP3    H143214   4.823   5.040   3.896
14423TIP3    H243215   4.840   4.918   3.982
14424TIP3   OH243216   4.796   4.212   3.467
14424TIP3    H143217   4.810   4.134   3.520
14424TIP3    H243218   4.746   4.181   3.392
14425TIP3   OH243219   4.768   2.113   6.368
14425TIP3    H143220   4.802   2.025   6.381
14425TIP3    H243221   4.750   2.144   6.457
14426TIP3   OH243222   0.687   7.296   5.741
14426TIP3    H143223   0.651   7.357   5.676
14426TIP3    H243224   0.611   7.246   5.771
14427TIP3   OH243225   1.943   6.816   1.649
14427TIP3    H143226   1.943   6.787   1.558
14427TIP3    H243227   1.943   6.912   1.644
14428TIP3   OH243228   7.345   7.671   3.496
14428TIP3    H143229   7.311   7.589   3.460
14428TIP3    H243230   7.288   7.739   3.458
14429TIP3   OH243231   5.244   6.844   3.614
14429TIP3    H143232   5.334   6.816   3.600
14429TIP3    H243233   5.244   6.887   3.699
14430TIP3   OH243234   5.386   1.856   1.672
14430TIP3    H143235   5.422   1.795   1.736
14430TIP3    H243236   5.404   1.816   1.587
14431TIP3   OH243237   5.608   6.433   6.593
14431TIP3    H143238   5.629   6.357   6.646
14431TIP3    H243239   5.687   6.486   6.594
14432TIP3   OH243240   4.889   1.046   4.141
14432TIP3    H143241   4.936   1.130   4.134
14432TIP3    H243242   4.892   1.010   4.053
14433TIP3   OH243243   2.152   2.803   6.624
14433TIP3    H143244   2.099   2.725   6.639
14433TIP3    H243245   2.179   2.796   6.533
14434TIP3   OH243246   4.199   1.284   3.173
14434TIP3    H143247   4.289   1.297   3.200
14434TIP3    H243248   4.152   1.264   3.254
14435TIP3   OH243249   1.786   4.684   5.896
14435TIP3    H143250   1.754   4.662   5.984
14435TIP3    H243251   1.717   4.738   5.858
14436TIP3   OH243252   4.654   2.339   6.523
14436TIP3    H143253   4.659   2.428   6.488
14436TIP3    H243254   4.562   2.329   6.550
14437TIP3   OH243255   3.010   6.650   6.176
14437TIP3    H143256   2.984   6.558   6.185
14437TIP3    H243257   3.105   6.650   6.188
14438TIP3   OH243258   7.372   7.352   0.958
14438TIP3    H143259   7.445   7.409   0.933
14438TIP3    H243260   7.308   7.412   0.998
14439TIP3   OH243261   5.412   4.155   3.538
14439TIP3    H143262   5.503   4.182   3.521
14439TIP3    H243263   5.408   4.143   3.633
14440TIP3   OH243264   1.292   1.597   2.715
14440TIP3    H143265   1.285   1.508   2.750
14440TIP3    H243266   1.317   1.651   2.790
14441TIP3   OH243267   1.201   5.888   2.698
14441TIP3    H143268   1.282   5.887   2.647
14441TIP3    H243269   1.154   5.965   2.666
14442TIP3   OH243270   3.923   5.715   3.157
14442TIP3    H143271   3.992   5.696   3.094
14442TIP3    H243272   3.867   5.780   3.113
14443TIP3   OH243273   5.242   2.286   3.676
14443TIP3    H143274   5.247   2.305   3.770
14443TIP3    H243275   5.290   2.357   3.634
14444TIP3   OH243276   7.038   5.029   0.965
14444TIP3    H143277   6.955   4.999   1.002
14444TIP3    H243278   7.017   5.054   0.875
14445TIP3   OH243279   7.633   7.339   5.651
14445TIP3    H143280   7.674   7.289   5.721
14445TIP3    H243281   7.551   7.371   5.690
14446TIP3   OH243282   3.858   0.547   3.733
14446TIP3    H143283   3.901   0.622   3.692
14446TIP3    H243284   3.765   0.571   3.734
14447TIP3   OH243285   0.187   3.018   0.205
14447TIP3    H143286   0.274   3.016   0.246
14447TIP3    H243287   0.203   3.052   0.117
14448TIP3   OH243288   7.812   3.074   1.522
14448TIP3    H143289   7.870   3.144   1.488
14448TIP3    H243290   7.854   2.993   1.493
14449TIP3   OH243291   3.895   4.558   4.488
14449TIP3    H143292   3.843   4.629   4.526
14449TIP3    H243293   3.833   4.486   4.475
14450TIP3   OH243294   3.696   4.092   0.501
14450TIP3    H143295   3.763   4.042   0.547
14450TIP3    H243296   3.632   4.114   0.568
14451TIP3   OH243297   5.721   5.572   2.023
14451TIP3    H143298   5.652   5.611   2.078
14451TIP3    H243299   5.675   5.542   1.945
14452TIP3   OH243300   4.317   2.993   0.795
14452TIP3    H143301   4.404   2.981   0.835
14452TIP3    H243302   4.330   3.059   0.727
14453TIP3   OH243303   4.789   6.631   4.606
14453TIP3    H143304   4.870   6.587   4.632
14453TIP3    H243305   4.747   6.653   4.689
14454TIP3   OH243306   8.213   6.043   5.807
14454TIP3    H143307   8.282   6.084   5.859
14454TIP3    H243308   8.178   5.975   5.864
14455TIP3   OH243309   5.549   2.428   0.961
14455TIP3    H143310   5.498   2.492   1.010
14455TIP3    H243311   5.523   2.343   0.997
14456TIP3   OH243312   6.109   1.723   0.561
14456TIP3    H143313   6.037   1.766   0.606
14456TIP3    H243314   6.181   1.723   0.624
14457TIP3   OH243315   4.639   4.314   6.662
14457TIP3    H143316   4.604   4.239   6.613
14457TIP3    H243317   4.717   4.340   6.614
14458TIP3   OH243318   8.133   1.286   5.321
14458TIP3    H143319   8.094   1.280   5.408
14458TIP3    H243320   8.058   1.298   5.262
14459TIP3   OH243321   3.196   5.863   2.304
14459TIP3    H143322   3.238   5.897   2.383
14459TIP3    H243323   3.236   5.777   2.291
14460TIP3   OH243324   6.806   7.265   3.554
14460TIP3    H143325   6.749   7.221   3.617
14460TIP3    H243326   6.894   7.241   3.581
14461TIP3   OH243327   4.631   1.878   4.889
14461TIP3    H143328   4.727   1.877   4.882
14461TIP3    H243329   4.606   1.967   4.864
14462TIP3   OH243330   4.172   1.987   4.913
14462TIP3    H143331   4.114   2.022   4.980
14462TIP3    H243332   4.120   1.990   4.833
14463TIP3   OH243333   0.213   4.345   5.282
14463TIP3    H143334   0.190   4.391   5.363
14463TIP3    H243335   0.140   4.364   5.222
14464TIP3   OH243336   3.532   6.437   3.862
14464TIP3    H143337   3.591   6.385   3.917
14464TIP3    H243338   3.590   6.496   3.814
14465TIP3   OH243339   2.932   5.429   2.070
14465TIP3    H143340   3.005   5.397   2.123
14465TIP3    H243341   2.954   5.405   1.981
14466TIP3   OH243342   0.347   6.290   4.187
14466TIP3    H143343   0.419   6.232   4.162
14466TIP3    H243344   0.284   6.232   4.230
14467TIP3   OH243345   0.234   1.533   4.080
14467TIP3    H143346   0.265   1.590   4.151
14467TIP3    H243347   0.139   1.548   4.077
14468TIP3   OH243348   3.992   2.263   0.967
14468TIP3    H143349   4.028   2.217   1.043
14468TIP3    H243350   3.941   2.196   0.921
14469TIP3   OH243351   5.144   5.202   4.959
14469TIP3    H143352   5.173   5.210   5.050
14469TIP3    H243353   5.105   5.114   4.954
14470TIP3   OH243354   7.379   3.716   0.210
14470TIP3    H143355   7.466   3.678   0.214
14470TIP3    H243356   7.364   3.732   0.116
14471TIP3   OH243357   4.290   6.682   1.212
14471TIP3    H143358   4.247   6.605   1.249
14471TIP3    H243359   4.334   6.650   1.133
14472TIP3   OH243360   6.872   0.395   2.251
14472TIP3    H143361   6.915   0.478   2.232
14472TIP3    H243362   6.910   0.333   2.189
14473TIP3   OH243363   6.060   1.002   1.323
14473TIP3    H143364   6.090   1.027   1.235
14473TIP3    H243365   6.007   0.924   1.309
14474TIP3   OH243366   0.542   6.410   6.005
14474TIP3    H143367   0.508   6.488   5.961
14474TIP3    H243368   0.565   6.439   6.093
14475TIP3   OH243369   6.412   0.141   1.870
14475TIP3    H143370   6.454   0.088   1.803
14475TIP3    H243371   6.452   0.227   1.863
14476TIP3   OH243372   1.375   6.834   4.246
14476TIP3    H143373   1.365   6.809   4.338
14476TIP3    H243374   1.456   6.885   4.244
14477TIP3   OH243375   7.540   6.951   6.607
14477TIP3    H143376   7.567   6.925   6.519
14477TIP3    H243377   7.559   7.044   6.612
14478TIP3   OH243378   6.678   2.103   4.544
14478TIP3    H143379   6.719   2.025   4.581
14478TIP3    H243380   6.713   2.175   4.597
14479TIP3   OH243381   0.500   3.105   4.777
14479TIP3    H143382   0.473   3.055   4.699
14479TIP3    H243383   0.584   3.144   4.753
14480TIP3   OH243384   3.212   1.285   3.158
14480TIP3    H143385   3.166   1.362   3.126
14480TIP3    H243386   3.275   1.265   3.088
14481TIP3   OH243387   6.492   4.474   0.174
14481TIP3    H143388   6.561   4.535   0.146
14481TIP3    H243389   6.512   4.457   0.266
14482TIP3   OH243390   7.185   3.960   3.552
14482TIP3    H143391   7.146   3.879   3.584
14482TIP3    H243392   7.264   3.971   3.605
14483TIP3   OH243393   5.746   6.850   4.172
14483TIP3    H143394   5.702   6.841   4.256
14483TIP3    H243395   5.703   6.924   4.130
14484TIP3   OH243396   7.081   2.364   1.997
14484TIP3    H143397   7.072   2.276   1.962
14484TIP3    H243398   7.166   2.364   2.041
14485TIP3   OH243399   2.824   3.712   4.164
14485TIP3    H143400   2.899   3.655   4.185
14485TIP3    H243401   2.815   3.768   4.240
14486TIP3   OH243402   2.132   6.854   1.173
14486TIP3    H143403   2.110   6.801   1.249
14486TIP3    H243404   2.053   6.853   1.119
14487TIP3   OH243405   0.228   5.819   4.668
14487TIP3    H143406   0.278   5.826   4.749
14487TIP3    H243407   0.167   5.893   4.670
14488TIP3   OH243408   6.670   4.169   2.829
14488TIP3    H143409   6.622   4.237   2.783
14488TIP3    H243410   6.762   4.193   2.818
14489TIP3   OH243411   4.066   0.842   3.012
14489TIP3    H143412   4.070   0.897   3.090
14489TIP3    H243413   4.106   0.759   3.039
14490TIP3   OH243414   1.903   1.290   6.746
14490TIP3    H143415   1.927   1.238   6.670
14490TIP3    H243416   1.811   1.269   6.763
14491TIP3   OH243417   3.384   5.296   2.041
14491TIP3    H143418   3.392   5.384   2.004
14491TIP3    H243419   3.467   5.282   2.086
14492TIP3   OH243420   7.819   4.066   3.868
14492TIP3    H143421   7.845   4.143   3.817
14492TIP3    H243422   7.885   4.060   3.938
14493TIP3   OH243423   1.702   0.573   3.296
14493TIP3    H143424   1.635   0.574   3.364
14493TIP3    H243425   1.783   0.599   3.342
14494TIP3   OH243426   6.038   4.777   1.733
14494TIP3    H143427   6.088   4.843   1.781
14494TIP3    H243428   6.001   4.823   1.658
14495TIP3   OH243429   3.210   2.427   0.138
14495TIP3    H143430   3.250   2.428   0.052
14495TIP3    H243431   3.174   2.339   0.148
14496TIP3   OH243432   5.719   3.555   0.362
14496TIP3    H143433   5.697   3.502   0.286
14496TIP3    H243434   5.810   3.533   0.381
14497TIP3   OH243435   7.290   5.938   4.886
14497TIP3    H143436   7.276   6.009   4.949
14497TIP3    H243437   7.325   5.866   4.938
14498TIP3   OH243438   7.983   3.257   3.653
14498TIP3    H143439   7.979   3.240   3.559
14498TIP3    H243440   8.071   3.293   3.667
14499TIP3   OH243441   2.817   7.257   0.974
14499TIP3    H143442   2.733   7.304   0.979
14499TIP3    H243443   2.883   7.327   0.971
14500TIP3   OH243444   1.048   6.433   2.461
14500TIP3    H143445   0.958   6.419   2.430
14500TIP3    H243446   1.044   6.513   2.513
14501TIP3   OH243447   6.603   6.576   5.361
14501TIP3    H143448   6.518   6.555   5.322
14501TIP3    H243449   6.660   6.503   5.335
14502TIP3   OH243450   0.474   1.509   2.885
14502TIP3    H143451   0.478   1.486   2.792
14502TIP3    H243452   0.433   1.433   2.927
14503TIP3   OH243453   1.180   6.294   3.894
14503TIP3    H143454   1.171   6.315   3.801
14503TIP3    H243455   1.093   6.312   3.931
14504TIP3   OH243456   3.108   5.213   3.321
14504TIP3    H143457   3.044   5.227   3.252
14504TIP3    H243458   3.090   5.124   3.353
14505TIP3   OH243459   0.257   4.724   3.351
14505TIP3    H143460   0.177   4.741   3.401
14505TIP3    H243461   0.296   4.811   3.337
14506TIP3   OH243462   5.018   7.154   1.973
14506TIP3    H143463   5.108   7.174   1.947
14506TIP3    H243464   4.988   7.234   2.017
14507TIP3   OH243465   3.128   3.680   5.658
14507TIP3    H143466   3.124   3.752   5.722
14507TIP3    H243467   3.203   3.701   5.604
14508TIP3   OH243468   7.265   7.196   4.192
14508TIP3    H143469   7.192   7.206   4.131
14508TIP3    H243470   7.322   7.270   4.173
14509TIP3   OH243471   4.508   6.601   3.156
14509TIP3    H143472   4.546   6.682   3.189
14509TIP3    H243473   4.506   6.543   3.232
14510TIP3   OH243474   1.126   5.886   0.348
14510TIP3    H143475   1.216   5.920   0.358
14510TIP3    H243476   1.071   5.956   0.382
14511TIP3   OH243477   3.107   4.432   4.381
14511TIP3    H143478   3.195   4.459   4.355
14511TIP3    H243479   3.050   4.502   4.349
14512TIP3   OH243480   6.319   5.325   6.216
14512TIP3    H143481   6.342   5.340   6.307
14512TIP3    H243482   6.227   5.300   6.217
14513TIP3   OH243483   5.587   4.025   6.094
14513TIP3    H143484   5.546   4.027   6.181
14513TIP3    H243485   5.550   4.101   6.049
14514TIP3   OH243486   5.263   1.008   6.640
14514TIP3    H143487   5.245   0.976   6.728
14514TIP3    H243488   5.299   1.096   6.653
14515TIP3   OH243489   5.455   3.035   1.236
14515TIP3    H143490   5.375   2.987   1.213
14515TIP3    H243491   5.479   3.081   1.155
14516TIP3   OH243492   2.031   1.525   4.567
14516TIP3    H143493   2.095   1.543   4.498
14516TIP3    H243494   2.055   1.586   4.638
14517TIP3   OH243495   4.740   5.954   6.314
14517TIP3    H143496   4.753   6.001   6.232
14517TIP3    H243497   4.756   6.020   6.382
14518TIP3   OH243498   6.753   0.667   5.436
14518TIP3    H143499   6.692   0.626   5.497
14518TIP3    H243500   6.790   0.594   5.387
14519TIP3   OH243501   5.852   7.192   0.396
14519TIP3    H143502   5.771   7.219   0.439
14519TIP3    H243503   5.897   7.137   0.461
14520TIP3   OH243504   2.031   6.288   4.268
14520TIP3    H143505   1.997   6.204   4.236
14520TIP3    H243506   2.021   6.284   4.363
14521TIP3   OH243507   6.834   4.950   1.541
14521TIP3    H143508   6.875   4.949   1.627
14521TIP3    H243509   6.903   4.919   1.482
14522TIP3   OH243510   3.105   3.932   5.805
14522TIP3    H143511   3.012   3.910   5.800
14522TIP3    H243512   3.112   4.015   5.758
14523TIP3   OH243513   3.601   6.251   3.386
14523TIP3    H143514   3.545   6.299   3.448
14523TIP3    H243515   3.548   6.242   3.307
14524TIP3   OH243516   3.704   0.688   1.696
14524TIP3    H143517   3.765   0.761   1.708
14524TIP3    H243518   3.710   0.668   1.603
14525TIP3   OH243519   0.233   2.547   3.825
14525TIP3    H143520   0.254   2.482   3.758
14525TIP3    H243521   0.318   2.572   3.861
14526TIP3   OH243522   3.152   3.272   0.102
14526TIP3    H143523   3.087   3.342   0.102
14526TIP3    H243524   3.163   3.249   0.194
14527TIP3   OH243525   0.129   3.256   5.227
14527TIP3    H143526   0.196   3.196   5.192
14527TIP3    H243527   0.163   3.343   5.210
14528TIP3   OH243528   5.450   7.192   4.805
14528TIP3    H143529   5.493   7.114   4.769
14528TIP3    H243530   5.396   7.225   4.733
14529TIP3   OH243531   2.586   4.283   3.383
14529TIP3    H143532   2.518   4.264   3.447
14529TIP3    H243533   2.649   4.211   3.392
14530TIP3   OH243534   2.697   6.084   3.207
14530TIP3    H143535   2.713   6.175   3.233
14530TIP3    H243536   2.749   6.032   3.269
14531TIP3   OH243537   3.070   3.212   4.379
14531TIP3    H143538   3.090   3.239   4.289
14531TIP3    H243539   3.044   3.120   4.371
14532TIP3   OH243540   0.535   6.463   5.073
14532TIP3    H143541   0.492   6.531   5.124
14532TIP3    H243542   0.464   6.422   5.023
14533TIP3   OH243543   1.132   3.080   0.665
14533TIP3    H143544   1.049   3.089   0.618
14533TIP3    H243545   1.185   3.154   0.635
14534TIP3   OH243546   2.632   7.565   0.772
14534TIP3    H143547   2.571   7.612   0.716
14534TIP3    H243548   2.589   7.559   0.857
14535TIP3   OH243549   0.476   7.750   4.395
14535TIP3    H143550   0.472   7.658   4.369
14535TIP3    H243551   0.402   7.791   4.352
14536TIP3   OH243552   4.734   3.893   6.341
14536TIP3    H143553   4.791   3.853   6.406
14536TIP3    H243554   4.702   3.820   6.288
14537TIP3   OH243555   0.808   6.236   5.408
14537TIP3    H143556   0.818   6.330   5.421
14537TIP3    H243557   0.753   6.228   5.329
14538TIP3   OH243558   3.124   0.451   1.753
14538TIP3    H143559   3.215   0.477   1.770
14538TIP3    H243560   3.092   0.420   1.838
14539TIP3   OH243561   3.379   0.713   0.059
14539TIP3    H143562   3.332   0.743   0.137
14539TIP3    H243563   3.426   0.635   0.087
14540TIP3   OH243564   6.994   1.024   5.297
14540TIP3    H143565   7.012   1.102   5.349
14540TIP3    H243566   6.967   1.058   5.212
14541TIP3   OH243567   7.150   5.018   6.113
14541TIP3    H143568   7.242   5.044   6.123
14541TIP3    H243569   7.127   4.978   6.197
14542TIP3   OH243570   0.411   4.046   2.642
14542TIP3    H143571   0.371   3.970   2.686
14542TIP3    H243572   0.435   4.104   2.714
14543TIP3   OH243573   0.046   2.017   3.511
14543TIP3    H143574  -0.006   2.080   3.561
14543TIP3    H243575   0.011   1.931   3.536
14544TIP3   OH243576   5.896   3.644   2.534
14544TIP3    H143577   5.890   3.655   2.439
14544TIP3    H243578   5.812   3.604   2.559
14545TIP3   OH243579   2.895   7.348   1.418
14545TIP3    H143580   2.951   7.290   1.366
14545TIP3    H243581   2.810   7.304   1.418
14546TIP3   OH243582   0.711   6.580   1.798
14546TIP3    H143583   0.616   6.573   1.786
14546TIP3    H243584   0.729   6.673   1.787
14547TIP3   OH243585   0.604   1.359   1.317
14547TIP3    H143586   0.611   1.376   1.411
14547TIP3    H243587   0.532   1.415   1.288
14548TIP3   OH243588   0.352   2.935   1.358
14548TIP3    H143589   0.305   3.010   1.322
14548TIP3    H243590   0.364   2.956   1.450
14549TIP3   OH243591   7.596   7.345   2.963
14549TIP3    H143592   7.538   7.402   2.912
14549TIP3    H243593   7.622   7.276   2.902
14550TIP3   OH243594   0.454   0.615   2.960
14550TIP3    H143595   0.492   0.633   3.046
14550TIP3    H243596   0.529   0.621   2.900
14551TIP3   OH243597   4.064   1.182   1.233
14551TIP3    H143598   4.063   1.273   1.201
14551TIP3    H243599   3.983   1.144   1.198
14552TIP3   OH243600   3.628   4.956   5.860
14552TIP3    H143601   3.702   4.952   5.921
14552TIP3    H243602   3.666   4.984   5.777
14553TIP3   OH243603   2.616   5.380   3.744
14553TIP3    H143604   2.667   5.311   3.787
14553TIP3    H243605   2.662   5.396   3.661
14554TIP3   OH243606   1.637   0.792   1.631
14554TIP3    H143607   1.638   0.759   1.542
14554TIP3    H243608   1.727   0.823   1.646
14555TIP3   OH243609   0.554   6.512   0.172
14555TIP3    H143610   0.619   6.544   0.234
14555TIP3    H243611   0.560   6.416   0.178
14556TIP3   OH243612   3.684   0.640   0.310
14556TIP3    H143613   3.751   0.622   0.244
14556TIP3    H243614   3.631   0.561   0.313
14557TIP3   OH243615   7.915   4.014   6.073
14557TIP3    H143616   7.948   3.952   6.138
14557TIP3    H243617   7.948   3.980   5.990
14558TIP3   OH243618   7.886   6.465   3.905
14558TIP3    H143619   7.857   6.471   3.997
14558TIP3    H243620   7.981   6.465   3.910
14559TIP3   OH243621   3.230   3.081   6.668
14559TIP3    H143622   3.247   3.095   6.575
14559TIP3    H243623   3.183   3.159   6.696
14560TIP3   OH243624   6.855   0.387   2.572
14560TIP3    H143625   6.881   0.358   2.484
14560TIP3    H243626   6.813   0.471   2.558
14561TIP3   OH243627   5.261   4.375   3.134
14561TIP3    H143628   5.191   4.357   3.071
14561TIP3    H243629   5.217   4.415   3.209
14562TIP3   OH243630   1.458   3.859   5.767
14562TIP3    H143631   1.406   3.922   5.817
14562TIP3    H243632   1.530   3.910   5.732
14563TIP3   OH243633   3.212   0.309   3.413
14563TIP3    H143634   3.251   0.323   3.326
14563TIP3    H243635   3.125   0.347   3.406
14564TIP3   OH243636   5.852   1.401   5.153
14564TIP3    H143637   5.942   1.427   5.133
14564TIP3    H243638   5.851   1.306   5.139
14565TIP3   OH243639   5.605   0.715   4.830
14565TIP3    H143640   5.606   0.621   4.816
14565TIP3    H243641   5.518   0.733   4.864
14566TIP3   OH243642   3.458   4.777   3.448
14566TIP3    H143643   3.436   4.785   3.541
14566TIP3    H243644   3.496   4.690   3.439
14567TIP3   OH243645   5.264   0.463   6.557
14567TIP3    H143646   5.344   0.462   6.505
14567TIP3    H243647   5.202   0.410   6.507
14568TIP3   OH243648   2.947   3.981   0.824
14568TIP3    H143649   2.941   4.037   0.747
14568TIP3    H243650   3.036   3.947   0.823
14569TIP3   OH243651   1.690   3.425   4.705
14569TIP3    H143652   1.771   3.381   4.731
14569TIP3    H243653   1.679   3.405   4.612
14570TIP3   OH243654   2.919   5.934   6.270
14570TIP3    H143655   2.851   5.948   6.203
14570TIP3    H243656   2.922   6.016   6.319
14571TIP3   OH243657   1.732   5.247   4.685
14571TIP3    H143658   1.644   5.265   4.719
14571TIP3    H243659   1.758   5.165   4.728
14572TIP3   OH243660   2.369   6.748   2.932
14572TIP3    H143661   2.345   6.790   3.015
14572TIP3    H243662   2.338   6.658   2.939
14573TIP3   OH243663   5.961   2.667   2.786
14573TIP3    H143664   5.882   2.713   2.761
14573TIP3    H243665   5.972   2.685   2.879
14574TIP3   OH243666   1.975   1.576   0.953
14574TIP3    H143667   1.911   1.630   0.906
14574TIP3    H243668   1.944   1.575   1.043
14575TIP3   OH243669   6.298   5.171   3.486
14575TIP3    H143670   6.211   5.156   3.449
14575TIP3    H243671   6.291   5.253   3.533
14576TIP3   OH243672   3.890   2.954   0.364
14576TIP3    H143673   3.961   2.989   0.309
14576TIP3    H243674   3.831   3.028   0.376
14577TIP3   OH243675   5.435   0.130   6.409
14577TIP3    H143676   5.487   0.171   6.339
14577TIP3    H243677   5.445   0.036   6.394
14578TIP3   OH243678   1.211   0.912   0.163
14578TIP3    H143679   1.268   0.972   0.212
14578TIP3    H243680   1.122   0.946   0.177
14579TIP3   OH243681   5.342   2.597   2.959
14579TIP3    H143682   5.337   2.662   2.889
14579TIP3    H243683   5.425   2.616   3.003
14580TIP3   OH243684   0.233   7.536   2.195
14580TIP3    H143685   0.256   7.606   2.255
14580TIP3    H243686   0.138   7.529   2.202
14581TIP3   OH243687   6.860   7.688   3.983
14581TIP3    H143688   6.797   7.636   3.934
14581TIP3    H243689   6.872   7.767   3.931
14582TIP3   OH243690   0.774   2.232   6.329
14582TIP3    H143691   0.723   2.293   6.276
14582TIP3    H243692   0.864   2.243   6.297
14583TIP3   OH243693   7.766   1.408   5.491
14583TIP3    H143694   7.747   1.380   5.402
14583TIP3    H243695   7.737   1.499   5.494
14584TIP3   OH243696   5.226   6.599   6.221
14584TIP3    H143697   5.311   6.563   6.197
14584TIP3    H243698   5.216   6.676   6.164
14585TIP3   OH243699   6.538   3.925   5.057
14585TIP3    H143700   6.511   3.931   4.965
14585TIP3    H243701   6.630   3.899   5.052
14586TIP3   OH243702   6.097   5.593   6.412
14586TIP3    H143703   6.089   5.682   6.378
14586TIP3    H243704   6.033   5.588   6.483
14587TIP3   OH243705   7.029   6.539   3.187
14587TIP3    H143706   6.974   6.609   3.222
14587TIP3    H243707   7.092   6.584   3.130
14588TIP3   OH243708   4.224   3.794   5.913
14588TIP3    H143709   4.211   3.726   5.848
14588TIP3    H243710   4.280   3.754   5.980
14589TIP3   OH243711   2.969   1.095   5.830
14589TIP3    H143712   2.936   1.099   5.741
14589TIP3    H243713   3.053   1.142   5.827
14590TIP3   OH243714   5.362   6.042   3.814
14590TIP3    H143715   5.315   6.125   3.826
14590TIP3    H243716   5.293   5.976   3.808
14591TIP3   OH243717   5.809   6.890   4.569
14591TIP3    H143718   5.865   6.967   4.574
14591TIP3    H243719   5.734   6.918   4.517
14592TIP3   OH243720   2.963   6.717   1.979
14592TIP3    H143721   3.012   6.788   1.938
14592TIP3    H243722   2.872   6.744   1.972
14593TIP3   OH243723   7.671   4.155   6.405
14593TIP3    H143724   7.645   4.180   6.316
14593TIP3    H243725   7.638   4.066   6.416
14594TIP3   OH243726   7.777   5.905   2.173
14594TIP3    H143727   7.709   5.885   2.110
14594TIP3    H243728   7.849   5.941   2.121
14595TIP3   OH243729   7.627   3.349   0.216
14595TIP3    H143730   7.626   3.254   0.210
14595TIP3    H243731   7.550   3.371   0.269
14596TIP3   OH243732   2.254   6.702   6.177
14596TIP3    H143733   2.331   6.645   6.174
14596TIP3    H243734   2.195   6.660   6.240
14597TIP3   OH243735   6.539   0.693   4.507
14597TIP3    H143736   6.490   0.739   4.575
14597TIP3    H243737   6.542   0.755   4.434
14598TIP3   OH243738   4.514   7.362   6.713
14598TIP3    H143739   4.461   7.285   6.732
14598TIP3    H243740   4.462   7.413   6.652
14599TIP3   OH243741   5.447   1.749   3.538
14599TIP3    H143742   5.368   1.699   3.519
14599TIP3    H243743   5.519   1.695   3.504
14600TIP3   OH243744   2.131   3.688   3.706
14600TIP3    H143745   2.061   3.726   3.652
14600TIP3    H243746   2.114   3.721   3.794
14601TIP3   OH243747   3.320   0.713   5.975
14601TIP3    H143748   3.241   0.714   5.921
14601TIP3    H243749   3.290   0.686   6.062
14602TIP3   OH243750   5.349   0.292   1.311
14602TIP3    H143751   5.291   0.268   1.239
14602TIP3    H243752   5.346   0.388   1.313
14603TIP3   OH243753   4.181   3.163   4.533
14603TIP3    H143754   4.198   3.069   4.537
14603TIP3    H243755   4.086   3.170   4.531
14604TIP3   OH243756   5.475   5.900   0.083
14604TIP3    H143757   5.435   5.814   0.095
14604TIP3    H243758   5.403   5.955   0.051
14605TIP3   OH243759   7.517   2.319   4.991
14605TIP3    H143760   7.526   2.258   5.064
14605TIP3    H243761   7.607   2.344   4.970
14606TIP3   OH243762   2.988   7.177   6.032
14606TIP3    H143763   2.957   7.202   6.118
14606TIP3    H243764   3.072   7.134   6.048
14607TIP3   OH243765   0.671   4.279   0.506
14607TIP3    H143766   0.627   4.289   0.422
14607TIP3    H243767   0.601   4.257   0.567
14608TIP3   OH243768   3.788   0.727   0.558
14608TIP3    H143769   3.746   0.712   0.474
14608TIP3    H243770   3.798   0.640   0.596
14609TIP3   OH243771   6.373   6.725   6.509
14609TIP3    H143772   6.456   6.696   6.547
14609TIP3    H243773   6.333   6.646   6.475
14610TIP3   OH243774   6.878   2.218   1.109
14610TIP3    H143775   6.829   2.228   1.027
14610TIP3    H243776   6.875   2.124   1.128
14611TIP3   OH243777   1.434   3.618   5.629
14611TIP3    H143778   1.438   3.710   5.656
14611TIP3    H243779   1.522   3.599   5.597
14612TIP3   OH243780   6.869   4.983   2.199
14612TIP3    H143781   6.813   4.922   2.150
14612TIP3    H243782   6.935   4.928   2.240
14613TIP3   OH243783   2.019   0.389   2.196
14613TIP3    H143784   1.994   0.366   2.107
14613TIP3    H243785   1.976   0.323   2.251
14614TIP3   OH243786   3.439   7.592   2.368
14614TIP3    H143787   3.440   7.569   2.461
14614TIP3    H243788   3.444   7.687   2.367
14615TIP3   OH243789   1.603   5.268   3.298
14615TIP3    H143790   1.654   5.208   3.244
14615TIP3    H243791   1.626   5.355   3.266
14616TIP3   OH243792   7.813   5.131   1.503
14616TIP3    H143793   7.833   5.224   1.495
14616TIP3    H243794   7.878   5.087   1.449
14617TIP3   OH243795   3.456   2.421   3.113
14617TIP3    H143796   3.497   2.484   3.054
14617TIP3    H243797   3.366   2.451   3.121
14618TIP3   OH243798   3.689   0.376   5.636
14618TIP3    H143799   3.669   0.293   5.679
14618TIP3    H243800   3.604   0.411   5.611
14619TIP3   OH243801   1.789   5.858   2.632
14619TIP3    H143802   1.714   5.841   2.690
14619TIP3    H243803   1.755   5.918   2.566
14620TIP3   OH243804   0.047   2.816   1.108
14620TIP3    H143805  -0.020   2.882   1.126
14620TIP3    H243806  -0.002   2.735   1.095
14621TIP3   OH243807   3.336   6.388   0.431
14621TIP3    H143808   3.416   6.431   0.401
14621TIP3    H243809   3.351   6.371   0.524
14622TIP3   OH243810   1.658   0.484   6.402
14622TIP3    H143811   1.720   0.479   6.474
14622TIP3    H243812   1.713   0.488   6.323
14623TIP3   OH243813   3.728   2.627   6.642
14623TIP3    H143814   3.710   2.551   6.588
14623TIP3    H243815   3.645   2.649   6.683
14624TIP3   OH243816   1.794   7.301   3.090
14624TIP3    H143817   1.840   7.225   3.056
14624TIP3    H243818   1.853   7.375   3.075
14625TIP3   OH243819   3.102   1.243   3.474
14625TIP3    H143820   3.019   1.233   3.521
14625TIP3    H243821   3.079   1.287   3.393
14626TIP3   OH243822   7.381   1.052   3.482
14626TIP3    H143823   7.307   1.000   3.512
14626TIP3    H243824   7.343   1.133   3.449
14627TIP3   OH243825   1.589   3.875   3.304
14627TIP3    H143826   1.593   3.892   3.398
14627TIP3    H243827   1.573   3.961   3.265
14628TIP3   OH243828   4.060   5.429   2.837
14628TIP3    H143829   4.011   5.357   2.876
14628TIP3    H243830   4.150   5.398   2.834
14629TIP3   OH243831   0.757   0.947   6.645
14629TIP3    H143832   0.847   0.956   6.612
14629TIP3    H243833   0.767   0.932   6.739
14630TIP3   OH243834   4.043   5.785   5.043
14630TIP3    H143835   3.962   5.767   4.995
14630TIP3    H243836   4.103   5.716   5.013
14631TIP3   OH243837   0.362   5.728   0.186
14631TIP3    H143838   0.349   5.717   0.092
14631TIP3    H243839   0.421   5.803   0.193
14632TIP3   OH243840   0.354   3.008   6.192
14632TIP3    H143841   0.421   3.061   6.149
14632TIP3    H243842   0.359   3.033   6.284
14633TIP3   OH243843   4.119   6.710   0.185
14633TIP3    H143844   4.083   6.646   0.123
14633TIP3    H243845   4.205   6.674   0.209
14634TIP3   OH243846   1.412   3.992   0.017
14634TIP3    H143847   1.383   3.962  -0.069
14634TIP3    H243848   1.332   4.012   0.065
14635TIP3   OH243849   4.112   5.311   0.106
14635TIP3    H143850   4.155   5.394   0.128
14635TIP3    H243851   4.056   5.333   0.031
14636TIP3   OH243852   0.543   2.969   6.466
14636TIP3    H143853   0.608   3.001   6.403
14636TIP3    H243854   0.475   3.036   6.466
14637TIP3   OH243855   0.638   7.453   2.774
14637TIP3    H143856   0.592   7.433   2.855
14637TIP3    H243857   0.569   7.474   2.711
14638TIP3   OH243858   6.439   4.795   0.311
14638TIP3    H143859   6.394   4.773   0.393
14638TIP3    H243860   6.372   4.785   0.243
14639TIP3   OH243861   0.221   7.707   5.256
14639TIP3    H143862   0.276   7.782   5.277
14639TIP3    H243863   0.153   7.742   5.198
14640TIP3   OH243864   6.962   6.600   1.808
14640TIP3    H143865   7.024   6.635   1.743
14640TIP3    H243866   6.934   6.676   1.858
14641TIP3   OH243867   6.205   1.836   6.635
14641TIP3    H143868   6.184   1.744   6.647
14641TIP3    H243869   6.126   1.883   6.663
14642TIP3   OH243870   6.458   0.476   0.835
14642TIP3    H143871   6.416   0.549   0.789
14642TIP3    H243872   6.457   0.503   0.927
14643TIP3   OH243873   5.748   6.628   0.767
14643TIP3    H143874   5.760   6.549   0.819
14643TIP3    H243875   5.835   6.668   0.764
14644TIP3   OH243876   2.280   6.135   5.049
14644TIP3    H143877   2.376   6.130   5.052
14644TIP3    H243878   2.260   6.141   4.956
14645TIP3   OH243879   7.819   4.844   4.254
14645TIP3    H143880   7.751   4.853   4.188
14645TIP3    H243881   7.808   4.921   4.310
14646TIP3   OH243882   7.190   1.531   5.208
14646TIP3    H143883   7.100   1.505   5.187
14646TIP3    H243884   7.207   1.607   5.151
14647TIP3   OH243885   5.209   6.483   0.725
14647TIP3    H143886   5.163   6.399   0.727
14647TIP3    H243887   5.153   6.540   0.674
14648TIP3   OH243888   0.596   0.472   6.179
14648TIP3    H143889   0.666   0.446   6.119
14648TIP3    H243890   0.621   0.432   6.263
14649TIP3   OH243891   7.246   0.798   1.211
14649TIP3    H143892   7.276   0.788   1.301
14649TIP3    H243893   7.172   0.738   1.203
14650TIP3   OH243894   3.387   4.174   6.697
14650TIP3    H143895   3.306   4.215   6.727
14650TIP3    H243896   3.449   4.188   6.768
14651TIP3   OH243897   2.963   4.028   1.561
14651TIP3    H143898   2.907   4.020   1.639
14651TIP3    H243899   2.902   4.035   1.488
14652TIP3   OH243900   3.614   5.577   2.565
14652TIP3    H143901   3.650   5.632   2.634
14652TIP3    H243902   3.653   5.611   2.484
14653TIP3   OH243903   1.840   6.001   5.282
14653TIP3    H143904   1.830   6.058   5.359
14653TIP3    H243905   1.892   6.052   5.221
14654TIP3   OH243906   8.008   5.984   2.055
14654TIP3    H143907   8.043   6.045   1.989
14654TIP3    H243908   8.010   6.034   2.137
14655TIP3   OH243909   2.050   3.825   2.229
14655TIP3    H143910   2.049   3.915   2.195
14655TIP3    H243911   2.142   3.806   2.243
14656TIP3   OH243912   7.326   2.659   1.650
14656TIP3    H143913   7.237   2.687   1.630
14656TIP3    H243914   7.382   2.726   1.610
14657TIP3   OH243915   6.161   1.151   6.435
14657TIP3    H143916   6.176   1.199   6.354
14657TIP3    H243917   6.089   1.197   6.477
14658TIP3   OH243918   4.802   3.284   5.117
14658TIP3    H143919   4.767   3.260   5.032
14658TIP3    H243920   4.852   3.364   5.102
14659TIP3   OH243921   1.387   5.720   0.697
14659TIP3    H143922   1.426   5.760   0.774
14659TIP3    H243923   1.435   5.639   0.685
14660TIP3   OH243924   2.521   6.405   5.729
14660TIP3    H143925   2.479   6.337   5.677
14660TIP3    H243926   2.478   6.486   5.703
14661TIP3   OH243927   7.051   5.545   1.948
14661TIP3    H143928   7.079   5.457   1.928
14661TIP3    H243929   7.049   5.590   1.864
14662TIP3   OH243930   8.241   0.577   3.884
14662TIP3    H143931   8.198   0.568   3.969
14662TIP3    H243932   8.187   0.640   3.836
14663TIP3   OH243933   7.792   2.226   1.328
14663TIP3    H143934   7.841   2.173   1.266
14663TIP3    H243935   7.794   2.315   1.292
14664TIP3   OH243936   2.526   0.089   3.572
14664TIP3    H143937   2.550   0.161   3.631
14664TIP3    H243938   2.438   0.064   3.598
14665TIP3   OH243939   2.335   3.623   5.882
14665TIP3    H143940   2.282   3.620   5.803
14665TIP3    H243941   2.424   3.642   5.850
14666TIP3   OH243942   0.535   3.657   2.910
14666TIP3    H143943   0.601   3.592   2.887
14666TIP3    H243944   0.466   3.607   2.954
14667TIP3   OH243945   0.961   2.245   4.244
14667TIP3    H143946   0.924   2.203   4.166
14667TIP3    H243947   1.051   2.266   4.219
14668TIP3   OH243948   6.054   7.056   5.414
14668TIP3    H143949   6.101   7.129   5.454
14668TIP3    H243950   6.013   7.010   5.488
14669TIP3   OH243951   7.379   7.597   0.103
14669TIP3    H143952   7.312   7.549   0.152
14669TIP3    H243953   7.446   7.618   0.168
14670TIP3   OH243954   6.200   0.934   0.739
14670TIP3    H143955   6.119   0.927   0.689
14670TIP3    H243956   6.178   0.901   0.826
14671TIP3   OH243957   0.537   1.376   3.899
14671TIP3    H143958   0.555   1.383   3.993
14671TIP3    H243959   0.469   1.441   3.884
14672TIP3   OH243960   4.988   1.422   6.695
14672TIP3    H143961   4.997   1.440   6.601
14672TIP3    H243962   4.937   1.495   6.728
14673TIP3   OH243963   2.666   0.950   4.131
14673TIP3    H143964   2.693   0.859   4.138
14673TIP3    H243965   2.650   0.964   4.038
14674TIP3   OH243966   7.142   0.904   3.516
14674TIP3    H143967   7.103   0.817   3.521
14674TIP3    H243968   7.067   0.964   3.524
14675TIP3   OH243969   5.914   1.234   6.544
14675TIP3    H143970   5.874   1.160   6.499
14675TIP3    H243971   5.923   1.204   6.635
14676TIP3   OH243972   4.894   0.689   0.353
14676TIP3    H143973   4.819   0.712   0.408
14676TIP3    H243974   4.873   0.602   0.319
14677TIP3   OH243975   4.166   4.181   6.085
14677TIP3    H143976   4.083   4.218   6.115
14677TIP3    H243977   4.233   4.226   6.137
14678TIP3   OH243978   5.633   3.219   0.289
14678TIP3    H143979   5.575   3.153   0.252
14678TIP3    H243980   5.575   3.286   0.324
14679TIP3   OH243981   2.642   2.423   4.410
14679TIP3    H143982   2.671   2.377   4.331
14679TIP3    H243983   2.570   2.370   4.443
14680TIP3   OH243984   2.497   0.266   0.287
14680TIP3    H143985   2.426   0.289   0.227
14680TIP3    H243986   2.468   0.298   0.372
14681TIP3   OH243987   4.132   0.446   0.502
14681TIP3    H143988   4.084   0.412   0.426
14681TIP3    H243989   4.223   0.419   0.487
14682TIP3   OH243990   1.944   0.672   2.602
14682TIP3    H143991   2.018   0.636   2.651
14682TIP3    H243992   1.963   0.766   2.594
14683TIP3   OH243993   3.510   3.401   0.060
14683TIP3    H143994   3.534   3.375   0.149
14683TIP3    H243995   3.537   3.493   0.055
14684TIP3   OH243996   7.310   1.356   5.542
14684TIP3    H143997   7.344   1.325   5.626
14684TIP3    H243998   7.232   1.407   5.565
14685TIP3   OH243999   2.895   2.329   0.992
14685TIP3    H144000   2.823   2.291   1.042
14685TIP3    H244001   2.856   2.406   0.950
14686TIP3   OH244002   2.557   7.459   2.521
14686TIP3    H144003   2.472   7.456   2.476
14686TIP3    H244004   2.536   7.487   2.610
14687TIP3   OH244005   2.736   2.696   0.149
14687TIP3    H144006   2.709   2.785   0.127
14687TIP3    H244007   2.705   2.682   0.238
14688TIP3   OH244008   1.519   4.583   1.291
14688TIP3    H144009   1.543   4.575   1.384
14688TIP3    H244010   1.513   4.493   1.260
14689TIP3   OH244011   0.712   0.564   5.624
14689TIP3    H144012   0.645   0.609   5.675
14689TIP3    H244013   0.675   0.559   5.536
14690TIP3   OH244014   7.328   6.972   1.446
14690TIP3    H144015   7.294   7.058   1.472
14690TIP3    H244016   7.386   6.947   1.518
14691TIP3   OH244017   2.575   1.980   4.313
14691TIP3    H144018   2.553   1.917   4.244
14691TIP3    H244019   2.536   2.062   4.284
14692TIP3   OH244020   2.755   3.049   2.651
14692TIP3    H144021   2.700   3.065   2.575
14692TIP3    H244022   2.755   3.133   2.699
14693TIP3   OH244023   8.071   1.753   1.334
14693TIP3    H144024   8.144   1.690   1.334
14693TIP3    H244025   8.021   1.732   1.256
14694TIP3   OH244026   3.271   0.623   1.392
14694TIP3    H144027   3.300   0.710   1.421
14694TIP3    H244028   3.176   0.630   1.386
14695TIP3   OH244029   7.307   6.843   6.765
14695TIP3    H144030   7.388   6.875   6.725
14695TIP3    H244031   7.254   6.921   6.778
14696TIP3   OH244032   2.318   3.833   2.337
14696TIP3    H144033   2.402   3.852   2.294
14696TIP3    H244034   2.343   3.785   2.416
14697TIP3   OH244035   0.314   3.518   0.401
14697TIP3    H144036   0.256   3.594   0.405
14697TIP3    H244037   0.400   3.551   0.423
14698TIP3   OH244038   6.590   6.307   5.038
14698TIP3    H144039   6.614   6.215   5.053
14698TIP3    H244040   6.498   6.304   5.013
14699TIP3   OH244041   2.164   0.315   0.920
14699TIP3    H144042   2.211   0.355   0.992
14699TIP3    H244043   2.212   0.234   0.901
14700TIP3   OH244044   1.583   4.686   3.250
14700TIP3    H144045   1.538   4.712   3.169
14700TIP3    H244046   1.538   4.606   3.278
14701TIP3   OH244047   6.705   5.703   1.723
14701TIP3    H144048   6.681   5.640   1.791
14701TIP3    H244049   6.769   5.761   1.765
14702TIP3   OH244050   3.930   5.255   5.988
14702TIP3    H144051   3.994   5.189   5.960
14702TIP3    H244052   3.916   5.237   6.081
14703TIP3   OH244053   8.284   6.850   5.071
14703TIP3    H144054   8.356   6.799   5.035
14703TIP3    H244055   8.207   6.823   5.021
14704TIP3   OH244056   3.136   6.387   1.110
14704TIP3    H144057   3.186   6.313   1.146
14704TIP3    H244058   3.155   6.460   1.169
14705TIP3   OH244059   2.432   6.383   5.144
14705TIP3    H144060   2.515   6.399   5.101
14705TIP3    H244061   2.366   6.401   5.077
14706TIP3   OH244062   7.731   0.197   6.437
14706TIP3    H144063   7.705   0.139   6.366
14706TIP3    H244064   7.648   0.222   6.478
14707TIP3   OH244065   0.725   1.635   5.928
14707TIP3    H144066   0.758   1.603   6.011
14707TIP3    H244067   0.631   1.648   5.943
14708TIP3   OH244068   7.090   0.643   3.303
14708TIP3    H144069   7.026   0.580   3.271
14708TIP3    H244070   7.064   0.661   3.393
14709TIP3   OH244071   1.889   1.883   4.023
14709TIP3    H144072   1.906   1.823   4.096
14709TIP3    H244073   1.798   1.909   4.034
14710TIP3   OH244074   5.522   3.296   1.739
14710TIP3    H144075   5.456   3.312   1.672
14710TIP3    H244076   5.605   3.297   1.691
14711TIP3   OH244077   3.317   6.623   2.233
14711TIP3    H144078   3.236   6.603   2.281
14711TIP3    H244079   3.372   6.546   2.247
14712TIP3   OH244080   1.318   7.617   1.559
14712TIP3    H144081   1.270   7.661   1.629
14712TIP3    H244082   1.269   7.637   1.480
14713TIP3   OH244083   7.494   0.819   1.747
14713TIP3    H144084   7.555   0.757   1.706
14713TIP3    H244085   7.540   0.852   1.823
14714TIP3   OH244086   5.516   5.882   1.500
14714TIP3    H144087   5.421   5.882   1.488
14714TIP3    H244088   5.548   5.940   1.431
14715TIP3   OH244089   3.212   4.100   3.217
14715TIP3    H144090   3.178   4.067   3.300
14715TIP3    H244091   3.145   4.162   3.187
14716TIP3   OH244092   2.507   7.277   3.220
14716TIP3    H144093   2.568   7.204   3.229
14716TIP3    H244094   2.432   7.240   3.174
14717TIP3   OH244095   1.400   3.058   6.185
14717TIP3    H144096   1.489   3.090   6.198
14717TIP3    H244097   1.384   2.999   6.259
14718TIP3   OH244098   4.282   5.764   0.943
14718TIP3    H144099   4.214   5.697   0.932
14718TIP3    H244100   4.316   5.749   1.031
14719TIP3   OH244101   5.784   7.651   2.426
14719TIP3    H144102   5.774   7.631   2.520
14719TIP3    H244103   5.860   7.599   2.400
14720TIP3   OH244104   7.872   3.352   2.667
14720TIP3    H144105   7.809   3.356   2.595
14720TIP3    H244106   7.915   3.438   2.666
14721TIP3   OH244107   0.541   2.671   0.044
14721TIP3    H144108   0.540   2.582   0.010
14721TIP3    H244109   0.600   2.718  -0.014
14722TIP3   OH244110   1.304   0.611   5.198
14722TIP3    H144111   1.279   0.601   5.290
14722TIP3    H244112   1.275   0.699   5.175
14723TIP3   OH244113   6.347   7.641   1.151
14723TIP3    H144114   6.419   7.666   1.093
14723TIP3    H244115   6.389   7.606   1.229
14724TIP3   OH244116   7.928   2.529   4.143
14724TIP3    H144117   7.921   2.558   4.234
14724TIP3    H244118   8.019   2.547   4.118
14725TIP3   OH244119   4.992   2.817   3.056
14725TIP3    H144120   4.971   2.903   3.018
14725TIP3    H244121   4.912   2.766   3.044
14726TIP3   OH244122   2.609   6.244   4.474
14726TIP3    H144123   2.609   6.172   4.412
14726TIP3    H244124   2.566   6.316   4.428
14727TIP3   OH244125   6.945   3.815   0.047
14727TIP3    H144126   6.976   3.833   0.136
14727TIP3    H244127   6.902   3.896   0.020
14728TIP3   OH244128   1.854   4.342   1.429
14728TIP3    H144129   1.936   4.365   1.474
14728TIP3    H244130   1.864   4.379   1.341
14729TIP3   OH244131   5.744   3.869   0.762
14729TIP3    H144132   5.691   3.942   0.794
14729TIP3    H244133   5.778   3.900   0.677
14730TIP3   OH244134   6.882   4.532   1.668
14730TIP3    H144135   6.952   4.545   1.732
14730TIP3    H244136   6.917   4.466   1.608
14731TIP3   OH244137   4.731   4.980   6.705
14731TIP3    H144138   4.777   5.036   6.768
14731TIP3    H244139   4.764   5.007   6.620
14732TIP3   OH244140   3.194   4.465   0.611
14732TIP3    H144141   3.207   4.444   0.704
14732TIP3    H244142   3.272   4.515   0.587
14733TIP3   OH244143   4.467   3.947   6.314
14733TIP3    H144144   4.426   3.994   6.387
14733TIP3    H244145   4.560   3.946   6.335
14734TIP3   OH244146   3.075   3.521   6.076
14734TIP3    H144147   3.120   3.606   6.077
14734TIP3    H244148   3.070   3.499   5.983
14735TIP3   OH244149   2.883   5.220   4.082
14735TIP3    H144150   2.845   5.191   4.165
14735TIP3    H244151   2.828   5.294   4.056
14736TIP3   OH244152   0.181   3.225   3.682
14736TIP3    H144153   0.104   3.223   3.739
14736TIP3    H244154   0.174   3.307   3.634
14737TIP3   OH244155   2.213   7.580   1.988
14737TIP3    H144156   2.219   7.605   2.080
14737TIP3    H244157   2.121   7.595   1.964
14738TIP3   OH244158   3.566   0.300   2.496
14738TIP3    H144159   3.564   0.295   2.591
14738TIP3    H244160   3.510   0.228   2.467
14739TIP3   OH244161   7.137   6.714   5.726
14739TIP3    H144162   7.044   6.733   5.722
14739TIP3    H244163   7.178   6.783   5.673
14740TIP3   OH244164   2.022   6.041   2.769
14740TIP3    H144165   1.969   5.986   2.711
14740TIP3    H244166   2.026   6.126   2.723
14741TIP3   OH244167   6.778   0.939   5.901
14741TIP3    H144168   6.800   0.901   5.815
14741TIP3    H244169   6.686   0.964   5.893
14742TIP3   OH244170   0.485   5.747   4.827
14742TIP3    H144171   0.518   5.689   4.759
14742TIP3    H244172   0.562   5.797   4.854
14743TIP3   OH244173   8.307   4.077   4.978
14743TIP3    H144174   8.280   4.164   5.007
14743TIP3    H244175   8.252   4.017   5.028
14744TIP3   OH244176   1.250   6.484   4.414
14744TIP3    H144177   1.179   6.479   4.350
14744TIP3    H244178   1.253   6.396   4.453
14745TIP3   OH244179   0.425   4.024   1.903
14745TIP3    H144180   0.408   4.056   1.814
14745TIP3    H244181   0.515   3.990   1.899
14746TIP3   OH244182   7.735   2.692   5.266
14746TIP3    H144183   7.677   2.753   5.311
14746TIP3    H244184   7.716   2.607   5.306
14747TIP3   OH244185   6.441   5.672   5.965
14747TIP3    H144186   6.399   5.723   5.896
14747TIP3    H244187   6.371   5.656   6.029
14748TIP3   OH244188   3.464   7.700   5.072
14748TIP3    H144189   3.459   7.606   5.084
14748TIP3    H244190   3.374   7.731   5.084
14749TIP3   OH244191   6.165   3.701   5.393
14749TIP3    H144192   6.084   3.730   5.436
14749TIP3    H244193   6.200   3.781   5.353
14750TIP3   OH244194   7.569   1.109   6.019
14750TIP3    H144195   7.663   1.105   6.037
14750TIP3    H244196   7.556   1.052   5.943
14751TIP3   OH244197   6.603   6.237   2.637
14751TIP3    H144198   6.569   6.229   2.548
14751TIP3    H244199   6.695   6.211   2.631
14752TIP3   OH244200   4.848   6.295   0.716
14752TIP3    H144201   4.772   6.243   0.691
14752TIP3    H244202   4.825   6.330   0.803
14753TIP3   OH244203   0.779   5.599   4.560
14753TIP3    H144204   0.796   5.509   4.588
14753TIP3    H244205   0.691   5.618   4.593
14754TIP3   OH244206   4.489   6.541   3.558
14754TIP3    H144207   4.440   6.592   3.494
14754TIP3    H244208   4.430   6.471   3.585
14755TIP3   OH244209   7.901   5.601   0.091
14755TIP3    H144210   7.810   5.573   0.100
14755TIP3    H244211   7.948   5.522   0.064
14756TIP3   OH244212   1.037   0.226   1.024
14756TIP3    H144213   1.101   0.238   0.953
14756TIP3    H244214   0.961   0.277   0.995
14757TIP3   OH244215   7.033   5.107   5.193
14757TIP3    H144216   7.124   5.081   5.182
14757TIP3    H244217   6.984   5.053   5.130
14758TIP3   OH244218   4.314   3.773   0.386
14758TIP3    H144219   4.403   3.806   0.398
14758TIP3    H244220   4.277   3.773   0.475
14759TIP3   OH244221   5.768   7.712   0.829
14759TIP3    H144222   5.723   7.792   0.802
14759TIP3    H244223   5.702   7.662   0.877
14760TIP3   OH244224   2.010   4.736   2.852
14760TIP3    H144225   2.004   4.827   2.821
14760TIP3    H244226   2.068   4.694   2.789
14761TIP3   OH244227   1.595   0.328   2.205
14761TIP3    H144228   1.613   0.240   2.237
14761TIP3    H244229   1.642   0.334   2.122
14762TIP3   OH244230   7.170   7.343   3.976
14762TIP3    H144231   7.092   7.309   4.020
14762TIP3    H244232   7.227   7.267   3.965
14763TIP3   OH244233   0.186   4.968   0.328
14763TIP3    H144234   0.258   5.031   0.322
14763TIP3    H244235   0.171   4.940   0.237
14764TIP3   OH244236   3.682   4.630   2.272
14764TIP3    H144237   3.643   4.629   2.185
14764TIP3    H244238   3.753   4.694   2.266
14765TIP3   OH244239   4.399   7.435   3.020
14765TIP3    H144240   4.344   7.388   2.958
14765TIP3    H244241   4.444   7.366   3.070
14766TIP3   OH244242   8.253   5.270   4.811
14766TIP3    H144243   8.197   5.303   4.881
14766TIP3    H244244   8.291   5.349   4.772
14767TIP3   OH244245   4.181   7.320   1.563
14767TIP3    H144246   4.253   7.260   1.548
14767TIP3    H244247   4.217   7.407   1.544
14768TIP3   OH244248   7.321   4.692   3.459
14768TIP3    H144249   7.408   4.702   3.499
14768TIP3    H244250   7.291   4.606   3.486
14769TIP3   OH244251   6.712   0.950   3.117
14769TIP3    H144252   6.679   0.862   3.096
14769TIP3    H244253   6.789   0.960   3.060
14770TIP3   OH244254   1.160   3.712   3.725
14770TIP3    H144255   1.088   3.649   3.725
14770TIP3    H244256   1.165   3.741   3.816
14771TIP3   OH244257   6.958   1.094   4.753
14771TIP3    H144258   7.044   1.061   4.730
14771TIP3    H244259   6.975   1.166   4.814
14772TIP3   OH244260   3.575   0.982   1.824
14772TIP3    H144261   3.574   1.071   1.860
14772TIP3    H244262   3.565   0.994   1.730
14773TIP3   OH244263   7.732   3.691   5.890
14773TIP3    H144264   7.741   3.596   5.897
14773TIP3    H244265   7.653   3.712   5.941
14774TIP3   OH244266   7.993   3.284   6.256
14774TIP3    H144267   7.985   3.332   6.338
14774TIP3    H244268   7.918   3.224   6.256
14775TIP3   OH244269   3.208   0.784   3.204
14775TIP3    H144270   3.216   0.855   3.140
14775TIP3    H244271   3.164   0.713   3.157
14776TIP3   OH244272   5.256   7.660   6.392
14776TIP3    H144273   5.222   7.714   6.463
14776TIP3    H244274   5.289   7.722   6.328
14777TIP3   OH244275   5.465   5.358   1.541
14777TIP3    H144276   5.398   5.368   1.474
14777TIP3    H244277   5.518   5.437   1.534
14778TIP3   OH244278   0.980   4.345   2.620
14778TIP3    H144279   0.907   4.391   2.578
14778TIP3    H244280   1.000   4.273   2.560
14779TIP3   OH244281   6.912   3.054   6.030
14779TIP3    H144282   6.953   3.089   5.951
14779TIP3    H244283   6.936   3.116   6.099
14780TIP3   OH244284   3.120   1.553   3.165
14780TIP3    H144285   3.078   1.586   3.086
14780TIP3    H244286   3.048   1.534   3.225
14781TIP3   OH244287   3.514   0.318   4.534
14781TIP3    H144288   3.484   0.291   4.621
14781TIP3    H244289   3.551   0.405   4.547
14782TIP3   OH244290   6.424   0.321   3.100
14782TIP3    H144291   6.364   0.332   3.173
14782TIP3    H244292   6.379   0.260   3.041
14783TIP3   OH244293   6.826   5.844   6.646
14783TIP3    H144294   6.861   5.930   6.669
14783TIP3    H244295   6.732   5.850   6.666
14784TIP3   OH244296  -0.020   4.750   2.072
14784TIP3    H144297   0.010   4.691   2.142
14784TIP3    H244298   0.029   4.830   2.085
14785TIP3   OH244299   7.438   4.450   1.193
14785TIP3    H144300   7.415   4.538   1.163
14785TIP3    H244301   7.354   4.407   1.209
14786TIP3   OH244302   4.372   5.816   4.822
14786TIP3    H144303   4.313   5.884   4.856
14786TIP3    H244304   4.449   5.864   4.792
14787TIP3   OH244305   4.636   0.726   5.426
14787TIP3    H144306   4.680   0.642   5.443
14787TIP3    H244307   4.549   0.714   5.463
14788TIP3   OH244308   2.056   2.116   3.837
14788TIP3    H144309   2.072   2.191   3.779
14788TIP3    H244310   2.139   2.069   3.839
14789TIP3   OH244311   2.459   5.569   5.685
14789TIP3    H144312   2.478   5.493   5.740
14789TIP3    H244313   2.514   5.559   5.608
14790TIP3   OH244314   7.318   6.339   0.326
14790TIP3    H144315   7.276   6.254   0.337
14790TIP3    H244316   7.377   6.346   0.400
14791TIP3   OH244317   2.219   3.136   2.558
14791TIP3    H144318   2.308   3.157   2.533
14791TIP3    H244319   2.171   3.131   2.475
14792TIP3   OH244320   4.519   0.243   6.166
14792TIP3    H144321   4.582   0.265   6.097
14792TIP3    H244322   4.434   0.243   6.121
14793TIP3   OH244323   6.266   4.134   6.252
14793TIP3    H144324   6.216   4.192   6.310
14793TIP3    H244325   6.207   4.116   6.179
14794TIP3   OH244326   7.771   1.850   0.043
14794TIP3    H144327   7.860   1.815   0.037
14794TIP3    H244328   7.739   1.851  -0.047
14795TIP3   OH244329   6.788   7.687   6.583
14795TIP3    H144330   6.767   7.699   6.490
14795TIP3    H244331   6.791   7.592   6.595
14796TIP3   OH244332   1.031   4.227   3.590
14796TIP3    H144333   1.041   4.137   3.620
14796TIP3    H244334   0.937   4.243   3.597
14797TIP3   OH244335   7.506   1.349   4.481
14797TIP3    H144336   7.551   1.434   4.478
14797TIP3    H244337   7.577   1.285   4.486
14798TIP3   OH244338   6.589   4.675   2.888
14798TIP3    H144339   6.538   4.691   2.809
14798TIP3    H244340   6.544   4.726   2.955
14799TIP3   OH244341   2.874   1.388   1.209
14799TIP3    H144342   2.919   1.465   1.244
14799TIP3    H244343   2.797   1.423   1.164
14800TIP3   OH244344   4.838   4.434   4.683
14800TIP3    H144345   4.794   4.377   4.620
14800TIP3    H244346   4.925   4.447   4.647
14801TIP3   OH244347   6.622   0.135   6.185
14801TIP3    H144348   6.686   0.103   6.248
14801TIP3    H244349   6.675   0.171   6.113
14802TIP3   OH244350   3.464   4.164   2.739
14802TIP3    H144351   3.472   4.258   2.754
14802TIP3    H244352   3.387   4.137   2.789
14803TIP3   OH244353   2.141   4.450   2.139
14803TIP3    H144354   2.082   4.457   2.064
14803TIP3    H244355   2.138   4.358   2.164
14804TIP3   OH244356   7.751   5.013   6.079
14804TIP3    H144357   7.700   5.050   6.150
14804TIP3    H244358   7.765   4.921   6.104
14805TIP3   OH244359   7.302   5.382   0.263
14805TIP3    H144360   7.365   5.406   0.331
14805TIP3    H244361   7.351   5.323   0.205
14806TIP3   OH244362   7.838   4.559   3.479
14806TIP3    H144363   7.826   4.640   3.528
14806TIP3    H244364   7.754   4.514   3.487
14807TIP3   OH244365   1.229   2.373   0.947
14807TIP3    H144366   1.312   2.414   0.973
14807TIP3    H244367   1.250   2.325   0.867
14808TIP3   OH244368   4.915   6.070   3.333
14808TIP3    H144369   4.964   6.000   3.376
14808TIP3    H244370   4.977   6.110   3.272
14809TIP3   OH244371   5.797   6.156   3.389
14809TIP3    H144372   5.868   6.221   3.388
14809TIP3    H244373   5.779   6.140   3.296
14810TIP3   OH244374   2.940   0.648   0.731
14810TIP3    H144375   2.974   0.723   0.683
14810TIP3    H244376   2.975   0.658   0.820
14811TIP3   OH244377   7.968   5.657   5.775
14811TIP3    H144378   7.970   5.572   5.820
14811TIP3    H244379   7.881   5.659   5.734
14812TIP3   OH244380   7.587   7.123   1.503
14812TIP3    H144381   7.536   7.182   1.448
14812TIP3    H244382   7.637   7.069   1.441
14813TIP3   OH244383   5.194   7.123   4.295
14813TIP3    H144384   5.141   7.181   4.239
14813TIP3    H244385   5.268   7.097   4.240
14814TIP3   OH244386   1.657   1.844   1.543
14814TIP3    H144387   1.714   1.888   1.607
14814TIP3    H244388   1.598   1.913   1.513
14815TIP3   OH244389   6.260   2.736   4.754
14815TIP3    H144390   6.248   2.778   4.839
14815TIP3    H244391   6.214   2.793   4.693
14816TIP3   OH244392   2.677   4.445   4.296
14816TIP3    H144393   2.742   4.476   4.358
14816TIP3    H244394   2.663   4.353   4.320
14817TIP3   OH244395   6.791   7.139   0.051
14817TIP3    H144396   6.835   7.092  -0.020
14817TIP3    H244397   6.703   7.101   0.055
14818TIP3   OH244398   5.926   5.734   5.093
14818TIP3    H144399   5.905   5.811   5.039
14818TIP3    H244400   6.012   5.754   5.131
14819TIP3   OH244401   2.354   2.166   1.532
14819TIP3    H144402   2.421   2.211   1.482
14819TIP3    H244403   2.309   2.111   1.468
14820TIP3   OH244404   3.265   7.355   4.083
14820TIP3    H144405   3.356   7.353   4.112
14820TIP3    H244406   3.270   7.359   3.987
14821TIP3   OH244407   4.142   0.096   4.939
14821TIP3    H144408   4.180   0.017   4.978
14821TIP3    H244409   4.116   0.068   4.851
14822TIP3   OH244410   1.316   1.513   0.783
14822TIP3    H144411   1.231   1.473   0.766
14822TIP3    H244412   1.309   1.601   0.746
14823TIP3   OH244413   5.310   1.752   5.262
14823TIP3    H144414   5.277   1.809   5.331
14823TIP3    H244415   5.322   1.810   5.187
14824TIP3   OH244416   4.321   6.852   2.282
14824TIP3    H144417   4.240   6.890   2.248
14824TIP3    H244418   4.334   6.773   2.229
14825TIP3   OH244419   6.079   4.395   5.257
14825TIP3    H144420   6.115   4.315   5.219
14825TIP3    H244421   6.036   4.365   5.337
14826TIP3   OH244422   1.159   4.007   3.133
14826TIP3    H144423   1.140   3.977   3.222
14826TIP3    H244424   1.154   3.927   3.080
14827TIP3   OH244425   1.284   0.952   2.729
14827TIP3    H144426   1.363   0.998   2.700
14827TIP3    H244427   1.238   0.930   2.648
14828TIP3   OH244428   2.823   3.419   0.644
14828TIP3    H144429   2.764   3.494   0.637
14828TIP3    H244430   2.773   3.346   0.607
14829TIP3   OH244431   2.878   0.553   6.105
14829TIP3    H144432   2.880   0.487   6.174
14829TIP3    H244433   2.785   0.569   6.090
14830TIP3   OH244434   7.224   0.524   2.421
14830TIP3    H144435   7.274   0.579   2.361
14830TIP3    H244436   7.201   0.447   2.369
14831TIP3   OH244437   0.310   6.013   2.440
14831TIP3    H144438   0.232   5.962   2.415
14831TIP3    H244439   0.307   6.015   2.535
14832TIP3   OH244440   5.262   1.019   5.334
14832TIP3    H144441   5.239   1.029   5.241
14832TIP3    H244442   5.299   1.103   5.359
14833TIP3   OH244443   4.613   2.596   6.693
14833TIP3    H144444   4.652   2.593   6.605
14833TIP3    H244445   4.518   2.596   6.676
14834TIP3   OH244446   1.806   4.293   1.151
14834TIP3    H144447   1.770   4.205   1.167
14834TIP3    H244448   1.896   4.276   1.123
14835TIP3   OH244449   2.026   4.319   4.220
14835TIP3    H144450   1.936   4.287   4.213
14835TIP3    H244451   2.018   4.403   4.265
14836TIP3   OH244452   1.139   1.593   3.536
14836TIP3    H144453   1.193   1.517   3.556
14836TIP3    H244454   1.180   1.633   3.460
14837TIP3   OH244455   2.071   6.108   0.839
14837TIP3    H144456   2.145   6.142   0.889
14837TIP3    H244457   2.086   6.014   0.834
14838TIP3   OH244458   6.144   3.426   1.579
14838TIP3    H144459   6.056   3.457   1.556
14838TIP3    H244460   6.202   3.465   1.514
14839TIP3   OH244461   0.375   4.310   1.429
14839TIP3    H144462   0.438   4.366   1.472
14839TIP3    H244463   0.364   4.235   1.488
   8.28287   7.80917   6.76293   0.00000   0.00000  -2.76095   0.00000  -2.76095  -3.90458
