Title t= 365.00000 step= 182500
46055
    1GLY      N    1   2.400   3.137   0.882
    1GLY    HT1    2   2.482   3.159   0.821
    1GLY    HT2    3   2.331   3.215   0.875
    1GLY    HT3    4   2.363   3.049   0.841
    1GLY     CA    5   2.432   3.124   1.023
    1GLY    HA1    6   2.452   3.023   1.056
    1GLY    HA2    7   2.348   3.169   1.074
    1GLY      C    8   2.554   3.205   1.067
    1GLY      O    9   2.659   3.140   1.052
    2PRO      N   10   2.558   3.327   1.122
    2PRO     CD   11   2.442   3.392   1.177
    2PRO    HD1   12   2.370   3.321   1.224
    2PRO    HD2   13   2.393   3.461   1.106
    2PRO     CA   14   2.679   3.375   1.185
    2PRO     HA   15   2.749   3.401   1.107
    2PRO     CB   16   2.628   3.499   1.260
    2PRO    HB1   17   2.632   3.584   1.189
    2PRO    HB2   18   2.688   3.536   1.346
    2PRO     CG   19   2.482   3.468   1.298
    2PRO    HG1   20   2.483   3.400   1.386
    2PRO    HG2   21   2.416   3.556   1.305
    2PRO      C   22   2.742   3.283   1.289
    2PRO      O   23   2.674   3.235   1.377
    3GLY      N   24   2.877   3.270   1.283
    3GLY     HN   25   2.928   3.339   1.231
    3GLY     CA   26   2.959   3.207   1.388
    3GLY    HA1   27   3.059   3.239   1.363
    3GLY    HA2   28   2.936   3.101   1.388
    3GLY      C   29   2.932   3.258   1.530
    3GLY      O   30   2.919   3.372   1.554
    4ALA      N   31   2.951   3.166   1.624
    4ALA     HN   32   2.973   3.072   1.601
    4ALA     CA   33   2.949   3.190   1.768
    4ALA     HA   34   2.889   3.278   1.783
    4ALA     CB   35   2.884   3.066   1.838
    4ALA    HB1   36   2.945   2.974   1.831
    4ALA    HB2   37   2.785   3.049   1.791
    4ALA    HB3   38   2.874   3.088   1.947
    4ALA      C   39   3.096   3.212   1.815
    4ALA      O   40   3.177   3.117   1.800
    5PRO      N   41   3.128   3.324   1.886
    5PRO     CD   42   3.025   3.420   1.930
    5PRO    HD1   43   2.939   3.364   1.973
    5PRO    HD2   44   2.990   3.473   1.839
    5PRO     CA   45   3.250   3.346   1.959
    5PRO     HA   46   3.333   3.341   1.891
    5PRO     CB   47   3.246   3.492   2.002
    5PRO    HB1   48   3.270   3.556   1.915
    5PRO    HB2   49   3.312   3.505   2.090
    5PRO     CG   50   3.094   3.511   2.041
    5PRO    HG1   51   3.079   3.468   2.142
    5PRO    HG2   52   3.068   3.619   2.041
    5PRO      C   53   3.273   3.249   2.077
    5PRO      O   54   3.177   3.202   2.135
    6GLY      N   55   3.401   3.217   2.108
    6GLY     HN   56   3.468   3.260   2.048
    6GLY     CA   57   3.429   3.142   2.233
    6GLY    HA1   58   3.536   3.133   2.233
    6GLY    HA2   59   3.384   3.045   2.217
    6GLY      C   60   3.383   3.195   2.366
    6GLY      O   61   3.357   3.315   2.368
    7PRO      N   62   3.370   3.124   2.473
    7PRO     CD   63   3.409   2.984   2.484
    7PRO    HD1   64   3.516   2.989   2.516
    7PRO    HD2   65   3.386   2.923   2.394
    7PRO     CA   66   3.302   3.172   2.589
    7PRO     HA   67   3.201   3.183   2.554
    7PRO     CB   68   3.328   3.048   2.684
    7PRO    HB1   69   3.252   3.050   2.765
    7PRO    HB2   70   3.430   3.052   2.729
    7PRO     CG   71   3.320   2.933   2.596
    7PRO    HG1   72   3.361   2.842   2.644
    7PRO    HG2   73   3.220   2.910   2.555
    7PRO      C   74   3.344   3.303   2.656
    7PRO      O   75   3.463   3.324   2.683
    8GLY      N   76   3.249   3.393   2.681
    8GLY     HN   77   3.162   3.372   2.637
    8GLY     CA   78   3.265   3.528   2.756
    8GLY    HA1   79   3.169   3.577   2.761
    8GLY    HA2   80   3.332   3.587   2.695
    8GLY      C   81   3.312   3.521   2.901
    8GLY      O   82   3.356   3.415   2.945
    9ALA      N   83   3.289   3.633   2.970
    9ALA     HN   84   3.254   3.712   2.921
    9ALA     CA   85   3.317   3.642   3.113
    9ALA     HA   86   3.399   3.575   3.132
    9ALA     CB   87   3.349   3.788   3.152
    9ALA    HB1   88   3.455   3.818   3.143
    9ALA    HB2   89   3.314   3.809   3.256
    9ALA    HB3   90   3.310   3.859   3.076
    9ALA      C   91   3.198   3.595   3.201
    9ALA      O   92   3.086   3.599   3.152
   10PRO      N   93   3.206   3.544   3.327
   10PRO     CD   94   3.336   3.526   3.387
   10PRO    HD1   95   3.383   3.624   3.408
   10PRO    HD2   96   3.392   3.457   3.321
   10PRO     CA   97   3.105   3.507   3.422
   10PRO     HA   98   3.076   3.404   3.408
   10PRO     CB   99   3.170   3.513   3.563
   10PRO    HB1  100   3.118   3.453   3.641
   10PRO    HB2  101   3.181   3.617   3.599
   10PRO     CG  102   3.309   3.457   3.525
   10PRO    HG1  103   3.394   3.466   3.596
   10PRO    HG2  104   3.294   3.349   3.504
   10PRO      C  105   2.978   3.592   3.422
   10PRO      O  106   2.992   3.714   3.405
   11GLY      N  107   2.861   3.535   3.438
   11GLY     HN  108   2.855   3.436   3.439
   11GLY     CA  109   2.727   3.599   3.448
   11GLY    HA1  110   2.663   3.533   3.505
   11GLY    HA2  111   2.694   3.614   3.346
   11GLY      C  112   2.723   3.731   3.517
   11GLY      O  113   2.793   3.748   3.618
   12PRO      N  114   2.654   3.835   3.482
   12PRO     CD  115   2.573   3.833   3.361
   12PRO    HD1  116   2.485   3.766   3.370
   12PRO    HD2  117   2.631   3.801   3.272
   12PRO     CA  118   2.630   3.956   3.562
   12PRO     HA  119   2.719   4.014   3.542
   12PRO     CB  120   2.519   4.033   3.493
   12PRO    HB1  121   2.539   4.142   3.499
   12PRO    HB2  122   2.425   4.013   3.548
   12PRO     CG  123   2.526   3.978   3.352
   12PRO    HG1  124   2.425   3.983   3.305
   12PRO    HG2  125   2.595   4.043   3.293
   12PRO      C  126   2.613   3.950   3.714
   12PRO      O  127   2.522   3.882   3.762
   13GLY      N  128   2.695   4.026   3.792
   13GLY     HN  129   2.775   4.069   3.750
   13GLY     CA  130   2.685   4.038   3.937
   13GLY    HA1  131   2.733   4.132   3.960
   13GLY    HA2  132   2.726   3.950   3.984
   13GLY      C  133   2.550   4.058   3.993
   13GLY      O  134   2.475   4.138   3.939
   14ALA      N  135   2.522   3.983   4.101
   14ALA     HN  136   2.580   3.904   4.119
   14ALA     CA  137   2.416   3.998   4.203
   14ALA     HA  138   2.334   3.935   4.171
   14ALA     CB  139   2.460   3.933   4.339
   14ALA    HB1  140   2.380   3.921   4.416
   14ALA    HB2  141   2.542   3.992   4.387
   14ALA    HB3  142   2.495   3.829   4.320
   14ALA      C  143   2.375   4.140   4.238
   14ALA      O  144   2.456   4.232   4.254
   15PRO      N  145   2.246   4.168   4.252
   15PRO     CD  146   2.138   4.078   4.214
   15PRO    HD1  147   2.143   3.976   4.259
   15PRO    HD2  148   2.148   4.066   4.103
   15PRO     CA  149   2.199   4.308   4.267
   15PRO     HA  150   2.258   4.378   4.209
   15PRO     CB  151   2.059   4.298   4.201
   15PRO    HB1  152   2.076   4.304   4.092
   15PRO    HB2  153   1.986   4.375   4.234
   15PRO     CG  154   2.012   4.161   4.238
   15PRO    HG1  155   1.969   4.147   4.340
   15PRO    HG2  156   1.930   4.132   4.168
   15PRO      C  157   2.201   4.360   4.409
   15PRO    OT1  158   2.214   4.288   4.514
   15PRO    OT2  159   2.181   4.484   4.427
   16LIT    LIT  160   5.550   4.262   2.228
   17LIT    LIT  161   2.301   5.237   3.916
   18LIT    LIT  162   2.633   1.910   1.545
   19LIT    LIT  163   4.705   5.218   2.455
   20LIT    LIT  164   2.980   5.288   3.016
   21LIT    LIT  165   2.176   5.423   1.368
   22LIT    LIT  166   2.506   1.605   6.295
   23LIT    LIT  167   7.193   5.123   2.576
   24LIT    LIT  168   3.005   4.135   3.373
   25LIT    LIT  169   5.254   1.224   5.376
   26LIT    LIT  170   7.474   2.753   4.688
   27LIT    LIT  171   1.074   4.898   3.721
   28LIT    LIT  172   0.545   7.020   4.786
   29LIT    LIT  173   3.564   2.676   0.581
   30LIT    LIT  174   3.407   6.018   4.211
   31LIT    LIT  175   0.840   2.253   5.455
   32LIT    LIT  176   5.663   0.731   0.073
   33LIT    LIT  177   4.545   7.431   1.123
   34LIT    LIT  178   8.284   7.169   0.828
   35LIT    LIT  179   5.258   7.208   4.050
   36LIT    LIT  180   0.067   0.337   2.525
   37LIT    LIT  181   3.893   5.573   1.280
   38LIT    LIT  182   0.546   2.873   0.161
   39LIT    LIT  183   2.935   2.184   5.057
   40LIT    LIT  184   7.776   6.875   4.730
   41LIT    LIT  185   2.204   0.609   6.642
   42LIT    LIT  186   7.200   4.607   1.080
   43LIT    LIT  187   5.837   4.661   6.839
   44LIT    LIT  188   7.627   0.051   1.686
   45LIT    LIT  189   0.235   7.393   2.136
   46LIT    LIT  190   2.138   3.655   4.475
   47LIT    LIT  191   1.112   0.627   1.222
   48LIT    LIT  192   4.658   0.026   2.349
   49LIT    LIT  193   6.439   0.757   5.727
   50LIT    LIT  194   4.968   3.928   1.526
   51LIT    LIT  195   3.265   7.755   0.887
   52LIT    LIT  196   6.155   0.867   5.271
   53LIT    LIT  197   3.848   6.908   6.513
   54LIT    LIT  198   4.998   2.121   5.898
   55LIT    LIT  199   1.622   2.194   4.206
   56LIT    LIT  200   7.027   4.999   4.049
   57LIT    LIT  201   3.989   4.508  -0.002
   58LIT    LIT  202   2.147   4.446   4.611
   59CLA    CLA  203   3.454   6.644   3.387
   60CLA    CLA  204   3.225   5.919   4.072
   61CLA    CLA  205   3.949   2.027   6.575
   62CLA    CLA  206   1.543   7.772   3.034
   63CLA    CLA  207   1.352   6.498   2.665
   64CLA    CLA  208   2.695   6.564   4.757
   65CLA    CLA  209   3.183   1.267   5.968
   66CLA    CLA  210   8.225   4.675   0.569
   67CLA    CLA  211   0.617   3.698   3.143
   68CLA    CLA  212   6.606   5.586   3.394
   69CLA    CLA  213   6.022   6.063   2.378
   70CLA    CLA  214   7.694   4.404   6.509
   71CLA    CLA  215   2.159   2.439   2.329
   72CLA    CLA  216   7.167   5.138   3.901
   73CLA    CLA  217   1.544   5.972   5.519
   74CLA    CLA  218   5.736   7.896   1.378
   75CLA    CLA  219   7.718   0.111   6.313
   76CLA    CLA  220   1.280   3.376   1.027
   77CLA    CLA  221   4.461   0.594   6.400
   78CLA    CLA  222   7.370   1.616   5.220
   79CLA    CLA  223   5.702   3.518   1.963
   80CLA    CLA  224   7.022   7.569   0.310
   81CLA    CLA  225   1.791   2.468   0.835
   82CLA    CLA  226   3.759   4.339   1.571
   83CLA    CLA  227   7.569   6.388   4.563
   84CLA    CLA  228   0.760   7.221   2.208
   85CLA    CLA  229   0.559   5.669   0.733
   86CLA    CLA  230   7.723   2.162   5.664
   87CLA    CLA  231   2.229   3.632   0.392
   88CLA    CLA  232   7.777   4.088   3.427
   89CLA    CLA  233   3.122   3.101   0.675
   90CLA    CLA  234   0.702   3.456   6.657
   91CLA    CLA  235   5.015   7.246   0.391
   92CLA    CLA  236   6.221   4.464   0.855
   93CLA    CLA  237   2.367   0.723   6.015
   94CLA    CLA  238   5.312   7.293   4.264
   95CLA    CLA  239   3.265   1.720   1.347
   96CLA    CLA  240   6.046   2.496   3.498
   97CLA    CLA  241   3.441   2.695   4.812
   98CLA    CLA  242   7.323   2.402   5.658
   99CLA    CLA  243   2.797   4.805   2.855
  100CLA    CLA  244   6.408   1.217   4.665
  101CLA    CLA  245   0.621   0.630   3.843
  102TIP3   OH2  246   3.476   2.813   0.471
  102TIP3    H1  247   3.390   2.850   0.489
  102TIP3    H2  248   3.468   2.779   0.381
  103TIP3   OH2  249   1.400   3.870   2.643
  103TIP3    H1  250   1.459   3.797   2.628
  103TIP3    H2  251   1.328   3.856   2.582
  104TIP3   OH2  252   8.220   7.866   4.137
  104TIP3    H1  253   8.252   7.790   4.186
  104TIP3    H2  254   8.249   7.849   4.047
  105TIP3   OH2  255   3.358   1.983   5.135
  105TIP3    H1  256   3.380   2.076   5.137
  105TIP3    H2  257   3.384   1.950   5.221
  106TIP3   OH2  258   2.542   5.725   2.106
  106TIP3    H1  259   2.469   5.689   2.056
  106TIP3    H2  260   2.503   5.791   2.163
  107TIP3   OH2  261   6.311   5.862   5.743
  107TIP3    H1  262   6.360   5.901   5.671
  107TIP3    H2  263   6.279   5.779   5.709
  108TIP3   OH2  264   1.388   2.154   6.436
  108TIP3    H1  265   1.374   2.156   6.531
  108TIP3    H2  266   1.454   2.086   6.423
  109TIP3   OH2  267   7.537   6.405   4.046
  109TIP3    H1  268   7.567   6.487   4.085
  109TIP3    H2  269   7.511   6.428   3.957
  110TIP3   OH2  270   4.167   1.944   1.762
  110TIP3    H1  271   4.255   1.963   1.731
  110TIP3    H2  272   4.109   1.996   1.706
  111TIP3   OH2  273   4.360   4.118   0.546
  111TIP3    H1  274   4.324   4.033   0.522
  111TIP3    H2  275   4.445   4.122   0.502
  112TIP3   OH2  276   4.584   0.359   1.823
  112TIP3    H1  277   4.612   0.309   1.747
  112TIP3    H2  278   4.599   0.301   1.897
  113TIP3   OH2  279   8.368   7.807   2.501
  113TIP3    H1  280   8.353   7.901   2.499
  113TIP3    H2  281   8.389   7.785   2.410
  114TIP3   OH2  282   1.882   2.608   2.741
  114TIP3    H1  283   1.828   2.586   2.665
  114TIP3    H2  284   1.962   2.556   2.731
  115TIP3   OH2  285   3.252   5.983   0.791
  115TIP3    H1  286   3.281   5.901   0.753
  115TIP3    H2  287   3.170   6.003   0.745
  116TIP3   OH2  288   1.087   0.955   6.753
  116TIP3    H1  289   1.182   0.949   6.741
  116TIP3    H2  290   1.076   0.990   6.841
  117TIP3   OH2  291   2.798   1.736   2.598
  117TIP3    H1  292   2.760   1.795   2.664
  117TIP3    H2  293   2.802   1.789   2.518
  118TIP3   OH2  294   5.670   3.427   1.462
  118TIP3    H1  295   5.705   3.437   1.550
  118TIP3    H2  296   5.588   3.476   1.463
  119TIP3   OH2  297   7.907   2.490   5.265
  119TIP3    H1  298   7.923   2.437   5.187
  119TIP3    H2  299   7.813   2.480   5.281
  120TIP3   OH2  300   0.219   1.535   3.471
  120TIP3    H1  301   0.186   1.517   3.559
  120TIP3    H2  302   0.172   1.474   3.415
  121TIP3   OH2  303   2.830   6.239   3.166
  121TIP3    H1  304   2.791   6.237   3.079
  121TIP3    H2  305   2.845   6.147   3.187
  122TIP3   OH2  306   2.270   1.591   2.460
  122TIP3    H1  307   2.270   1.549   2.374
  122TIP3    H2  308   2.305   1.678   2.444
  123TIP3   OH2  309   3.521   6.104   0.054
  123TIP3    H1  310   3.582   6.142  -0.010
  123TIP3    H2  311   3.514   6.012   0.029
  124TIP3   OH2  312   5.532   6.035   2.174
  124TIP3    H1  313   5.612   6.006   2.218
  124TIP3    H2  314   5.530   6.130   2.188
  125TIP3   OH2  315   1.785   5.725   6.379
  125TIP3    H1  316   1.693   5.739   6.358
  125TIP3    H2  317   1.801   5.780   6.456
  126TIP3   OH2  318   1.579   3.603   0.565
  126TIP3    H1  319   1.639   3.655   0.620
  126TIP3    H2  320   1.533   3.546   0.627
  127TIP3   OH2  321   6.171   5.533   3.438
  127TIP3    H1  322   6.246   5.476   3.418
  127TIP3    H2  323   6.205   5.622   3.428
  128TIP3   OH2  324   6.810   3.265   1.660
  128TIP3    H1  325   6.865   3.297   1.589
  128TIP3    H2  326   6.721   3.272   1.627
  129TIP3   OH2  327   8.092   1.776   0.954
  129TIP3    H1  328   8.150   1.703   0.976
  129TIP3    H2  329   8.126   1.850   1.004
  130TIP3   OH2  330   8.344   6.421   1.564
  130TIP3    H1  331   8.316   6.452   1.478
  130TIP3    H2  332   8.352   6.500   1.616
  131TIP3   OH2  333   7.414   2.720   5.964
  131TIP3    H1  334   7.334   2.715   5.911
  131TIP3    H2  335   7.471   2.653   5.927
  132TIP3   OH2  336   1.422   0.593   5.177
  132TIP3    H1  337   1.502   0.591   5.125
  132TIP3    H2  338   1.354   0.563   5.117
  133TIP3   OH2  339   2.570   7.504   3.428
  133TIP3    H1  340   2.520   7.573   3.385
  133TIP3    H2  341   2.559   7.521   3.522
  134TIP3   OH2  342   6.210   6.368   1.403
  134TIP3    H1  343   6.125   6.395   1.369
  134TIP3    H2  344   6.274   6.416   1.349
  135TIP3   OH2  345   0.137   6.279   4.785
  135TIP3    H1  346   0.194   6.235   4.847
  135TIP3    H2  347   0.157   6.372   4.795
  136TIP3   OH2  348   4.536   7.444   2.413
  136TIP3    H1  349   4.595   7.432   2.338
  136TIP3    H2  350   4.582   7.507   2.469
  137TIP3   OH2  351   7.356   1.714   2.833
  137TIP3    H1  352   7.436   1.674   2.869
  137TIP3    H2  353   7.312   1.750   2.910
  138TIP3   OH2  354   1.956   7.824   0.953
  138TIP3    H1  355   1.947   7.825   0.858
  138TIP3    H2  356   2.019   7.893   0.973
  139TIP3   OH2  357   1.781   4.244   0.723
  139TIP3    H1  358   1.865   4.255   0.768
  139TIP3    H2  359   1.755   4.154   0.743
  140TIP3   OH2  360   5.744   1.095   6.212
  140TIP3    H1  361   5.692   1.132   6.283
  140TIP3    H2  362   5.686   1.030   6.171
  141TIP3   OH2  363   7.073   6.562   0.935
  141TIP3    H1  364   7.032   6.627   0.878
  141TIP3    H2  365   7.130   6.512   0.877
  142TIP3   OH2  366   3.375   2.505   4.453
  142TIP3    H1  367   3.409   2.458   4.529
  142TIP3    H2  368   3.447   2.503   4.390
  143TIP3   OH2  369   7.532   7.120   0.086
  143TIP3    H1  370   7.439   7.138   0.076
  143TIP3    H2  371   7.574   7.172   0.017
  144TIP3   OH2  372   6.638   4.872   1.727
  144TIP3    H1  373   6.619   4.931   1.800
  144TIP3    H2  374   6.586   4.907   1.655
  145TIP3   OH2  375   0.546   6.636   4.561
  145TIP3    H1  376   0.475   6.673   4.509
  145TIP3    H2  377   0.621   6.633   4.502
  146TIP3   OH2  378   6.726   5.589   2.317
  146TIP3    H1  379   6.755   5.651   2.384
  146TIP3    H2  380   6.804   5.538   2.296
  147TIP3   OH2  381   3.900   3.447   0.292
  147TIP3    H1  382   3.847   3.509   0.342
  147TIP3    H2  383   3.976   3.498   0.264
  148TIP3   OH2  384   7.208   4.540   4.151
  148TIP3    H1  385   7.195   4.474   4.082
  148TIP3    H2  386   7.134   4.528   4.210
  149TIP3   OH2  387   4.079   3.664   4.000
  149TIP3    H1  388   4.086   3.680   3.906
  149TIP3    H2  389   4.036   3.742   4.034
  150TIP3   OH2  390   5.219   4.332   4.576
  150TIP3    H1  391   5.183   4.398   4.635
  150TIP3    H2  392   5.157   4.328   4.503
  151TIP3   OH2  393   0.730   4.171   1.780
  151TIP3    H1  394   0.713   4.193   1.689
  151TIP3    H2  395   0.780   4.090   1.776
  152TIP3   OH2  396   0.361   4.215   1.402
  152TIP3    H1  397   0.303   4.264   1.343
  152TIP3    H2  398   0.312   4.209   1.484
  153TIP3   OH2  399   6.629   3.206   1.469
  153TIP3    H1  400   6.577   3.197   1.548
  153TIP3    H2  401   6.574   3.257   1.409
  154TIP3   OH2  402   4.549   2.978   5.339
  154TIP3    H1  403   4.541   2.890   5.303
  154TIP3    H2  404   4.642   2.989   5.357
  155TIP3   OH2  405   2.423   0.776   4.671
  155TIP3    H1  406   2.440   0.869   4.684
  155TIP3    H2  407   2.412   0.766   4.577
  156TIP3   OH2  408   8.168   4.017   4.039
  156TIP3    H1  409   8.116   4.088   4.000
  156TIP3    H2  410   8.108   3.971   4.096
  157TIP3   OH2  411   5.132   7.423   1.596
  157TIP3    H1  412   5.143   7.336   1.633
  157TIP3    H2  413   5.073   7.410   1.521
  158TIP3   OH2  414   1.024   3.435   3.588
  158TIP3    H1  415   0.967   3.381   3.532
  158TIP3    H2  416   1.017   3.394   3.675
  159TIP3   OH2  417   2.185   7.354   4.825
  159TIP3    H1  418   2.192   7.332   4.733
  159TIP3    H2  419   2.273   7.384   4.850
  160TIP3   OH2  420   8.162   0.138   5.598
  160TIP3    H1  421   8.172   0.225   5.636
  160TIP3    H2  422   8.236   0.128   5.538
  161TIP3   OH2  423   5.601   6.444   6.765
  161TIP3    H1  424   5.659   6.509   6.804
  161TIP3    H2  425   5.514   6.483   6.769
  162TIP3   OH2  426   1.773   1.466   3.654
  162TIP3    H1  427   1.791   1.468   3.560
  162TIP3    H2  428   1.700   1.406   3.664
  163TIP3   OH2  429   4.271   5.233   0.694
  163TIP3    H1  430   4.312   5.254   0.610
  163TIP3    H2  431   4.181   5.264   0.685
  164TIP3   OH2  432   6.011   1.892   5.678
  164TIP3    H1  433   6.075   1.920   5.613
  164TIP3    H2  434   5.935   1.949   5.664
  165TIP3   OH2  435   7.759   3.306   2.990
  165TIP3    H1  436   7.839   3.352   3.013
  165TIP3    H2  437   7.763   3.297   2.895
  166TIP3   OH2  438   5.645   4.814   5.376
  166TIP3    H1  439   5.662   4.796   5.284
  166TIP3    H2  440   5.560   4.857   5.377
  167TIP3   OH2  441   5.097   2.755   1.833
  167TIP3    H1  442   5.060   2.841   1.856
  167TIP3    H2  443   5.072   2.698   1.906
  168TIP3   OH2  444   0.869   0.053   6.156
  168TIP3    H1  445   0.943   0.113   6.162
  168TIP3    H2  446   0.902  -0.021   6.104
  169TIP3   OH2  447   8.343   6.043   3.578
  169TIP3    H1  448   8.371   5.951   3.583
  169TIP3    H2  449   8.251   6.041   3.604
  170TIP3   OH2  450   3.307   4.488   3.340
  170TIP3    H1  451   3.226   4.516   3.296
  170TIP3    H2  452   3.372   4.483   3.270
  171TIP3   OH2  453   7.161   4.940   5.165
  171TIP3    H1  454   7.136   4.932   5.073
  171TIP3    H2  455   7.138   4.856   5.204
  172TIP3   OH2  456   1.780   6.324   6.572
  172TIP3    H1  457   1.870   6.334   6.600
  172TIP3    H2  458   1.786   6.286   6.484
  173TIP3   OH2  459   0.092   5.588   4.487
  173TIP3    H1  460   0.043   5.506   4.486
  173TIP3    H2  461   0.034   5.651   4.444
  174TIP3   OH2  462   8.094   3.621   6.014
  174TIP3    H1  463   8.171   3.573   6.045
  174TIP3    H2  464   8.053   3.561   5.951
  175TIP3   OH2  465   7.763   1.717   0.123
  175TIP3    H1  466   7.711   1.715   0.204
  175TIP3    H2  467   7.701   1.744   0.055
  176TIP3   OH2  468   8.192   2.441   1.183
  176TIP3    H1  469   8.114   2.418   1.234
  176TIP3    H2  470   8.181   2.535   1.164
  177TIP3   OH2  471   2.601   0.430   2.899
  177TIP3    H1  472   2.681   0.460   2.941
  177TIP3    H2  473   2.555   0.381   2.967
  178TIP3   OH2  474   6.455   0.482   5.987
  178TIP3    H1  475   6.417   0.446   5.906
  178TIP3    H2  476   6.470   0.406   6.042
  179TIP3   OH2  477   5.694   2.514   1.071
  179TIP3    H1  478   5.633   2.586   1.091
  179TIP3    H2  479   5.640   2.435   1.080
  180TIP3   OH2  480   7.771   7.254   6.467
  180TIP3    H1  481   7.690   7.208   6.442
  180TIP3    H2  482   7.748   7.300   6.548
  181TIP3   OH2  483   5.781   4.378   5.287
  181TIP3    H1  484   5.852   4.402   5.228
  181TIP3    H2  485   5.734   4.308   5.241
  182TIP3   OH2  486   1.389   4.229   5.292
  182TIP3    H1  487   1.468   4.203   5.341
  182TIP3    H2  488   1.322   4.167   5.320
  183TIP3   OH2  489   2.820   6.301   1.251
  183TIP3    H1  490   2.747   6.242   1.268
  183TIP3    H2  491   2.869   6.302   1.333
  184TIP3   OH2  492   2.725   6.202   6.617
  184TIP3    H1  493   2.732   6.237   6.706
  184TIP3    H2  494   2.814   6.171   6.596
  185TIP3   OH2  495   2.891   0.385   5.329
  185TIP3    H1  496   2.944   0.329   5.273
  185TIP3    H2  497   2.829   0.428   5.269
  186TIP3   OH2  498   2.014   3.460   2.180
  186TIP3    H1  499   1.991   3.484   2.269
  186TIP3    H2  500   1.967   3.523   2.125
  187TIP3   OH2  501   7.862   3.056   1.704
  187TIP3    H1  502   7.865   3.145   1.741
  187TIP3    H2  503   7.770   3.033   1.705
  188TIP3   OH2  504   1.103   7.245   1.089
  188TIP3    H1  505   1.103   7.222   0.997
  188TIP3    H2  506   1.132   7.165   1.134
  189TIP3   OH2  507   2.301   2.403   5.206
  189TIP3    H1  508   2.250   2.329   5.174
  189TIP3    H2  509   2.349   2.369   5.281
  190TIP3   OH2  510   6.853   1.623   3.669
  190TIP3    H1  511   6.781   1.561   3.676
  190TIP3    H2  512   6.895   1.620   3.755
  191TIP3   OH2  513   1.506   3.309   4.304
  191TIP3    H1  514   1.515   3.219   4.335
  191TIP3    H2  515   1.419   3.335   4.332
  192TIP3   OH2  516   2.623   3.296   6.113
  192TIP3    H1  517   2.691   3.317   6.049
  192TIP3    H2  518   2.626   3.368   6.176
  193TIP3   OH2  519   6.256   0.825   6.713
  193TIP3    H1  520   6.324   0.800   6.775
  193TIP3    H2  521   6.174   0.801   6.756
  194TIP3   OH2  522   0.559   2.216   3.154
  194TIP3    H1  523   0.610   2.213   3.234
  194TIP3    H2  524   0.499   2.141   3.160
  195TIP3   OH2  525   1.977   7.901   4.558
  195TIP3    H1  526   2.072   7.900   4.557
  195TIP3    H2  527   1.953   7.852   4.636
  196TIP3   OH2  528   0.733   3.122   6.680
  196TIP3    H1  529   0.644   3.129   6.645
  196TIP3    H2  530   0.770   3.209   6.670
  197TIP3   OH2  531   2.193   2.341   1.538
  197TIP3    H1  532   2.183   2.331   1.633
  197TIP3    H2  533   2.105   2.360   1.507
  198TIP3   OH2  534   3.859   2.747   0.375
  198TIP3    H1  535   3.881   2.823   0.428
  198TIP3    H2  536   3.825   2.784   0.293
  199TIP3   OH2  537   0.890   4.818   3.384
  199TIP3    H1  538   0.811   4.850   3.338
  199TIP3    H2  539   0.957   4.813   3.316
  200TIP3   OH2  540   1.308   6.564   3.320
  200TIP3    H1  541   1.220   6.601   3.322
  200TIP3    H2  542   1.297   6.477   3.281
  201TIP3   OH2  543   4.125   7.246   2.877
  201TIP3    H1  544   4.090   7.204   2.956
  201TIP3    H2  545   4.220   7.239   2.885
  202TIP3   OH2  546   6.509   7.163   5.113
  202TIP3    H1  547   6.430   7.174   5.167
  202TIP3    H2  548   6.538   7.074   5.130
  203TIP3   OH2  549   7.148   0.879   2.760
  203TIP3    H1  550   7.178   0.924   2.680
  203TIP3    H2  551   7.150   0.946   2.828
  204TIP3   OH2  552   4.854   2.482   5.086
  204TIP3    H1  553   4.917   2.433   5.139
  204TIP3    H2  554   4.902   2.561   5.059
  205TIP3   OH2  555   6.576   4.713   5.917
  205TIP3    H1  556   6.538   4.770   5.984
  205TIP3    H2  557   6.500   4.676   5.871
  206TIP3   OH2  558   0.160   2.125   3.365
  206TIP3    H1  559   0.086   2.077   3.326
  206TIP3    H2  560   0.163   2.094   3.456
  207TIP3   OH2  561   3.641   1.083   2.016
  207TIP3    H1  562   3.695   1.008   1.992
  207TIP3    H2  563   3.564   1.077   1.960
  208TIP3   OH2  564   1.834   0.431   1.038
  208TIP3    H1  565   1.907   0.413   0.979
  208TIP3    H2  566   1.849   0.373   1.113
  209TIP3   OH2  567   4.314   3.049   1.058
  209TIP3    H1  568   4.374   3.106   1.107
  209TIP3    H2  569   4.300   2.974   1.116
  210TIP3   OH2  570   2.176   6.299   5.826
  210TIP3    H1  571   2.167   6.238   5.754
  210TIP3    H2  572   2.116   6.371   5.805
  211TIP3   OH2  573   5.930   7.042   4.037
  211TIP3    H1  574   5.859   7.020   4.097
  211TIP3    H2  575   5.888   7.049   3.951
  212TIP3   OH2  576   2.513   6.748   1.980
  212TIP3    H1  577   2.461   6.824   1.955
  212TIP3    H2  578   2.592   6.754   1.925
  213TIP3   OH2  579   4.507   2.120   1.153
  213TIP3    H1  580   4.489   2.058   1.222
  213TIP3    H2  581   4.509   2.068   1.073
  214TIP3   OH2  582   2.455   6.065   3.314
  214TIP3    H1  583   2.439   6.137   3.253
  214TIP3    H2  584   2.505   6.001   3.264
  215TIP3   OH2  585   1.093   5.388   2.472
  215TIP3    H1  586   1.060   5.433   2.550
  215TIP3    H2  587   1.130   5.457   2.418
  216TIP3   OH2  588   4.865   5.655   4.105
  216TIP3    H1  589   4.809   5.663   4.183
  216TIP3    H2  590   4.810   5.686   4.033
  217TIP3   OH2  591   4.301   4.697   1.857
  217TIP3    H1  592   4.361   4.677   1.929
  217TIP3    H2  593   4.277   4.611   1.822
  218TIP3   OH2  594   6.692   4.297   6.267
  218TIP3    H1  595   6.637   4.227   6.231
  218TIP3    H2  596   6.661   4.377   6.223
  219TIP3   OH2  597   5.841   5.283   4.083
  219TIP3    H1  598   5.903   5.344   4.044
  219TIP3    H2  599   5.881   5.197   4.073
  220TIP3   OH2  600   6.235   2.108   6.590
  220TIP3    H1  601   6.324   2.139   6.580
  220TIP3    H2  602   6.187   2.146   6.517
  221TIP3   OH2  603   6.765   3.180   0.346
  221TIP3    H1  604   6.754   3.227   0.263
  221TIP3    H2  605   6.683   3.195   0.393
  222TIP3   OH2  606   6.690   1.269   3.115
  222TIP3    H1  607   6.733   1.310   3.040
  222TIP3    H2  608   6.637   1.199   3.077
  223TIP3   OH2  609   4.271   4.584   5.190
  223TIP3    H1  610   4.200   4.620   5.137
  223TIP3    H2  611   4.276   4.641   5.266
  224TIP3   OH2  612   8.273   3.871   1.483
  224TIP3    H1  613   8.343   3.903   1.540
  224TIP3    H2  614   8.283   3.776   1.485
  225TIP3   OH2  615   3.911   2.371   6.233
  225TIP3    H1  616   3.896   2.276   6.227
  225TIP3    H2  617   4.003   2.382   6.209
  226TIP3   OH2  618   3.464   0.088   2.080
  226TIP3    H1  619   3.453  -0.007   2.073
  226TIP3    H2  620   3.456   0.120   1.990
  227TIP3   OH2  621   1.596   2.637   6.700
  227TIP3    H1  622   1.658   2.572   6.733
  227TIP3    H2  623   1.650   2.705   6.660
  228TIP3   OH2  624   3.737   0.400   0.429
  228TIP3    H1  625   3.737   0.359   0.515
  228TIP3    H2  626   3.781   0.335   0.373
  229TIP3   OH2  627   1.032   5.628   5.611
  229TIP3    H1  628   0.958   5.673   5.652
  229TIP3    H2  629   1.098   5.622   5.680
  230TIP3   OH2  630   5.597   4.254   0.603
  230TIP3    H1  631   5.505   4.241   0.627
  230TIP3    H2  632   5.595   4.321   0.535
  231TIP3   OH2  633   6.964   3.460   5.850
  231TIP3    H1  634   7.052   3.427   5.867
  231TIP3    H2  635   6.929   3.402   5.782
  232TIP3   OH2  636   1.357   7.839   6.105
  232TIP3    H1  637   1.326   7.911   6.051
  232TIP3    H2  638   1.411   7.786   6.046
  233TIP3   OH2  639   8.018   4.861   0.715
  233TIP3    H1  640   8.081   4.814   0.661
  233TIP3    H2  641   7.941   4.805   0.718
  234TIP3   OH2  642   0.213   6.878   2.085
  234TIP3    H1  643   0.171   6.899   2.168
  234TIP3    H2  644   0.152   6.819   2.041
  235TIP3   OH2  645   2.626   7.573   1.593
  235TIP3    H1  646   2.583   7.615   1.667
  235TIP3    H2  647   2.675   7.643   1.549
  236TIP3   OH2  648   4.320   2.265   3.028
  236TIP3    H1  649   4.400   2.222   3.058
  236TIP3    H2  650   4.335   2.358   3.045
  237TIP3   OH2  651   3.561   3.269   4.099
  237TIP3    H1  652   3.653   3.280   4.076
  237TIP3    H2  653   3.535   3.355   4.132
  238TIP3   OH2  654   4.619   1.485   1.599
  238TIP3    H1  655   4.550   1.419   1.593
  238TIP3    H2  656   4.650   1.479   1.689
  239TIP3   OH2  657   4.513   0.102   2.448
  239TIP3    H1  658   4.441   0.050   2.484
  239TIP3    H2  659   4.490   0.193   2.468
  240TIP3   OH2  660   6.229   7.659   1.465
  240TIP3    H1  661   6.180   7.579   1.449
  240TIP3    H2  662   6.173   7.729   1.432
  241TIP3   OH2  663   3.461   0.530   2.507
  241TIP3    H1  664   3.398   0.481   2.453
  241TIP3    H2  665   3.499   0.464   2.565
  242TIP3   OH2  666   7.526   5.469   2.317
  242TIP3    H1  667   7.604   5.482   2.263
  242TIP3    H2  668   7.493   5.557   2.333
  243TIP3   OH2  669   0.401   2.871   4.591
  243TIP3    H1  670   0.445   2.789   4.571
  243TIP3    H2  671   0.357   2.855   4.674
  244TIP3   OH2  672   3.345   4.990   0.422
  244TIP3    H1  673   3.299   4.911   0.453
  244TIP3    H2  674   3.275   5.053   0.406
  245TIP3   OH2  675   2.006   3.769   6.736
  245TIP3    H1  676   2.041   3.693   6.781
  245TIP3    H2  677   1.984   3.831   6.806
  246TIP3   OH2  678   5.538   7.869   0.621
  246TIP3    H1  679   5.510   7.852   0.531
  246TIP3    H2  680   5.629   7.838   0.624
  247TIP3   OH2  681   4.059   2.625   1.732
  247TIP3    H1  682   4.154   2.637   1.724
  247TIP3    H2  683   4.033   2.688   1.799
  248TIP3   OH2  684   2.514   5.042   3.369
  248TIP3    H1  685   2.478   5.116   3.418
  248TIP3    H2  686   2.501   4.967   3.427
  249TIP3   OH2  687   5.896   1.076   5.619
  249TIP3    H1  688   5.891   1.013   5.547
  249TIP3    H2  689   5.883   1.023   5.698
  250TIP3   OH2  690   6.161   3.246   6.458
  250TIP3    H1  691   6.214   3.179   6.415
  250TIP3    H2  692   6.098   3.197   6.510
  251TIP3   OH2  693   3.652   5.286   4.940
  251TIP3    H1  694   3.653   5.340   5.019
  251TIP3    H2  695   3.595   5.334   4.879
  252TIP3   OH2  696   2.898   4.601   4.750
  252TIP3    H1  697   2.912   4.661   4.823
  252TIP3    H2  698   2.986   4.567   4.731
  253TIP3   OH2  699   6.035   3.096   6.630
  253TIP3    H1  700   5.959   3.077   6.684
  253TIP3    H2  701   6.076   3.010   6.615
  254TIP3   OH2  702   3.896   2.104   5.542
  254TIP3    H1  703   3.893   2.070   5.632
  254TIP3    H2  704   3.812   2.080   5.505
  255TIP3   OH2  705   5.272   2.150   4.149
  255TIP3    H1  706   5.182   2.168   4.176
  255TIP3    H2  707   5.314   2.118   4.229
  256TIP3   OH2  708   6.923   1.106   0.173
  256TIP3    H1  709   6.873   1.171   0.125
  256TIP3    H2  710   6.900   1.121   0.265
  257TIP3   OH2  711   8.263   1.405   6.074
  257TIP3    H1  712   8.308   1.376   6.154
  257TIP3    H2  713   8.321   1.471   6.037
  258TIP3   OH2  714   4.931   2.318   1.511
  258TIP3    H1  715   4.892   2.379   1.574
  258TIP3    H2  716   5.001   2.275   1.560
  259TIP3   OH2  717   5.128   6.641   3.630
  259TIP3    H1  718   5.211   6.646   3.677
  259TIP3    H2  719   5.075   6.712   3.665
  260TIP3   OH2  720   4.064   6.161   1.047
  260TIP3    H1  721   4.051   6.180   0.954
  260TIP3    H2  722   3.977   6.136   1.078
  261TIP3   OH2  723   5.558   3.188   5.638
  261TIP3    H1  724   5.592   3.264   5.685
  261TIP3    H2  725   5.463   3.196   5.644
  262TIP3   OH2  726   6.225   0.742   2.006
  262TIP3    H1  727   6.289   0.733   2.077
  262TIP3    H2  728   6.199   0.652   1.987
  263TIP3   OH2  729   7.330   0.461   3.631
  263TIP3    H1  730   7.253   0.483   3.683
  263TIP3    H2  731   7.404   0.485   3.687
  264TIP3   OH2  732   2.437   2.885   0.734
  264TIP3    H1  733   2.500   2.864   0.665
  264TIP3    H2  734   2.487   2.875   0.815
  265TIP3   OH2  735   4.826   3.954   2.122
  265TIP3    H1  736   4.738   3.947   2.160
  265TIP3    H2  737   4.885   3.935   2.195
  266TIP3   OH2  738   8.148   2.713   1.094
  266TIP3    H1  739   8.199   2.789   1.120
  266TIP3    H2  740   8.111   2.736   1.009
  267TIP3   OH2  741   2.893   2.417   3.333
  267TIP3    H1  742   2.968   2.422   3.393
  267TIP3    H2  743   2.892   2.501   3.288
  268TIP3   OH2  744   4.877   0.186   5.227
  268TIP3    H1  745   4.960   0.205   5.270
  268TIP3    H2  746   4.820   0.155   5.298
  269TIP3   OH2  747   0.953   4.056   5.729
  269TIP3    H1  748   1.026   4.108   5.761
  269TIP3    H2  749   0.882   4.119   5.715
  270TIP3   OH2  750   6.935   6.082   4.560
  270TIP3    H1  751   7.027   6.073   4.532
  270TIP3    H2  752   6.911   5.996   4.593
  271TIP3   OH2  753   3.393   0.758   1.763
  271TIP3    H1  754   3.422   0.667   1.756
  271TIP3    H2  755   3.345   0.775   1.683
  272TIP3   OH2  756   1.139   3.060   6.804
  272TIP3    H1  757   1.064   3.014   6.843
  272TIP3    H2  758   1.215   3.025   6.850
  273TIP3   OH2  759   4.271   6.920   3.166
  273TIP3    H1  760   4.303   6.854   3.227
  273TIP3    H2  761   4.254   6.997   3.220
  274TIP3   OH2  762   7.742   6.836   0.216
  274TIP3    H1  763   7.716   6.808   0.304
  274TIP3    H2  764   7.669   6.891   0.187
  275TIP3   OH2  765   7.324   6.970   2.963
  275TIP3    H1  766   7.272   6.897   2.930
  275TIP3    H2  767   7.294   6.982   3.053
  276TIP3   OH2  768   2.493   7.315   4.000
  276TIP3    H1  769   2.479   7.223   4.025
  276TIP3    H2  770   2.587   7.321   3.985
  277TIP3   OH2  771   0.561   5.998   3.800
  277TIP3    H1  772   0.513   5.953   3.870
  277TIP3    H2  773   0.653   5.990   3.825
  278TIP3   OH2  774   0.052   6.741   5.373
  278TIP3    H1  775  -0.013   6.703   5.433
  278TIP3    H2  776   0.136   6.721   5.413
  279TIP3   OH2  777   1.758   7.625   5.754
  279TIP3    H1  778   1.705   7.651   5.678
  279TIP3    H2  779   1.700   7.641   5.829
  280TIP3   OH2  780   6.910   3.725   2.484
  280TIP3    H1  781   6.853   3.703   2.558
  280TIP3    H2  782   6.864   3.796   2.438
  281TIP3   OH2  783   0.172   4.835   3.863
  281TIP3    H1  784   0.190   4.776   3.790
  281TIP3    H2  785   0.245   4.897   3.862
  282TIP3   OH2  786   6.679   1.890   4.594
  282TIP3    H1  787   6.625   1.904   4.516
  282TIP3    H2  788   6.732   1.813   4.573
  283TIP3   OH2  789   7.787   5.140   3.559
  283TIP3    H1  790   7.807   5.120   3.468
  283TIP3    H2  791   7.806   5.059   3.606
  284TIP3   OH2  792   6.866   5.346   2.619
  284TIP3    H1  793   6.875   5.383   2.531
  284TIP3    H2  794   6.955   5.341   2.652
  285TIP3   OH2  795   1.245   4.968   3.712
  285TIP3    H1  796   1.305   5.005   3.777
  285TIP3    H2  797   1.297   4.965   3.631
  286TIP3   OH2  798   2.248   4.240   5.437
  286TIP3    H1  799   2.299   4.286   5.370
  286TIP3    H2  800   2.160   4.235   5.401
  287TIP3   OH2  801   5.643   7.619   6.436
  287TIP3    H1  802   5.699   7.569   6.376
  287TIP3    H2  803   5.619   7.698   6.386
  288TIP3   OH2  804   0.068   3.906   1.917
  288TIP3    H1  805   0.077   3.997   1.944
  288TIP3    H2  806   0.128   3.858   1.974
  289TIP3   OH2  807   4.334   0.507   5.350
  289TIP3    H1  808   4.241   0.491   5.370
  289TIP3    H2  809   4.369   0.421   5.327
  290TIP3   OH2  810   7.709   7.436   6.747
  290TIP3    H1  811   7.795   7.477   6.743
  290TIP3    H2  812   7.726   7.346   6.775
  291TIP3   OH2  813   6.434   5.400   1.604
  291TIP3    H1  814   6.355   5.452   1.587
  291TIP3    H2  815   6.496   5.463   1.642
  292TIP3   OH2  816   0.904   7.136   5.473
  292TIP3    H1  817   0.962   7.176   5.537
  292TIP3    H2  818   0.834   7.098   5.526
  293TIP3   OH2  819   2.546   7.788   2.543
  293TIP3    H1  820   2.554   7.723   2.613
  293TIP3    H2  821   2.483   7.852   2.577
  294TIP3   OH2  822   4.128   6.213   3.936
  294TIP3    H1  823   4.083   6.241   3.856
  294TIP3    H2  824   4.106   6.281   4.000
  295TIP3   OH2  825   5.012   1.439   1.623
  295TIP3    H1  826   4.993   1.493   1.546
  295TIP3    H2  827   5.007   1.501   1.697
  296TIP3   OH2  828   0.559   3.826   0.575
  296TIP3    H1  829   0.464   3.832   0.568
  296TIP3    H2  830   0.579   3.862   0.661
  297TIP3   OH2  831   0.108   1.396   3.983
  297TIP3    H1  832   0.138   1.483   4.009
  297TIP3    H2  833   0.129   1.340   4.058
  298TIP3   OH2  834   0.878   7.702   0.061
  298TIP3    H1  835   0.833   7.759  -0.002
  298TIP3    H2  836   0.827   7.621   0.060
  299TIP3   OH2  837   6.530   1.018   4.472
  299TIP3    H1  838   6.461   1.000   4.408
  299TIP3    H2  839   6.484   1.059   4.545
  300TIP3   OH2  840   7.777   3.163   6.307
  300TIP3    H1  841   7.814   3.079   6.334
  300TIP3    H2  842   7.778   3.160   6.211
  301TIP3   OH2  843   5.089   5.352   3.758
  301TIP3    H1  844   5.101   5.412   3.684
  301TIP3    H2  845   5.068   5.409   3.832
  302TIP3   OH2  846   0.848   3.542   0.894
  302TIP3    H1  847   0.901   3.463   0.903
  302TIP3    H2  848   0.892   3.607   0.948
  303TIP3   OH2  849   2.425   7.724   3.888
  303TIP3    H1  850   2.368   7.656   3.923
  303TIP3    H2  851   2.365   7.786   3.846
  304TIP3   OH2  852   2.907   7.162   2.635
  304TIP3    H1  853   2.962   7.092   2.671
  304TIP3    H2  854   2.969   7.222   2.593
  305TIP3   OH2  855   7.803   0.615   6.550
  305TIP3    H1  856   7.719   0.570   6.541
  305TIP3    H2  857   7.781   0.701   6.586
  306TIP3   OH2  858   0.328   7.000   0.253
  306TIP3    H1  859   0.391   6.931   0.271
  306TIP3    H2  860   0.309   6.992   0.160
  307TIP3   OH2  861   0.096   6.825   3.606
  307TIP3    H1  862   0.130   6.853   3.691
  307TIP3    H2  863   0.056   6.904   3.569
  308TIP3   OH2  864   5.051   5.464   5.015
  308TIP3    H1  865   5.095   5.513   5.084
  308TIP3    H2  866   5.117   5.454   4.947
  309TIP3   OH2  867   5.393   1.584   2.651
  309TIP3    H1  868   5.316   1.547   2.696
  309TIP3    H2  869   5.460   1.588   2.719
  310TIP3   OH2  870   5.143   5.338   1.267
  310TIP3    H1  871   5.079   5.274   1.236
  310TIP3    H2  872   5.190   5.365   1.188
  311TIP3   OH2  873   7.514   5.793   5.275
  311TIP3    H1  874   7.564   5.712   5.289
  311TIP3    H2  875   7.436   5.766   5.227
  312TIP3   OH2  876   7.225   0.859   1.894
  312TIP3    H1  877   7.193   0.799   1.961
  312TIP3    H2  878   7.229   0.944   1.938
  313TIP3   OH2  879   6.677   3.716   4.119
  313TIP3    H1  880   6.759   3.672   4.094
  313TIP3    H2  881   6.636   3.739   4.035
  314TIP3   OH2  882   6.180   0.955   4.720
  314TIP3    H1  883   6.244   0.906   4.771
  314TIP3    H2  884   6.225   1.035   4.694
  315TIP3   OH2  885   5.550   6.545   5.060
  315TIP3    H1  886   5.636   6.555   5.018
  315TIP3    H2  887   5.569   6.550   5.154
  316TIP3   OH2  888   2.583   7.250   0.524
  316TIP3    H1  889   2.667   7.203   0.528
  316TIP3    H2  890   2.607   7.342   0.514
  317TIP3   OH2  891   4.732   2.480   0.282
  317TIP3    H1  892   4.729   2.468   0.187
  317TIP3    H2  893   4.807   2.539   0.295
  318TIP3   OH2  894   6.216   7.398   4.181
  318TIP3    H1  895   6.257   7.482   4.197
  318TIP3    H2  896   6.257   7.338   4.243
  319TIP3   OH2  897   0.941   6.258   0.373
  319TIP3    H1  898   1.013   6.201   0.400
  319TIP3    H2  899   0.936   6.249   0.278
  320TIP3   OH2  900   3.064   1.512   5.471
  320TIP3    H1  901   3.091   1.492   5.561
  320TIP3    H2  902   3.012   1.592   5.478
  321TIP3   OH2  903   4.854   6.440   5.154
  321TIP3    H1  904   4.794   6.410   5.223
  321TIP3    H2  905   4.829   6.389   5.077
  322TIP3   OH2  906   5.172   5.627   1.777
  322TIP3    H1  907   5.130   5.685   1.841
  322TIP3    H2  908   5.239   5.681   1.735
  323TIP3   OH2  909   7.111   5.714   0.934
  323TIP3    H1  910   7.034   5.757   0.897
  323TIP3    H2  911   7.108   5.625   0.900
  324TIP3   OH2  912   4.238   3.739   4.717
  324TIP3    H1  913   4.325   3.700   4.716
  324TIP3    H2  914   4.203   3.721   4.630
  325TIP3   OH2  915   1.463   1.509   1.498
  325TIP3    H1  916   1.533   1.574   1.500
  325TIP3    H2  917   1.472   1.461   1.581
  326TIP3   OH2  918   1.690   4.861   0.280
  326TIP3    H1  919   1.655   4.931   0.225
  326TIP3    H2  920   1.697   4.900   0.368
  327TIP3   OH2  921   1.127   7.606  -0.060
  327TIP3    H1  922   1.040   7.619  -0.025
  327TIP3    H2  923   1.181   7.586   0.016
  328TIP3   OH2  924   8.323   7.251   0.998
  328TIP3    H1  925   8.407   7.263   1.044
  328TIP3    H2  926   8.257   7.256   1.067
  329TIP3   OH2  927   3.817   4.451   4.955
  329TIP3    H1  928   3.746   4.388   4.942
  329TIP3    H2  929   3.897   4.402   4.936
  330TIP3   OH2  930   4.730   1.048   2.408
  330TIP3    H1  931   4.642   1.012   2.398
  330TIP3    H2  932   4.716   1.143   2.415
  331TIP3   OH2  933   0.551   6.573   0.767
  331TIP3    H1  934   0.462   6.556   0.736
  331TIP3    H2  935   0.591   6.486   0.774
  332TIP3   OH2  936   8.234   5.284   0.422
  332TIP3    H1  937   8.328   5.290   0.403
  332TIP3    H2  938   8.215   5.363   0.472
  333TIP3   OH2  939   3.840   6.784   4.412
  333TIP3    H1  940   3.839   6.842   4.336
  333TIP3    H2  941   3.878   6.837   4.482
  334TIP3   OH2  942   0.757   4.872   0.546
  334TIP3    H1  943   0.766   4.911   0.459
  334TIP3    H2  944   0.845   4.874   0.583
  335TIP3   OH2  945   2.736   5.767   0.734
  335TIP3    H1  946   2.689   5.774   0.817
  335TIP3    H2  947   2.739   5.857   0.700
  336TIP3   OH2  948   5.223   4.805   1.976
  336TIP3    H1  949   5.177   4.766   1.902
  336TIP3    H2  950   5.256   4.730   2.026
  337TIP3   OH2  951   8.049   2.639   4.419
  337TIP3    H1  952   8.028   2.685   4.501
  337TIP3    H2  953   8.042   2.706   4.351
  338TIP3   OH2  954   5.469   2.621   1.181
  338TIP3    H1  955   5.403   2.558   1.152
  338TIP3    H2  956   5.496   2.590   1.267
  339TIP3   OH2  957   5.255   5.499   3.107
  339TIP3    H1  958   5.256   5.590   3.136
  339TIP3    H2  959   5.249   5.503   3.012
  340TIP3   OH2  960   5.364   4.274   4.881
  340TIP3    H1  961   5.406   4.220   4.949
  340TIP3    H2  962   5.422   4.267   4.806
  341TIP3   OH2  963   3.636   2.421   6.008
  341TIP3    H1  964   3.610   2.364   6.080
  341TIP3    H2  965   3.554   2.441   5.963
  342TIP3   OH2  966   4.302   5.855   0.891
  342TIP3    H1  967   4.324   5.799   0.965
  342TIP3    H2  968   4.206   5.859   0.891
  343TIP3   OH2  969   6.336   2.789   0.163
  343TIP3    H1  970   6.362   2.765   0.073
  343TIP3    H2  971   6.384   2.728   0.218
  344TIP3   OH2  972   4.746   0.218   2.057
  344TIP3    H1  973   4.670   0.162   2.043
  344TIP3    H2  974   4.807   0.194   1.986
  345TIP3   OH2  975   6.988   5.671   4.588
  345TIP3    H1  976   7.073   5.714   4.580
  345TIP3    H2  977   6.980   5.617   4.509
  346TIP3   OH2  978   5.495   4.024   6.171
  346TIP3    H1  979   5.486   4.036   6.076
  346TIP3    H2  980   5.587   3.999   6.183
  347TIP3   OH2  981   7.960   5.473   2.716
  347TIP3    H1  982   7.951   5.560   2.755
  347TIP3    H2  983   7.945   5.413   2.789
  348TIP3   OH2  984   7.081   1.964   1.246
  348TIP3    H1  985   7.158   1.954   1.190
  348TIP3    H2  986   7.007   1.961   1.185
  349TIP3   OH2  987   5.202   0.058   0.014
  349TIP3    H1  988   5.209   0.004   0.093
  349TIP3    H2  989   5.112   0.044  -0.017
  350TIP3   OH2  990   2.074   3.152   1.415
  350TIP3    H1  991   2.165   3.130   1.394
  350TIP3    H2  992   2.030   3.067   1.419
  351TIP3   OH2  993   8.014   6.792   3.013
  351TIP3    H1  994   7.926   6.829   3.011
  351TIP3    H2  995   8.033   6.779   3.106
  352TIP3   OH2  996   3.467   6.847   4.146
  352TIP3    H1  997   3.513   6.889   4.218
  352TIP3    H2  998   3.417   6.917   4.104
  353TIP3   OH2  999   3.205   0.551   3.009
  353TIP3    H1 1000   3.286   0.535   3.058
  353TIP3    H2 1001   3.135   0.520   3.067
  354TIP3   OH2 1002   6.357   2.571   3.467
  354TIP3    H1 1003   6.291   2.522   3.515
  354TIP3    H2 1004   6.306   2.627   3.407
  355TIP3   OH2 1005   3.331   0.548   4.875
  355TIP3    H1 1006   3.265   0.611   4.846
  355TIP3    H2 1007   3.282   0.468   4.893
  356TIP3   OH2 1008   7.237   6.767   0.665
  356TIP3    H1 1009   7.209   6.826   0.595
  356TIP3    H2 1010   7.232   6.680   0.626
  357TIP3   OH2 1011   4.986   4.061   1.399
  357TIP3    H1 1012   4.908   4.100   1.360
  357TIP3    H2 1013   5.056   4.125   1.382
  358TIP3   OH2 1014   0.874   7.880   0.927
  358TIP3    H1 1015   0.874   7.794   0.885
  358TIP3    H2 1016   0.965   7.893   0.954
  359TIP3   OH2 1017   5.746   3.223   0.796
  359TIP3    H1 1018   5.742   3.150   0.734
  359TIP3    H2 1019   5.708   3.188   0.876
  360TIP3   OH2 1020   1.890   0.656   1.734
  360TIP3    H1 1021   1.865   0.579   1.785
  360TIP3    H2 1022   1.830   0.725   1.764
  361TIP3   OH2 1023   2.863   2.183   3.552
  361TIP3    H1 1024   2.952   2.203   3.582
  361TIP3    H2 1025   2.872   2.171   3.457
  362TIP3   OH2 1026   3.985   6.358   2.208
  362TIP3    H1 1027   4.062   6.404   2.174
  362TIP3    H2 1028   4.016   6.315   2.287
  363TIP3   OH2 1029   4.883   7.856   3.202
  363TIP3    H1 1030   4.879   7.904   3.285
  363TIP3    H2 1031   4.834   7.776   3.219
  364TIP3   OH2 1032   1.375   3.605   6.402
  364TIP3    H1 1033   1.298   3.559   6.370
  364TIP3    H2 1034   1.355   3.698   6.390
  365TIP3   OH2 1035   2.923   0.361   5.754
  365TIP3    H1 1036   2.888   0.279   5.719
  365TIP3    H2 1037   2.910   0.355   5.849
  366TIP3   OH2 1038   4.050   0.365   0.225
  366TIP3    H1 1039   4.102   0.284   0.230
  366TIP3    H2 1040   3.962   0.339   0.249
  367TIP3   OH2 1041   1.497   6.605   1.375
  367TIP3    H1 1042   1.431   6.630   1.439
  367TIP3    H2 1043   1.489   6.672   1.306
  368TIP3   OH2 1044   0.674   7.496   3.797
  368TIP3    H1 1045   0.760   7.464   3.824
  368TIP3    H2 1046   0.692   7.558   3.727
  369TIP3   OH2 1047   5.404   7.124   1.185
  369TIP3    H1 1048   5.434   7.153   1.271
  369TIP3    H2 1049   5.483   7.094   1.141
  370TIP3   OH2 1050   2.946   5.398   1.346
  370TIP3    H1 1051   2.971   5.360   1.431
  370TIP3    H2 1052   2.855   5.425   1.358
  371TIP3   OH2 1053   0.914   7.921   2.671
  371TIP3    H1 1054   0.891   7.834   2.640
  371TIP3    H2 1055   0.930   7.972   2.592
  372TIP3   OH2 1056   1.468   3.756   3.701
  372TIP3    H1 1057   1.408   3.825   3.726
  372TIP3    H2 1058   1.412   3.680   3.683
  373TIP3   OH2 1059   0.997   0.400   5.658
  373TIP3    H1 1060   1.048   0.343   5.601
  373TIP3    H2 1061   0.923   0.428   5.604
  374TIP3   OH2 1062   0.233   7.477   2.301
  374TIP3    H1 1063   0.205   7.553   2.352
  374TIP3    H2 1064   0.246   7.408   2.366
  375TIP3   OH2 1065   1.449   0.355   1.080
  375TIP3    H1 1066   1.432   0.345   0.986
  375TIP3    H2 1067   1.479   0.268   1.108
  376TIP3   OH2 1068   3.430   6.683   2.227
  376TIP3    H1 1069   3.446   6.723   2.312
  376TIP3    H2 1070   3.517   6.659   2.195
  377TIP3   OH2 1071   7.780   3.809   3.966
  377TIP3    H1 1072   7.861   3.760   3.951
  377TIP3    H2 1073   7.747   3.826   3.878
  378TIP3   OH2 1074   3.690   2.635   2.587
  378TIP3    H1 1075   3.663   2.668   2.501
  378TIP3    H2 1076   3.682   2.711   2.645
  379TIP3   OH2 1077   5.791   0.071   2.674
  379TIP3    H1 1078   5.865   0.042   2.619
  379TIP3    H2 1079   5.714   0.059   2.619
  380TIP3   OH2 1080   2.658   5.036   0.355
  380TIP3    H1 1081   2.652   5.103   0.423
  380TIP3    H2 1082   2.570   5.001   0.348
  381TIP3   OH2 1083   1.211   1.586   6.310
  381TIP3    H1 1084   1.255   1.508   6.343
  381TIP3    H2 1085   1.204   1.573   6.216
  382TIP3   OH2 1086   2.957   4.171   1.467
  382TIP3    H1 1087   2.973   4.256   1.426
  382TIP3    H2 1088   3.034   4.157   1.522
  383TIP3   OH2 1089   1.043   3.381   5.427
  383TIP3    H1 1090   1.004   3.351   5.510
  383TIP3    H2 1091   0.977   3.440   5.390
  384TIP3   OH2 1092   5.060   3.249   4.770
  384TIP3    H1 1093   4.968   3.275   4.779
  384TIP3    H2 1094   5.061   3.195   4.691
  385TIP3   OH2 1095   5.537   4.034   2.645
  385TIP3    H1 1096   5.520   4.017   2.737
  385TIP3    H2 1097   5.632   4.031   2.637
  386TIP3   OH2 1098   0.766   4.105   6.026
  386TIP3    H1 1099   0.844   4.108   6.082
  386TIP3    H2 1100   0.782   4.171   5.959
  387TIP3   OH2 1101   3.676   2.748   0.721
  387TIP3    H1 1102   3.658   2.775   0.812
  387TIP3    H2 1103   3.770   2.760   0.711
  388TIP3   OH2 1104   4.883   2.189   6.270
  388TIP3    H1 1105   4.922   2.264   6.315
  388TIP3    H2 1106   4.932   2.113   6.302
  389TIP3   OH2 1107   2.756   6.713   4.248
  389TIP3    H1 1108   2.744   6.675   4.161
  389TIP3    H2 1109   2.836   6.672   4.281
  390TIP3   OH2 1110   0.883   3.116   1.207
  390TIP3    H1 1111   0.831   3.073   1.139
  390TIP3    H2 1112   0.848   3.082   1.289
  391TIP3   OH2 1113   0.097   1.927   2.320
  391TIP3    H1 1114   0.051   1.985   2.381
  391TIP3    H2 1115   0.139   1.862   2.376
  392TIP3   OH2 1116   3.142   7.683   5.739
  392TIP3    H1 1117   3.167   7.762   5.787
  392TIP3    H2 1118   3.143   7.708   5.647
  393TIP3   OH2 1119   1.788   3.938   4.488
  393TIP3    H1 1120   1.800   3.873   4.419
  393TIP3    H2 1121   1.696   3.930   4.514
  394TIP3   OH2 1122   2.094   5.240   3.977
  394TIP3    H1 1123   2.045   5.316   3.944
  394TIP3    H2 1124   2.030   5.192   4.030
  395TIP3   OH2 1125   4.044   7.421   1.462
  395TIP3    H1 1126   3.994   7.467   1.395
  395TIP3    H2 1127   4.031   7.472   1.541
  396TIP3   OH2 1128   6.130   5.587   5.353
  396TIP3    H1 1129   6.177   5.640   5.289
  396TIP3    H2 1130   6.165   5.498   5.340
  397TIP3   OH2 1131   0.032   5.051   2.056
  397TIP3    H1 1132   0.045   4.994   2.132
  397TIP3    H2 1133   0.069   5.002   1.982
  398TIP3   OH2 1134   5.819   5.410   6.639
  398TIP3    H1 1135   5.763   5.449   6.571
  398TIP3    H2 1136   5.779   5.325   6.657
  399TIP3   OH2 1137   3.493   2.832   4.313
  399TIP3    H1 1138   3.472   2.753   4.263
  399TIP3    H2 1139   3.408   2.873   4.330
  400TIP3   OH2 1140   1.540   5.499   3.092
  400TIP3    H1 1141   1.551   5.531   3.003
  400TIP3    H2 1142   1.518   5.576   3.144
  401TIP3   OH2 1143   6.146   5.633   4.314
  401TIP3    H1 1144   6.061   5.639   4.356
  401TIP3    H2 1145   6.149   5.544   4.279
  402TIP3   OH2 1146   5.095   4.421   2.583
  402TIP3    H1 1147   5.106   4.449   2.674
  402TIP3    H2 1148   5.027   4.479   2.549
  403TIP3   OH2 1149   4.659   0.342   5.853
  403TIP3    H1 1150   4.716   0.330   5.777
  403TIP3    H2 1151   4.572   0.318   5.822
  404TIP3   OH2 1152   0.628   1.971   1.831
  404TIP3    H1 1153   0.598   2.053   1.871
  404TIP3    H2 1154   0.705   1.946   1.883
  405TIP3   OH2 1155   8.270   7.185   0.053
  405TIP3    H1 1156   8.263   7.231  -0.031
  405TIP3    H2 1157   8.203   7.226   0.109
  406TIP3   OH2 1158   4.711   4.446   2.517
  406TIP3    H1 1159   4.735   4.397   2.438
  406TIP3    H2 1160   4.777   4.515   2.524
  407TIP3   OH2 1161   2.811   2.112   1.861
  407TIP3    H1 1162   2.730   2.068   1.886
  407TIP3    H2 1163   2.803   2.199   1.900
  408TIP3   OH2 1164   6.658   0.790   3.821
  408TIP3    H1 1165   6.636   0.821   3.734
  408TIP3    H2 1166   6.733   0.842   3.847
  409TIP3   OH2 1167   3.173   5.143   5.376
  409TIP3    H1 1168   3.236   5.081   5.339
  409TIP3    H2 1169   3.148   5.104   5.460
  410TIP3   OH2 1170   3.854   6.374   5.563
  410TIP3    H1 1171   3.778   6.337   5.609
  410TIP3    H2 1172   3.873   6.455   5.610
  411TIP3   OH2 1173   2.138   0.092   0.738
  411TIP3    H1 1174   2.228   0.074   0.708
  411TIP3    H2 1175   2.091   0.010   0.723
  412TIP3   OH2 1176   4.765   2.559   6.601
  412TIP3    H1 1177   4.763   2.584   6.509
  412TIP3    H2 1178   4.777   2.642   6.648
  413TIP3   OH2 1179   7.318   1.316   2.842
  413TIP3    H1 1180   7.376   1.277   2.906
  413TIP3    H2 1181   7.357   1.400   2.821
  414TIP3   OH2 1182   7.280   0.154   2.704
  414TIP3    H1 1183   7.201   0.200   2.675
  414TIP3    H2 1184   7.302   0.195   2.788
  415TIP3   OH2 1185   6.025   5.237   6.554
  415TIP3    H1 1186   6.014   5.160   6.609
  415TIP3    H2 1187   5.956   5.297   6.584
  416TIP3   OH2 1188   2.498   3.594   4.877
  416TIP3    H1 1189   2.577   3.630   4.917
  416TIP3    H2 1190   2.432   3.662   4.891
  417TIP3   OH2 1191   4.306   3.044   6.416
  417TIP3    H1 1192   4.318   2.958   6.456
  417TIP3    H2 1193   4.302   3.105   6.490
  418TIP3   OH2 1194   4.190   1.788   0.978
  418TIP3    H1 1195   4.152   1.802   0.891
  418TIP3    H2 1196   4.221   1.874   1.005
  419TIP3   OH2 1197   5.961   1.732   3.027
  419TIP3    H1 1198   6.001   1.799   2.971
  419TIP3    H2 1199   5.966   1.651   2.976
  420TIP3   OH2 1200   0.500   7.477   3.026
  420TIP3    H1 1201   0.524   7.522   3.108
  420TIP3    H2 1202   0.419   7.432   3.047
  421TIP3   OH2 1203   4.661   7.034   1.125
  421TIP3    H1 1204   4.658   7.014   1.219
  421TIP3    H2 1205   4.728   6.975   1.091
  422TIP3   OH2 1206   0.236   6.125   0.537
  422TIP3    H1 1207   0.203   6.043   0.574
  422TIP3    H2 1208   0.332   6.116   0.544
  423TIP3   OH2 1209   0.613   4.851   5.187
  423TIP3    H1 1210   0.660   4.811   5.114
  423TIP3    H2 1211   0.676   4.852   5.258
  424TIP3   OH2 1212   2.177   7.159   1.742
  424TIP3    H1 1213   2.228   7.119   1.672
  424TIP3    H2 1214   2.136   7.235   1.701
  425TIP3   OH2 1215   6.804   4.239   6.673
  425TIP3    H1 1216   6.863   4.184   6.622
  425TIP3    H2 1217   6.717   4.203   6.657
  426TIP3   OH2 1218   6.824   4.939   6.646
  426TIP3    H1 1219   6.905   4.947   6.696
  426TIP3    H2 1220   6.761   4.901   6.707
  427TIP3   OH2 1221   0.859   5.957   6.291
  427TIP3    H1 1222   0.931   6.000   6.244
  427TIP3    H2 1223   0.812   6.029   6.333
  428TIP3   OH2 1224   0.710   3.111   2.119
  428TIP3    H1 1225   0.750   3.177   2.176
  428TIP3    H2 1226   0.756   3.120   2.036
  429TIP3   OH2 1227   8.049   4.217   6.315
  429TIP3    H1 1228   8.093   4.286   6.265
  429TIP3    H2 1229   8.054   4.246   6.406
  430TIP3   OH2 1230   3.532   7.196   1.524
  430TIP3    H1 1231   3.438   7.179   1.528
  430TIP3    H2 1232   3.564   7.141   1.453
  431TIP3   OH2 1233   5.965   6.575   1.014
  431TIP3    H1 1234   5.959   6.485   1.047
  431TIP3    H2 1235   6.059   6.588   0.999
  432TIP3   OH2 1236   2.097   2.578   4.068
  432TIP3    H1 1237   2.145   2.496   4.056
  432TIP3    H2 1238   2.101   2.621   3.983
  433TIP3   OH2 1239   7.501   0.539   6.269
  433TIP3    H1 1240   7.480   0.447   6.260
  433TIP3    H2 1241   7.417   0.583   6.276
  434TIP3   OH2 1242   2.926   4.096   0.467
  434TIP3    H1 1243   2.899   4.026   0.408
  434TIP3    H2 1244   2.858   4.163   0.457
  435TIP3   OH2 1245   4.251   6.861   4.312
  435TIP3    H1 1246   4.240   6.876   4.406
  435TIP3    H2 1247   4.271   6.768   4.304
  436TIP3   OH2 1248   7.610   0.038   1.486
  436TIP3    H1 1249   7.536   0.037   1.426
  436TIP3    H2 1250   7.686   0.054   1.430
  437TIP3   OH2 1251   2.755   2.428   2.734
  437TIP3    H1 1252   2.799   2.426   2.819
  437TIP3    H2 1253   2.756   2.338   2.704
  438TIP3   OH2 1254   0.545   0.646   6.287
  438TIP3    H1 1255   0.532   0.584   6.358
  438TIP3    H2 1256   0.550   0.731   6.330
  439TIP3   OH2 1257   5.275   1.056   0.629
  439TIP3    H1 1258   5.211   0.989   0.605
  439TIP3    H2 1259   5.239   1.096   0.709
  440TIP3   OH2 1260   0.060   6.605   3.243
  440TIP3    H1 1261   0.037   6.695   3.262
  440TIP3    H2 1262   0.125   6.611   3.173
  441TIP3   OH2 1263   3.025   6.088   4.709
  441TIP3    H1 1264   3.115   6.065   4.685
  441TIP3    H2 1265   3.026   6.183   4.721
  442TIP3   OH2 1266   3.964   3.423   2.505
  442TIP3    H1 1267   3.913   3.347   2.476
  442TIP3    H2 1268   4.046   3.386   2.538
  443TIP3   OH2 1269   7.366   4.860   0.348
  443TIP3    H1 1270   7.378   4.895   0.259
  443TIP3    H2 1271   7.272   4.865   0.362
  444TIP3   OH2 1272   6.325   0.931   4.317
  444TIP3    H1 1273   6.275   0.855   4.345
  444TIP3    H2 1274   6.303   0.942   4.225
  445TIP3   OH2 1275   3.133   3.221   3.164
  445TIP3    H1 1276   3.092   3.299   3.127
  445TIP3    H2 1277   3.130   3.156   3.093
  446TIP3   OH2 1278   6.626   0.867   3.197
  446TIP3    H1 1279   6.710   0.913   3.210
  446TIP3    H2 1280   6.560   0.927   3.232
  447TIP3   OH2 1281   4.866   3.523   3.943
  447TIP3    H1 1282   4.950   3.477   3.939
  447TIP3    H2 1283   4.801   3.455   3.960
  448TIP3   OH2 1284   4.264   3.858   0.470
  448TIP3    H1 1285   4.278   3.810   0.389
  448TIP3    H2 1286   4.185   3.820   0.507
  449TIP3   OH2 1287   3.912   1.236   1.195
  449TIP3    H1 1288   3.991   1.266   1.240
  449TIP3    H2 1289   3.867   1.180   1.259
  450TIP3   OH2 1290   1.512   0.907   3.290
  450TIP3    H1 1291   1.426   0.877   3.261
  450TIP3    H2 1292   1.539   0.973   3.225
  451TIP3   OH2 1293   3.596   3.572   4.051
  451TIP3    H1 1294   3.661   3.641   4.039
  451TIP3    H2 1295   3.595   3.525   3.968
  452TIP3   OH2 1296   2.037   4.038   2.954
  452TIP3    H1 1297   2.094   3.969   2.986
  452TIP3    H2 1298   1.977   3.993   2.893
  453TIP3   OH2 1299   7.890   5.974   6.434
  453TIP3    H1 1300   7.925   5.945   6.350
  453TIP3    H2 1301   7.824   5.907   6.456
  454TIP3   OH2 1302   8.350   0.904   3.735
  454TIP3    H1 1303   8.329   0.812   3.726
  454TIP3    H2 1304   8.270   0.945   3.768
  455TIP3   OH2 1305   7.913   1.898   2.362
  455TIP3    H1 1306   7.965   1.932   2.289
  455TIP3    H2 1307   7.902   1.972   2.421
  456TIP3   OH2 1308   1.451   7.285   0.469
  456TIP3    H1 1309   1.543   7.310   0.456
  456TIP3    H2 1310   1.431   7.226   0.396
  457TIP3   OH2 1311   1.072   3.183   5.174
  457TIP3    H1 1312   1.093   3.093   5.150
  457TIP3    H2 1313   0.986   3.199   5.136
  458TIP3   OH2 1314   5.781   7.708   0.635
  458TIP3    H1 1315   5.813   7.640   0.575
  458TIP3    H2 1316   5.861   7.755   0.661
  459TIP3   OH2 1317   6.709   3.435   3.999
  459TIP3    H1 1318   6.687   3.360   3.944
  459TIP3    H2 1319   6.791   3.410   4.041
  460TIP3   OH2 1320   8.345   0.084   3.290
  460TIP3    H1 1321   8.316   0.062   3.379
  460TIP3    H2 1322   8.279   0.146   3.258
  461TIP3   OH2 1323   4.760   0.314   2.718
  461TIP3    H1 1324   4.751   0.385   2.782
  461TIP3    H2 1325   4.703   0.245   2.751
  462TIP3   OH2 1326   7.945   5.402   0.541
  462TIP3    H1 1327   7.850   5.413   0.538
  462TIP3    H2 1328   7.959   5.328   0.602
  463TIP3   OH2 1329   1.225   1.524   2.104
  463TIP3    H1 1330   1.171   1.600   2.084
  463TIP3    H2 1331   1.293   1.558   2.163
  464TIP3   OH2 1332   2.460   1.330   5.819
  464TIP3    H1 1333   2.449   1.245   5.862
  464TIP3    H2 1334   2.447   1.312   5.726
  465TIP3   OH2 1335   6.470   7.147   0.347
  465TIP3    H1 1336   6.534   7.187   0.406
  465TIP3    H2 1337   6.470   7.204   0.270
  466TIP3   OH2 1338   5.890   1.435   5.277
  466TIP3    H1 1339   5.929   1.435   5.190
  466TIP3    H2 1340   5.952   1.386   5.332
  467TIP3   OH2 1341   3.690   4.356   6.106
  467TIP3    H1 1342   3.723   4.273   6.072
  467TIP3    H2 1343   3.768   4.405   6.130
  468TIP3   OH2 1344   7.411   3.990   2.348
  468TIP3    H1 1345   7.427   3.907   2.305
  468TIP3    H2 1346   7.498   4.026   2.365
  469TIP3   OH2 1347   3.869   3.007   2.706
  469TIP3    H1 1348   3.818   2.926   2.701
  469TIP3    H2 1349   3.804   3.074   2.724
  470TIP3   OH2 1350   8.227   5.210   0.962
  470TIP3    H1 1351   8.153   5.248   1.009
  470TIP3    H2 1352   8.267   5.149   1.024
  471TIP3   OH2 1353   7.990   3.455   2.687
  471TIP3    H1 1354   7.948   3.537   2.713
  471TIP3    H2 1355   7.919   3.390   2.688
  472TIP3   OH2 1356   3.279   0.149   3.040
  472TIP3    H1 1357   3.231   0.187   3.114
  472TIP3    H2 1358   3.343   0.091   3.081
  473TIP3   OH2 1359   2.088   2.932   6.811
  473TIP3    H1 1360   2.088   2.867   6.881
  473TIP3    H2 1361   1.996   2.941   6.787
  474TIP3   OH2 1362   7.220   3.969   6.149
  474TIP3    H1 1363   7.283   3.916   6.101
  474TIP3    H2 1364   7.148   3.982   6.087
  475TIP3   OH2 1365   5.045   2.155   4.544
  475TIP3    H1 1366   5.022   2.065   4.523
  475TIP3    H2 1367   5.087   2.150   4.630
  476TIP3   OH2 1368   5.613   1.984   2.901
  476TIP3    H1 1369   5.616   1.909   2.961
  476TIP3    H2 1370   5.602   1.945   2.814
  477TIP3   OH2 1371   8.026   7.699   5.018
  477TIP3    H1 1372   7.984   7.619   5.050
  477TIP3    H2 1373   8.036   7.684   4.924
  478TIP3   OH2 1374   7.023   1.137   3.763
  478TIP3    H1 1375   7.007   1.045   3.783
  478TIP3    H2 1376   6.940   1.169   3.729
  479TIP3   OH2 1377   7.636   1.678   2.647
  479TIP3    H1 1378   7.718   1.689   2.599
  479TIP3    H2 1379   7.649   1.729   2.727
  480TIP3   OH2 1380   7.114   5.524   3.116
  480TIP3    H1 1381   7.062   5.461   3.166
  480TIP3    H2 1382   7.142   5.588   3.182
  481TIP3   OH2 1383   1.774   7.076   4.327
  481TIP3    H1 1384   1.686   7.115   4.329
  481TIP3    H2 1385   1.768   7.006   4.261
  482TIP3   OH2 1386   2.028   3.427   0.735
  482TIP3    H1 1387   1.969   3.455   0.665
  482TIP3    H2 1388   2.108   3.400   0.690
  483TIP3   OH2 1389   4.113   6.181   6.180
  483TIP3    H1 1390   4.103   6.110   6.243
  483TIP3    H2 1391   4.197   6.221   6.202
  484TIP3   OH2 1392   2.562   5.737   4.219
  484TIP3    H1 1393   2.601   5.717   4.304
  484TIP3    H2 1394   2.636   5.735   4.158
  485TIP3   OH2 1395   7.116   7.254   1.304
  485TIP3    H1 1396   7.196   7.265   1.253
  485TIP3    H2 1397   7.147   7.230   1.392
  486TIP3   OH2 1398   2.687   6.873   0.438
  486TIP3    H1 1399   2.744   6.885   0.362
  486TIP3    H2 1400   2.656   6.783   0.431
  487TIP3   OH2 1401   7.836   7.234   0.530
  487TIP3    H1 1402   7.872   7.323   0.528
  487TIP3    H2 1403   7.793   7.224   0.445
  488TIP3   OH2 1404   5.720   6.482   1.238
  488TIP3    H1 1405   5.673   6.456   1.159
  488TIP3    H2 1406   5.776   6.555   1.212
  489TIP3   OH2 1407   4.569   1.060   0.542
  489TIP3    H1 1408   4.592   0.988   0.601
  489TIP3    H2 1409   4.518   1.120   0.595
  490TIP3   OH2 1410   0.280   1.608   6.549
  490TIP3    H1 1411   0.290   1.516   6.525
  490TIP3    H2 1412   0.281   1.609   6.644
  491TIP3   OH2 1413   1.926   5.004   5.447
  491TIP3    H1 1414   1.833   5.026   5.454
  491TIP3    H2 1415   1.972   5.077   5.489
  492TIP3   OH2 1416   2.929   0.724   0.490
  492TIP3    H1 1417   3.019   0.733   0.461
  492TIP3    H2 1418   2.919   0.788   0.560
  493TIP3   OH2 1419   1.408   5.291   0.411
  493TIP3    H1 1420   1.411   5.384   0.387
  493TIP3    H2 1421   1.375   5.247   0.333
  494TIP3   OH2 1422   2.172   1.160   5.615
  494TIP3    H1 1423   2.267   1.172   5.614
  494TIP3    H2 1424   2.137   1.242   5.580
  495TIP3   OH2 1425   6.877   1.000   4.184
  495TIP3    H1 1426   6.894   1.053   4.261
  495TIP3    H2 1427   6.960   0.997   4.137
  496TIP3   OH2 1428   3.466   1.099   4.450
  496TIP3    H1 1429   3.519   1.102   4.529
  496TIP3    H2 1430   3.517   1.045   4.389
  497TIP3   OH2 1431   1.411   7.044   6.824
  497TIP3    H1 1432   1.492   7.061   6.776
  497TIP3    H2 1433   1.403   7.118   6.884
  498TIP3   OH2 1434   2.275   1.006   3.027
  498TIP3    H1 1435   2.188   1.042   3.012
  498TIP3    H2 1436   2.315   1.065   3.091
  499TIP3   OH2 1437   4.049   3.708   0.476
  499TIP3    H1 1438   4.034   3.684   0.385
  499TIP3    H2 1439   4.059   3.625   0.522
  500TIP3   OH2 1440   0.002   2.892   5.069
  500TIP3    H1 1441   0.037   2.809   5.038
  500TIP3    H2 1442  -0.019   2.876   5.161
  501TIP3   OH2 1443   2.678   4.615   4.267
  501TIP3    H1 1444   2.748   4.662   4.312
  501TIP3    H2 1445   2.714   4.595   4.181
  502TIP3   OH2 1446   4.097   2.045   1.251
  502TIP3    H1 1447   4.080   2.067   1.343
  502TIP3    H2 1448   4.063   1.956   1.241
  503TIP3   OH2 1449   3.037   4.246   4.795
  503TIP3    H1 1450   3.059   4.230   4.887
  503TIP3    H2 1451   3.051   4.162   4.752
  504TIP3   OH2 1452   4.124   1.458   2.735
  504TIP3    H1 1453   4.144   1.510   2.657
  504TIP3    H2 1454   4.187   1.488   2.800
  505TIP3   OH2 1455   6.896   0.105   3.209
  505TIP3    H1 1456   6.865   0.186   3.250
  505TIP3    H2 1457   6.876   0.037   3.273
  506TIP3   OH2 1458   3.051   0.103   5.601
  506TIP3    H1 1459   3.028   0.038   5.534
  506TIP3    H2 1460   2.966   0.133   5.635
  507TIP3   OH2 1461   3.891   2.973   6.218
  507TIP3    H1 1462   3.930   2.886   6.218
  507TIP3    H2 1463   3.965   3.032   6.203
  508TIP3   OH2 1464   2.699   0.537   4.942
  508TIP3    H1 1465   2.653   0.544   4.858
  508TIP3    H2 1466   2.783   0.581   4.927
  509TIP3   OH2 1467   1.381   0.997   6.662
  509TIP3    H1 1468   1.375   1.052   6.583
  509TIP3    H2 1469   1.433   0.922   6.635
  510TIP3   OH2 1470   3.161   0.388   1.656
  510TIP3    H1 1471   3.113   0.444   1.716
  510TIP3    H2 1472   3.253   0.412   1.668
  511TIP3   OH2 1473   0.941   1.784   6.422
  511TIP3    H1 1474   0.959   1.691   6.426
  511TIP3    H2 1475   0.971   1.819   6.506
  512TIP3   OH2 1476   4.655   1.439   1.872
  512TIP3    H1 1477   4.722   1.476   1.930
  512TIP3    H2 1478   4.583   1.416   1.930
  513TIP3   OH2 1479   7.533   5.920   1.669
  513TIP3    H1 1480   7.475   5.990   1.640
  513TIP3    H2 1481   7.604   5.920   1.605
  514TIP3   OH2 1482   1.490   2.978   2.815
  514TIP3    H1 1483   1.514   2.909   2.878
  514TIP3    H2 1484   1.538   2.955   2.735
  515TIP3   OH2 1485   0.919   2.804   1.401
  515TIP3    H1 1486   0.904   2.738   1.333
  515TIP3    H2 1487   0.963   2.756   1.471
  516TIP3   OH2 1488   6.322   7.806   3.340
  516TIP3    H1 1489   6.337   7.753   3.262
  516TIP3    H2 1490   6.239   7.773   3.376
  517TIP3   OH2 1491   0.472   5.903   6.211
  517TIP3    H1 1492   0.377   5.917   6.210
  517TIP3    H2 1493   0.501   5.932   6.125
  518TIP3   OH2 1494   2.150   4.784   1.324
  518TIP3    H1 1495   2.055   4.795   1.330
  518TIP3    H2 1496   2.185   4.870   1.348
  519TIP3   OH2 1497   3.953   3.290   3.201
  519TIP3    H1 1498   4.014   3.218   3.185
  519TIP3    H2 1499   4.006   3.359   3.240
  520TIP3   OH2 1500   1.669   1.713   6.712
  520TIP3    H1 1501   1.608   1.776   6.750
  520TIP3    H2 1502   1.613   1.651   6.665
  521TIP3   OH2 1503   2.117   2.419   0.261
  521TIP3    H1 1504   2.203   2.431   0.300
  521TIP3    H2 1505   2.088   2.333   0.291
  522TIP3   OH2 1506   1.166   4.653   1.628
  522TIP3    H1 1507   1.173   4.688   1.717
  522TIP3    H2 1508   1.082   4.685   1.596
  523TIP3   OH2 1509   5.961   4.775   2.361
  523TIP3    H1 1510   5.961   4.714   2.435
  523TIP3    H2 1511   5.871   4.807   2.356
  524TIP3   OH2 1512   5.724   0.529   3.070
  524TIP3    H1 1513   5.662   0.464   3.104
  524TIP3    H2 1514   5.797   0.527   3.132
  525TIP3   OH2 1515   0.541   7.758   0.767
  525TIP3    H1 1516   0.631   7.742   0.796
  525TIP3    H2 1517   0.494   7.781   0.847
  526TIP3   OH2 1518   8.093   4.259   3.911
  526TIP3    H1 1519   8.074   4.226   3.823
  526TIP3    H2 1520   8.064   4.350   3.909
  527TIP3   OH2 1521   1.441   1.998   2.258
  527TIP3    H1 1522   1.392   1.990   2.176
  527TIP3    H2 1523   1.489   2.080   2.249
  528TIP3   OH2 1524   7.128   6.649   2.112
  528TIP3    H1 1525   7.099   6.647   2.203
  528TIP3    H2 1526   7.144   6.742   2.094
  529TIP3   OH2 1527   1.418   1.902   3.824
  529TIP3    H1 1528   1.365   1.894   3.744
  529TIP3    H2 1529   1.418   1.815   3.862
  530TIP3   OH2 1530   0.494   4.027   2.359
  530TIP3    H1 1531   0.440   4.104   2.339
  530TIP3    H2 1532   0.430   3.957   2.374
  531TIP3   OH2 1533   5.901   3.758   1.330
  531TIP3    H1 1534   5.924   3.676   1.285
  531TIP3    H2 1535   5.950   3.826   1.284
  532TIP3   OH2 1536   1.821  -0.058   2.700
  532TIP3    H1 1537   1.752  -0.006   2.742
  532TIP3    H2 1538   1.885   0.006   2.669
  533TIP3   OH2 1539   6.591   1.509   5.295
  533TIP3    H1 1540   6.677   1.487   5.329
  533TIP3    H2 1541   6.530   1.451   5.342
  534TIP3   OH2 1542   0.528   3.681   2.561
  534TIP3    H1 1543   0.583   3.672   2.639
  534TIP3    H2 1544   0.562   3.614   2.501
  535TIP3   OH2 1545   4.140   2.667   5.972
  535TIP3    H1 1546   4.186   2.734   6.023
  535TIP3    H2 1547   4.123   2.708   5.887
  536TIP3   OH2 1548   6.172   1.649   5.884
  536TIP3    H1 1549   6.171   1.742   5.905
  536TIP3    H2 1550   6.257   1.618   5.913
  537TIP3   OH2 1551   6.781   0.291   4.708
  537TIP3    H1 1552   6.757   0.210   4.753
  537TIP3    H2 1553   6.698   0.333   4.686
  538TIP3   OH2 1554   6.025   7.845   1.426
  538TIP3    H1 1555   6.043   7.904   1.499
  538TIP3    H2 1556   5.931   7.852   1.412
  539TIP3   OH2 1557   2.020   7.787   6.687
  539TIP3    H1 1558   2.053   7.712   6.735
  539TIP3    H2 1559   1.968   7.749   6.615
  540TIP3   OH2 1560   6.752   4.325   3.097
  540TIP3    H1 1561   6.836   4.346   3.137
  540TIP3    H2 1562   6.742   4.390   3.027
  541TIP3   OH2 1563   6.199   3.561   5.371
  541TIP3    H1 1564   6.230   3.474   5.344
  541TIP3    H2 1565   6.231   3.571   5.460
  542TIP3   OH2 1566   0.967   5.491   2.704
  542TIP3    H1 1567   0.933   5.580   2.700
  542TIP3    H2 1568   0.889   5.436   2.709
  543TIP3   OH2 1569   5.680   6.160   3.124
  543TIP3    H1 1570   5.591   6.126   3.109
  543TIP3    H2 1571   5.727   6.138   3.044
  544TIP3   OH2 1572   7.363   4.723   5.902
  544TIP3    H1 1573   7.385   4.782   5.974
  544TIP3    H2 1574   7.414   4.756   5.828
  545TIP3   OH2 1575   2.907   5.587   1.147
  545TIP3    H1 1576   2.869   5.541   1.072
  545TIP3    H2 1577   2.907   5.522   1.217
  546TIP3   OH2 1578   7.118   2.566   0.096
  546TIP3    H1 1579   7.177   2.630   0.056
  546TIP3    H2 1580   7.168   2.531   0.170
  547TIP3   OH2 1581   2.525   4.383   2.379
  547TIP3    H1 1582   2.601   4.377   2.437
  547TIP3    H2 1583   2.449   4.370   2.437
  548TIP3   OH2 1584   4.909   1.561   6.411
  548TIP3    H1 1585   4.916   1.655   6.423
  548TIP3    H2 1586   4.830   1.550   6.358
  549TIP3   OH2 1587   1.778   4.036   5.253
  549TIP3    H1 1588   1.839   4.095   5.209
  549TIP3    H2 1589   1.750   3.975   5.185
  550TIP3   OH2 1590   2.363   6.943   3.746
  550TIP3    H1 1591   2.454   6.925   3.725
  550TIP3    H2 1592   2.319   6.858   3.735
  551TIP3   OH2 1593   1.724   2.970   5.181
  551TIP3    H1 1594   1.676   2.945   5.260
  551TIP3    H2 1595   1.801   3.016   5.214
  552TIP3   OH2 1596   0.458   4.448   6.143
  552TIP3    H1 1597   0.530   4.419   6.199
  552TIP3    H2 1598   0.379   4.432   6.195
  553TIP3   OH2 1599   2.803   7.342   2.080
  553TIP3    H1 1600   2.855   7.287   2.021
  553TIP3    H2 1601   2.866   7.375   2.144
  554TIP3   OH2 1602   1.143   3.861   3.486
  554TIP3    H1 1603   1.106   3.776   3.463
  554TIP3    H2 1604   1.217   3.872   3.427
  555TIP3   OH2 1605   0.051   2.831   3.970
  555TIP3    H1 1606   0.044   2.741   4.000
  555TIP3    H2 1607   0.069   2.881   4.050
  556TIP3   OH2 1608   7.462   0.482   2.383
  556TIP3    H1 1609   7.548   0.478   2.341
  556TIP3    H2 1610   7.481   0.473   2.477
  557TIP3   OH2 1611   7.280   6.973   3.758
  557TIP3    H1 1612   7.257   7.026   3.835
  557TIP3    H2 1613   7.333   6.902   3.793
  558TIP3   OH2 1614   6.282   6.759   2.426
  558TIP3    H1 1615   6.259   6.678   2.380
  558TIP3    H2 1616   6.248   6.829   2.369
  559TIP3   OH2 1617   3.738   2.552   6.369
  559TIP3    H1 1618   3.765   2.485   6.306
  559TIP3    H2 1619   3.761   2.515   6.455
  560TIP3   OH2 1620   4.324   0.117   2.143
  560TIP3    H1 1621   4.348   0.025   2.153
  560TIP3    H2 1622   4.228   0.117   2.153
  561TIP3   OH2 1623   1.104   1.670   3.855
  561TIP3    H1 1624   1.080   1.678   3.947
  561TIP3    H2 1625   1.060   1.743   3.812
  562TIP3   OH2 1626   5.292   0.969   5.633
  562TIP3    H1 1627   5.203   0.936   5.647
  562TIP3    H2 1628   5.321   0.927   5.552
  563TIP3   OH2 1629   0.714   1.497   3.943
  563TIP3    H1 1630   0.627   1.501   3.904
  563TIP3    H2 1631   0.764   1.438   3.886
  564TIP3   OH2 1632   4.187   7.449   2.694
  564TIP3    H1 1633   4.267   7.449   2.746
  564TIP3    H2 1634   4.127   7.393   2.743
  565TIP3   OH2 1635   2.259   5.798   1.334
  565TIP3    H1 1636   2.213   5.872   1.294
  565TIP3    H2 1637   2.189   5.740   1.366
  566TIP3   OH2 1638   1.208   4.619   0.301
  566TIP3    H1 1639   1.262   4.646   0.376
  566TIP3    H2 1640   1.269   4.571   0.244
  567TIP3   OH2 1641   6.425   3.177   0.748
  567TIP3    H1 1642   6.405   3.256   0.798
  567TIP3    H2 1643   6.387   3.106   0.800
  568TIP3   OH2 1644   5.911   7.462   0.514
  568TIP3    H1 1645   5.999   7.460   0.552
  568TIP3    H2 1646   5.924   7.483   0.422
  569TIP3   OH2 1647   4.429   0.644   0.042
  569TIP3    H1 1648   4.448   0.627   0.134
  569TIP3    H2 1649   4.353   0.589   0.023
  570TIP3   OH2 1650   8.250   7.747   2.926
  570TIP3    H1 1651   8.244   7.681   2.995
  570TIP3    H2 1652   8.341   7.743   2.897
  571TIP3   OH2 1653   7.541   1.901   6.430
  571TIP3    H1 1654   7.552   1.824   6.374
  571TIP3    H2 1655   7.601   1.966   6.394
  572TIP3   OH2 1656   6.189   4.126   0.489
  572TIP3    H1 1657   6.203   4.216   0.518
  572TIP3    H2 1658   6.255   4.112   0.421
  573TIP3   OH2 1659   5.825   1.382   3.565
  573TIP3    H1 1660   5.764   1.309   3.579
  573TIP3    H2 1661   5.838   1.385   3.470
  574TIP3   OH2 1662   4.221   3.768   5.022
  574TIP3    H1 1663   4.226   3.804   4.933
  574TIP3    H2 1664   4.309   3.735   5.039
  575TIP3   OH2 1665   4.612   1.939   6.296
  575TIP3    H1 1666   4.533   1.942   6.350
  575TIP3    H2 1667   4.637   1.846   6.295
  576TIP3   OH2 1668   4.333   3.779   6.499
  576TIP3    H1 1669   4.360   3.762   6.589
  576TIP3    H2 1670   4.349   3.872   6.487
  577TIP3   OH2 1671   6.169   5.535   2.198
  577TIP3    H1 1672   6.219   5.530   2.117
  577TIP3    H2 1673   6.108   5.608   2.184
  578TIP3   OH2 1674   1.910   2.520   4.240
  578TIP3    H1 1675   1.908   2.585   4.310
  578TIP3    H2 1676   1.983   2.547   4.183
  579TIP3   OH2 1677   4.638   1.411   6.690
  579TIP3    H1 1678   4.630   1.476   6.620
  579TIP3    H2 1679   4.614   1.328   6.649
  580TIP3   OH2 1680   4.107   3.390   2.869
  580TIP3    H1 1681   4.149   3.304   2.875
  580TIP3    H2 1682   4.029   3.383   2.923
  581TIP3   OH2 1683   4.040   2.812   3.187
  581TIP3    H1 1684   4.072   2.763   3.263
  581TIP3    H2 1685   4.118   2.828   3.134
  582TIP3   OH2 1686   3.068   4.581   4.327
  582TIP3    H1 1687   3.159   4.568   4.354
  582TIP3    H2 1688   3.038   4.494   4.303
  583TIP3   OH2 1689   0.576   3.870   1.494
  583TIP3    H1 1690   0.596   3.776   1.497
  583TIP3    H2 1691   0.481   3.875   1.504
  584TIP3   OH2 1692   5.276   2.437   1.115
  584TIP3    H1 1693   5.198   2.397   1.078
  584TIP3    H2 1694   5.252   2.460   1.205
  585TIP3   OH2 1695   7.759   6.311   3.271
  585TIP3    H1 1696   7.747   6.387   3.329
  585TIP3    H2 1697   7.850   6.286   3.283
  586TIP3   OH2 1698   7.981   1.533   6.520
  586TIP3    H1 1699   8.070   1.566   6.513
  586TIP3    H2 1700   7.958   1.546   6.612
  587TIP3   OH2 1701   1.043   6.509   5.424
  587TIP3    H1 1702   1.060   6.432   5.370
  587TIP3    H2 1703   1.113   6.508   5.489
  588TIP3   OH2 1704   7.569   0.523   3.793
  588TIP3    H1 1705   7.512   0.578   3.847
  588TIP3    H2 1706   7.640   0.498   3.852
  589TIP3   OH2 1707   8.367   2.868   2.544
  589TIP3    H1 1708   8.423   2.791   2.538
  589TIP3    H2 1709   8.341   2.887   2.454
  590TIP3   OH2 1710   8.398   2.346   2.387
  590TIP3    H1 1711   8.332   2.391   2.441
  590TIP3    H2 1712   8.355   2.335   2.302
  591TIP3   OH2 1713   4.153   2.158   4.328
  591TIP3    H1 1714   4.110   2.237   4.361
  591TIP3    H2 1715   4.218   2.190   4.265
  592TIP3   OH2 1716   1.152   5.633   2.216
  592TIP3    H1 1717   1.195   5.571   2.156
  592TIP3    H2 1718   1.059   5.613   2.207
  593TIP3   OH2 1719   2.842   4.204   2.179
  593TIP3    H1 1720   2.757   4.233   2.144
  593TIP3    H2 1721   2.851   4.113   2.150
  594TIP3   OH2 1722   7.133   6.382   5.741
  594TIP3    H1 1723   7.170   6.301   5.776
  594TIP3    H2 1724   7.040   6.376   5.762
  595TIP3   OH2 1725   2.793   6.050   0.622
  595TIP3    H1 1726   2.781   6.133   0.669
  595TIP3    H2 1727   2.765   6.070   0.533
  596TIP3   OH2 1728   0.041   6.333   0.666
  596TIP3    H1 1729   0.098   6.324   0.742
  596TIP3    H2 1730   0.085   6.284   0.597
  597TIP3   OH2 1731   1.058   0.526   6.694
  597TIP3    H1 1732   1.044   0.433   6.674
  597TIP3    H2 1733   1.011   0.573   6.625
  598TIP3   OH2 1734   2.839   1.992   4.684
  598TIP3    H1 1735   2.923   1.945   4.683
  598TIP3    H2 1736   2.774   1.925   4.667
  599TIP3   OH2 1737   4.512   4.461   5.406
  599TIP3    H1 1738   4.516   4.386   5.347
  599TIP3    H2 1739   4.587   4.451   5.464
  600TIP3   OH2 1740   0.824   3.987   1.529
  600TIP3    H1 1741   0.869   3.985   1.444
  600TIP3    H2 1742   0.735   3.958   1.509
  601TIP3   OH2 1743   0.740   5.973   5.711
  601TIP3    H1 1744   0.802   5.955   5.781
  601TIP3    H2 1745   0.790   6.025   5.648
  602TIP3   OH2 1746   5.658   4.325   5.712
  602TIP3    H1 1747   5.670   4.256   5.647
  602TIP3    H2 1748   5.669   4.407   5.663
  603TIP3   OH2 1749   3.397   4.760   6.391
  603TIP3    H1 1750   3.417   4.758   6.297
  603TIP3    H2 1751   3.444   4.836   6.425
  604TIP3   OH2 1752   4.398   7.278   3.135
  604TIP3    H1 1753   4.384   7.373   3.134
  604TIP3    H2 1754   4.363   7.249   3.219
  605TIP3   OH2 1755   7.975   2.844   5.700
  605TIP3    H1 1756   8.056   2.818   5.744
  605TIP3    H2 1757   7.932   2.761   5.679
  606TIP3   OH2 1758   0.766   6.938   5.782
  606TIP3    H1 1759   0.688   6.883   5.781
  606TIP3    H2 1760   0.839   6.876   5.787
  607TIP3   OH2 1761   5.703   1.133   4.003
  607TIP3    H1 1762   5.749   1.123   3.919
  607TIP3    H2 1763   5.712   1.226   4.024
  608TIP3   OH2 1764   8.259   4.294   6.097
  608TIP3    H1 1765   8.319   4.219   6.095
  608TIP3    H2 1766   8.309   4.363   6.140
  609TIP3   OH2 1767   3.465   0.735   5.047
  609TIP3    H1 1768   3.539   0.766   4.995
  609TIP3    H2 1769   3.415   0.680   4.987
  610TIP3   OH2 1770   6.449   3.709   6.079
  610TIP3    H1 1771   6.509   3.692   6.006
  610TIP3    H2 1772   6.431   3.622   6.115
  611TIP3   OH2 1773   0.842   5.183   4.447
  611TIP3    H1 1774   0.905   5.119   4.412
  611TIP3    H2 1775   0.889   5.226   4.518
  612TIP3   OH2 1776   7.827   5.821   1.254
  612TIP3    H1 1777   7.889   5.748   1.251
  612TIP3    H2 1778   7.854   5.878   1.181
  613TIP3   OH2 1779   7.033   4.449   4.910
  613TIP3    H1 1780   7.077   4.534   4.907
  613TIP3    H2 1781   6.956   4.459   4.854
  614TIP3   OH2 1782   8.365   2.623   0.260
  614TIP3    H1 1783   8.393   2.614   0.169
  614TIP3    H2 1784   8.286   2.570   0.267
  615TIP3   OH2 1785   4.820   7.446   2.245
  615TIP3    H1 1786   4.838   7.539   2.253
  615TIP3    H2 1787   4.904   7.407   2.219
  616TIP3   OH2 1788   4.635   1.890   3.617
  616TIP3    H1 1789   4.572   1.915   3.685
  616TIP3    H2 1790   4.719   1.920   3.651
  617TIP3   OH2 1791   1.252   5.689   4.713
  617TIP3    H1 1792   1.163   5.694   4.748
  617TIP3    H2 1793   1.244   5.715   4.621
  618TIP3   OH2 1794   1.974   6.353   4.627
  618TIP3    H1 1795   2.049   6.412   4.614
  618TIP3    H2 1796   2.010   6.265   4.614
  619TIP3   OH2 1797   6.682   0.402   1.063
  619TIP3    H1 1798   6.693   0.319   1.109
  619TIP3    H2 1799   6.745   0.461   1.105
  620TIP3   OH2 1800   4.278   4.845   4.423
  620TIP3    H1 1801   4.216   4.869   4.492
  620TIP3    H2 1802   4.315   4.762   4.452
  621TIP3   OH2 1803   3.017   4.598   2.725
  621TIP3    H1 1804   3.015   4.535   2.796
  621TIP3    H2 1805   2.947   4.660   2.745
  622TIP3   OH2 1806   5.540   5.718   2.772
  622TIP3    H1 1807   5.470   5.768   2.728
  622TIP3    H2 1808   5.560   5.770   2.850
  623TIP3   OH2 1809   3.839   3.234   4.041
  623TIP3    H1 1810   3.925   3.256   4.004
  623TIP3    H2 1811   3.858   3.168   4.107
  624TIP3   OH2 1812   4.733   3.723   3.823
  624TIP3    H1 1813   4.679   3.772   3.885
  624TIP3    H2 1814   4.767   3.649   3.873
  625TIP3   OH2 1815   0.244   6.055   4.920
  625TIP3    H1 1816   0.174   6.058   4.856
  625TIP3    H2 1817   0.200   6.059   5.005
  626TIP3   OH2 1818   5.632   5.950   4.976
  626TIP3    H1 1819   5.602   6.037   5.004
  626TIP3    H2 1820   5.726   5.950   4.995
  627TIP3   OH2 1821   7.390   3.688   5.044
  627TIP3    H1 1822   7.395   3.696   5.139
  627TIP3    H2 1823   7.482   3.683   5.016
  628TIP3   OH2 1824   2.366   1.540   1.500
  628TIP3    H1 1825   2.302   1.472   1.520
  628TIP3    H2 1826   2.379   1.533   1.405
  629TIP3   OH2 1827   5.095   1.386   1.298
  629TIP3    H1 1828   5.017   1.376   1.244
  629TIP3    H2 1829   5.101   1.304   1.347
  630TIP3   OH2 1830   4.448   1.109   1.874
  630TIP3    H1 1831   4.379   1.086   1.812
  630TIP3    H2 1832   4.530   1.087   1.829
  631TIP3   OH2 1833   4.504   0.181   0.872
  631TIP3    H1 1834   4.578   0.170   0.812
  631TIP3    H2 1835   4.438   0.119   0.840
  632TIP3   OH2 1836   1.562   1.519   5.322
  632TIP3    H1 1837   1.470   1.543   5.318
  632TIP3    H2 1838   1.609   1.601   5.306
  633TIP3   OH2 1839   4.136   6.715   1.348
  633TIP3    H1 1840   4.173   6.683   1.265
  633TIP3    H2 1841   4.195   6.785   1.374
  634TIP3   OH2 1842   7.622   1.528   2.216
  634TIP3    H1 1843   7.586   1.440   2.213
  634TIP3    H2 1844   7.577   1.570   2.289
  635TIP3   OH2 1845   0.261   1.599   2.748
  635TIP3    H1 1846   0.331   1.623   2.809
  635TIP3    H2 1847   0.191   1.565   2.804
  636TIP3   OH2 1848   4.993   3.967   2.382
  636TIP3    H1 1849   5.028   3.884   2.414
  636TIP3    H2 1850   5.059   4.032   2.404
  637TIP3   OH2 1851   2.739   0.424   4.295
  637TIP3    H1 1852   2.794   0.366   4.243
  637TIP3    H2 1853   2.801   0.480   4.343
  638TIP3   OH2 1854   4.736   0.295   0.376
  638TIP3    H1 1855   4.796   0.296   0.301
  638TIP3    H2 1856   4.649   0.293   0.337
  639TIP3   OH2 1857   5.547   2.363   6.613
  639TIP3    H1 1858   5.464   2.317   6.602
  639TIP3    H2 1859   5.524   2.444   6.659
  640TIP3   OH2 1860   0.733   4.374   4.458
  640TIP3    H1 1861   0.806   4.420   4.416
  640TIP3    H2 1862   0.720   4.421   4.541
  641TIP3   OH2 1863   7.025   5.804   0.117
  641TIP3    H1 1864   6.968   5.861   0.067
  641TIP3    H2 1865   6.966   5.747   0.166
  642TIP3   OH2 1866   5.525   5.583   3.765
  642TIP3    H1 1867   5.569   5.502   3.790
  642TIP3    H2 1868   5.557   5.649   3.828
  643TIP3   OH2 1869   3.989   4.589   3.729
  643TIP3    H1 1870   4.070   4.581   3.679
  643TIP3    H2 1871   4.010   4.552   3.815
  644TIP3   OH2 1872   7.539   7.311   5.050
  644TIP3    H1 1873   7.473   7.376   5.076
  644TIP3    H2 1874   7.612   7.362   5.016
  645TIP3   OH2 1875   3.900   4.110   4.772
  645TIP3    H1 1876   3.894   4.118   4.867
  645TIP3    H2 1877   3.963   4.178   4.746
  646TIP3   OH2 1878   1.249   4.979   4.630
  646TIP3    H1 1879   1.294   5.037   4.692
  646TIP3    H2 1880   1.320   4.938   4.580
  647TIP3   OH2 1881   1.352   5.588   4.398
  647TIP3    H1 1882   1.426   5.591   4.338
  647TIP3    H2 1883   1.326   5.679   4.410
  648TIP3   OH2 1884   2.180   0.717   6.478
  648TIP3    H1 1885   2.216   0.750   6.395
  648TIP3    H2 1886   2.099   0.768   6.490
  649TIP3   OH2 1887   4.216   4.758   5.633
  649TIP3    H1 1888   4.278   4.753   5.561
  649TIP3    H2 1889   4.267   4.734   5.710
  650TIP3   OH2 1890   2.848   2.728   0.869
  650TIP3    H1 1891   2.922   2.783   0.844
  650TIP3    H2 1892   2.870   2.641   0.834
  651TIP3   OH2 1893   5.731   0.526   5.375
  651TIP3    H1 1894   5.747   0.482   5.458
  651TIP3    H2 1895   5.638   0.550   5.378
  652TIP3   OH2 1896   3.764   1.557   5.218
  652TIP3    H1 1897   3.680   1.603   5.228
  652TIP3    H2 1898   3.749   1.470   5.255
  653TIP3   OH2 1899   1.789   1.763   5.429
  653TIP3    H1 1900   1.861   1.818   5.461
  653TIP3    H2 1901   1.720   1.826   5.406
  654TIP3   OH2 1902   1.507   7.150   2.437
  654TIP3    H1 1903   1.460   7.194   2.508
  654TIP3    H2 1904   1.439   7.132   2.372
  655TIP3   OH2 1905   0.435   4.318   2.742
  655TIP3    H1 1906   0.424   4.386   2.676
  655TIP3    H2 1907   0.363   4.332   2.803
  656TIP3   OH2 1908   2.152   7.179   0.152
  656TIP3    H1 1909   2.177   7.237   0.224
  656TIP3    H2 1910   2.064   7.207   0.127
  657TIP3   OH2 1911   2.839   2.899   1.174
  657TIP3    H1 1912   2.905   2.887   1.243
  657TIP3    H2 1913   2.882   2.956   1.110
  658TIP3   OH2 1914   3.089   7.284   2.997
  658TIP3    H1 1915   3.110   7.335   2.919
  658TIP3    H2 1916   3.005   7.243   2.977
  659TIP3   OH2 1917   2.276   0.247   6.102
  659TIP3    H1 1918   2.243   0.329   6.067
  659TIP3    H2 1919   2.197   0.192   6.111
  660TIP3   OH2 1920   4.369   2.271   3.370
  660TIP3    H1 1921   4.401   2.343   3.315
  660TIP3    H2 1922   4.347   2.313   3.454
  661TIP3   OH2 1923   4.564   1.653   6.205
  661TIP3    H1 1924   4.520   1.577   6.242
  661TIP3    H2 1925   4.497   1.698   6.154
  662TIP3   OH2 1926   4.945   0.330   2.537
  662TIP3    H1 1927   4.862   0.337   2.584
  662TIP3    H2 1928   5.012   0.325   2.605
  663TIP3   OH2 1929   1.296   7.575   3.639
  663TIP3    H1 1930   1.385   7.571   3.674
  663TIP3    H2 1931   1.305   7.624   3.557
  664TIP3   OH2 1932   3.194   3.809   2.504
  664TIP3    H1 1933   3.231   3.840   2.587
  664TIP3    H2 1934   3.256   3.741   2.475
  665TIP3   OH2 1935   8.136   3.533   4.807
  665TIP3    H1 1936   8.091   3.559   4.727
  665TIP3    H2 1937   8.074   3.554   4.877
  666TIP3   OH2 1938   6.214   0.541   6.450
  666TIP3    H1 1939   6.171   0.626   6.441
  666TIP3    H2 1940   6.160   0.482   6.396
  667TIP3   OH2 1941   5.562   5.456   3.328
  667TIP3    H1 1942   5.601   5.434   3.412
  667TIP3    H2 1943   5.481   5.404   3.325
  668TIP3   OH2 1944   7.846   3.496   6.526
  668TIP3    H1 1945   7.873   3.440   6.453
  668TIP3    H2 1946   7.817   3.435   6.594
  669TIP3   OH2 1947   7.053   3.489   0.479
  669TIP3    H1 1948   7.094   3.450   0.402
  669TIP3    H2 1949   7.009   3.416   0.523
  670TIP3   OH2 1950   3.824   4.605   1.744
  670TIP3    H1 1951   3.867   4.638   1.665
  670TIP3    H2 1952   3.800   4.515   1.722
  671TIP3   OH2 1953   7.151   6.909   0.448
  671TIP3    H1 1954   7.059   6.885   0.452
  671TIP3    H2 1955   7.152   6.993   0.401
  672TIP3   OH2 1956   0.436   4.241   4.785
  672TIP3    H1 1957   0.498   4.181   4.744
  672TIP3    H2 1958   0.489   4.289   4.849
  673TIP3   OH2 1959   4.683   2.787   1.602
  673TIP3    H1 1960   4.628   2.864   1.618
  673TIP3    H2 1961   4.745   2.786   1.675
  674TIP3   OH2 1962   3.218   2.892   6.358
  674TIP3    H1 1963   3.257   2.950   6.424
  674TIP3    H2 1964   3.291   2.866   6.302
  675TIP3   OH2 1965   4.666   2.242   0.427
  675TIP3    H1 1966   4.601   2.281   0.485
  675TIP3    H2 1967   4.695   2.314   0.371
  676TIP3   OH2 1968   5.679   7.141   1.051
  676TIP3    H1 1969   5.755   7.082   1.057
  676TIP3    H2 1970   5.707   7.210   0.992
  677TIP3   OH2 1971   6.700   5.141   1.254
  677TIP3    H1 1972   6.635   5.199   1.293
  677TIP3    H2 1973   6.660   5.112   1.171
  678TIP3   OH2 1974   4.547   1.046   5.855
  678TIP3    H1 1975   4.478   1.068   5.917
  678TIP3    H2 1976   4.516   0.967   5.811
  679TIP3   OH2 1977   0.253   4.724   6.442
  679TIP3    H1 1978   0.167   4.760   6.417
  679TIP3    H2 1979   0.307   4.737   6.364
  680TIP3   OH2 1980   6.745   7.640   4.228
  680TIP3    H1 1981   6.720   7.597   4.310
  680TIP3    H2 1982   6.785   7.722   4.255
  681TIP3   OH2 1983   6.994   3.752   0.458
  681TIP3    H1 1984   6.969   3.661   0.441
  681TIP3    H2 1985   6.965   3.800   0.381
  682TIP3   OH2 1986   7.061   0.546   3.680
  682TIP3    H1 1987   7.008   0.476   3.717
  682TIP3    H2 1988   7.022   0.563   3.594
  683TIP3   OH2 1989   0.097   0.247   6.456
  683TIP3    H1 1990   0.021   0.284   6.411
  683TIP3    H2 1991   0.172   0.273   6.403
  684TIP3   OH2 1992   0.254   0.366   2.076
  684TIP3    H1 1993   0.285   0.335   1.991
  684TIP3    H2 1994   0.164   0.394   2.060
  685TIP3   OH2 1995   6.563   3.417   5.171
  685TIP3    H1 1996   6.553   3.342   5.111
  685TIP3    H2 1997   6.656   3.437   5.169
  686TIP3   OH2 1998   1.087   2.004   3.839
  686TIP3    H1 1999   1.005   1.978   3.798
  686TIP3    H2 2000   1.092   1.951   3.919
  687TIP3   OH2 2001   1.598   0.462   1.536
  687TIP3    H1 2002   1.693   0.468   1.530
  687TIP3    H2 2003   1.579   0.369   1.518
  688TIP3   OH2 2004   8.029   7.492   1.846
  688TIP3    H1 2005   8.097   7.442   1.891
  688TIP3    H2 2006   7.989   7.429   1.786
  689TIP3   OH2 2007   5.572   6.426   0.749
  689TIP3    H1 2008   5.495   6.389   0.792
  689TIP3    H2 2009   5.622   6.466   0.819
  690TIP3   OH2 2010   2.922   0.539   4.450
  690TIP3    H1 2011   2.973   0.461   4.471
  690TIP3    H2 2012   2.901   0.578   4.534
  691TIP3   OH2 2013   4.494   6.109   0.220
  691TIP3    H1 2014   4.451   6.166   0.156
  691TIP3    H2 2015   4.569   6.159   0.250
  692TIP3   OH2 2016   8.263   1.384   3.756
  692TIP3    H1 2017   8.324   1.373   3.829
  692TIP3    H2 2018   8.307   1.342   3.682
  693TIP3   OH2 2019   6.981   0.458   2.018
  693TIP3    H1 2020   7.041   0.489   1.950
  693TIP3    H2 2021   6.905   0.515   2.011
  694TIP3   OH2 2022   3.115   6.018   5.827
  694TIP3    H1 2023   3.108   6.035   5.733
  694TIP3    H2 2024   3.084   6.099   5.868
  695TIP3   OH2 2025   4.256   0.509   3.581
  695TIP3    H1 2026   4.173   0.557   3.579
  695TIP3    H2 2027   4.270   0.482   3.490
  696TIP3   OH2 2028   7.598   5.501   0.068
  696TIP3    H1 2029   7.555   5.459   0.143
  696TIP3    H2 2030   7.601   5.432   0.001
  697TIP3   OH2 2031   1.348   5.305   2.550
  697TIP3    H1 2032   1.319   5.284   2.461
  697TIP3    H2 2033   1.269   5.336   2.594
  698TIP3   OH2 2034   1.627   0.069   2.861
  698TIP3    H1 2035   1.553   0.121   2.891
  698TIP3    H2 2036   1.614  -0.016   2.903
  699TIP3   OH2 2037   8.000   3.772   0.577
  699TIP3    H1 2038   7.989   3.818   0.660
  699TIP3    H2 2039   7.986   3.839   0.510
  700TIP3   OH2 2040   5.958   2.425   2.146
  700TIP3    H1 2041   5.998   2.380   2.220
  700TIP3    H2 2042   5.956   2.360   2.076
  701TIP3   OH2 2043   8.190   1.174   0.843
  701TIP3    H1 2044   8.210   1.251   0.790
  701TIP3    H2 2045   8.220   1.100   0.790
  702TIP3   OH2 2046   5.651   4.577   1.287
  702TIP3    H1 2047   5.699   4.494   1.281
  702TIP3    H2 2048   5.566   4.559   1.246
  703TIP3   OH2 2049   0.170   6.830   2.559
  703TIP3    H1 2050   0.249   6.847   2.610
  703TIP3    H2 2051   0.098   6.847   2.619
  704TIP3   OH2 2052   6.455   4.719   4.553
  704TIP3    H1 2053   6.466   4.784   4.484
  704TIP3    H2 2054   6.364   4.692   4.546
  705TIP3   OH2 2055   7.654   3.311   2.207
  705TIP3    H1 2056   7.690   3.367   2.138
  705TIP3    H2 2057   7.731   3.285   2.258
  706TIP3   OH2 2058   1.112   0.666   4.641
  706TIP3    H1 2059   1.102   0.598   4.709
  706TIP3    H2 2060   1.193   0.711   4.664
  707TIP3   OH2 2061   1.203   2.389   3.729
  707TIP3    H1 2062   1.120   2.342   3.717
  707TIP3    H2 2063   1.258   2.328   3.779
  708TIP3   OH2 2064   2.685   7.479   1.129
  708TIP3    H1 2065   2.617   7.454   1.067
  708TIP3    H2 2066   2.660   7.566   1.158
  709TIP3   OH2 2067   0.819   6.376   6.602
  709TIP3    H1 2068   0.846   6.420   6.682
  709TIP3    H2 2069   0.811   6.284   6.627
  710TIP3   OH2 2070   2.254   6.582   1.533
  710TIP3    H1 2071   2.278   6.527   1.607
  710TIP3    H2 2072   2.179   6.633   1.564
  711TIP3   OH2 2073   7.825   2.460   4.389
  711TIP3    H1 2074   7.913   2.498   4.393
  711TIP3    H2 2075   7.766   2.536   4.396
  712TIP3   OH2 2076   4.489   3.306   5.640
  712TIP3    H1 2077   4.486   3.400   5.658
  712TIP3    H2 2078   4.420   3.269   5.695
  713TIP3   OH2 2079   5.857   4.708   0.467
  713TIP3    H1 2080   5.834   4.785   0.520
  713TIP3    H2 2081   5.816   4.724   0.382
  714TIP3   OH2 2082   1.092   0.297   5.197
  714TIP3    H1 2083   1.129   0.237   5.132
  714TIP3    H2 2084   0.997   0.290   5.186
  715TIP3   OH2 2085   0.860   3.252   3.457
  715TIP3    H1 2086   0.836   3.255   3.365
  715TIP3    H2 2087   0.808   3.180   3.494
  716TIP3   OH2 2088   2.719   3.841   0.315
  716TIP3    H1 2089   2.793   3.785   0.291
  716TIP3    H2 2090   2.642   3.789   0.295
  717TIP3   OH2 2091   5.780   6.878   2.500
  717TIP3    H1 2092   5.692   6.910   2.482
  717TIP3    H2 2093   5.768   6.785   2.518
  718TIP3   OH2 2094   4.525   1.909   4.808
  718TIP3    H1 2095   4.620   1.900   4.796
  718TIP3    H2 2096   4.492   1.926   4.720
  719TIP3   OH2 2097   6.316   5.296   3.426
  719TIP3    H1 2098   6.247   5.239   3.459
  719TIP3    H2 2099   6.377   5.306   3.499
  720TIP3   OH2 2100   1.312   4.412   3.148
  720TIP3    H1 2101   1.293   4.318   3.154
  720TIP3    H2 2102   1.270   4.451   3.225
  721TIP3   OH2 2103   0.201   3.136   6.454
  721TIP3    H1 2104   0.246   3.195   6.393
  721TIP3    H2 2105   0.146   3.194   6.507
  722TIP3   OH2 2106   7.983   2.723   2.245
  722TIP3    H1 2107   8.005   2.729   2.153
  722TIP3    H2 2108   8.016   2.637   2.272
  723TIP3   OH2 2109   7.583   7.776   5.486
  723TIP3    H1 2110   7.626   7.837   5.426
  723TIP3    H2 2111   7.490   7.797   5.478
  724TIP3   OH2 2112   0.560   3.870   0.855
  724TIP3    H1 2113   0.638   3.896   0.905
  724TIP3    H2 2114   0.564   3.775   0.851
  725TIP3   OH2 2115   2.096   3.879   1.715
  725TIP3    H1 2116   2.129   3.968   1.726
  725TIP3    H2 2117   2.155   3.825   1.767
  726TIP3   OH2 2118   4.950   3.836   4.313
  726TIP3    H1 2119   4.983   3.767   4.370
  726TIP3    H2 2120   4.882   3.794   4.260
  727TIP3   OH2 2121   4.344   0.325   6.477
  727TIP3    H1 2122   4.408   0.393   6.459
  727TIP3    H2 2123   4.273   0.369   6.523
  728TIP3   OH2 2124   2.219   2.173   1.785
  728TIP3    H1 2125   2.187   2.101   1.730
  728TIP3    H2 2126   2.225   2.135   1.873
  729TIP3   OH2 2127   7.835   3.287   0.883
  729TIP3    H1 2128   7.784   3.247   0.953
  729TIP3    H2 2129   7.865   3.213   0.830
  730TIP3   OH2 2130   4.829   6.065   4.285
  730TIP3    H1 2131   4.883   5.989   4.263
  730TIP3    H2 2132   4.797   6.097   4.201
  731TIP3   OH2 2133   8.284   3.821   0.272
  731TIP3    H1 2134   8.192   3.844   0.282
  731TIP3    H2 2135   8.282   3.730   0.241
  732TIP3   OH2 2136   7.466   2.412   3.618
  732TIP3    H1 2137   7.381   2.369   3.624
  732TIP3    H2 2138   7.446   2.506   3.623
  733TIP3   OH2 2139   0.642   4.280   6.599
  733TIP3    H1 2140   0.669   4.333   6.673
  733TIP3    H2 2141   0.681   4.194   6.615
  734TIP3   OH2 2142   4.019   5.637   1.406
  734TIP3    H1 2143   4.092   5.694   1.431
  734TIP3    H2 2144   3.992   5.596   1.488
  735TIP3   OH2 2145   2.802   5.167   2.333
  735TIP3    H1 2146   2.710   5.141   2.324
  735TIP3    H2 2147   2.850   5.105   2.279
  736TIP3   OH2 2148   4.642   3.900   4.953
  736TIP3    H1 2149   4.735   3.889   4.973
  736TIP3    H2 2150   4.598   3.885   5.037
  737TIP3   OH2 2151   3.996   3.458   5.000
  737TIP3    H1 2152   3.982   3.367   4.975
  737TIP3    H2 2153   4.021   3.501   4.918
  738TIP3   OH2 2154   2.037   6.375   3.891
  738TIP3    H1 2155   2.124   6.391   3.855
  738TIP3    H2 2156   2.029   6.279   3.892
  739TIP3   OH2 2157   7.512   5.877   1.001
  739TIP3    H1 2158   7.496   5.874   1.095
  739TIP3    H2 2159   7.579   5.944   0.990
  740TIP3   OH2 2160   7.215   7.682   5.702
  740TIP3    H1 2161   7.180   7.709   5.787
  740TIP3    H2 2162   7.269   7.605   5.721
  741TIP3   OH2 2163   7.108   7.373   1.012
  741TIP3    H1 2164   7.158   7.294   1.032
  741TIP3    H2 2165   7.156   7.443   1.057
  742TIP3   OH2 2166   7.460   4.683   5.647
  742TIP3    H1 2167   7.444   4.594   5.676
  742TIP3    H2 2168   7.551   4.700   5.670
  743TIP3   OH2 2169   1.729   1.847   1.553
  743TIP3    H1 2170   1.775   1.766   1.574
  743TIP3    H2 2171   1.795   1.915   1.563
  744TIP3   OH2 2172   2.944   7.473   0.126
  744TIP3    H1 2173   2.973   7.492   0.037
  744TIP3    H2 2174   2.931   7.378   0.126
  745TIP3   OH2 2175   5.023   3.158   1.100
  745TIP3    H1 2176   5.038   3.068   1.071
  745TIP3    H2 2177   5.061   3.161   1.188
  746TIP3   OH2 2178   5.714   5.913   2.333
  746TIP3    H1 2179   5.796   5.963   2.340
  746TIP3    H2 2180   5.702   5.875   2.420
  747TIP3   OH2 2181   3.353   2.230   1.479
  747TIP3    H1 2182   3.395   2.157   1.435
  747TIP3    H2 2183   3.359   2.302   1.417
  748TIP3   OH2 2184   8.041   0.731   2.347
  748TIP3    H1 2185   7.966   0.790   2.343
  748TIP3    H2 2186   8.117   0.789   2.350
  749TIP3   OH2 2187   1.124   1.374   1.496
  749TIP3    H1 2188   1.056   1.350   1.433
  749TIP3    H2 2189   1.153   1.461   1.466
  750TIP3   OH2 2190   5.940   2.314   0.056
  750TIP3    H1 2191   5.868   2.263   0.019
  750TIP3    H2 2192   5.915   2.406   0.041
  751TIP3   OH2 2193   1.922   0.380   1.833
  751TIP3    H1 2194   1.900   0.290   1.856
  751TIP3    H2 2195   1.919   0.428   1.916
  752TIP3   OH2 2196   5.363   2.811   3.069
  752TIP3    H1 2197   5.447   2.821   3.114
  752TIP3    H2 2198   5.341   2.718   3.081
  753TIP3   OH2 2199   6.385   2.767   2.670
  753TIP3    H1 2200   6.352   2.692   2.620
  753TIP3    H2 2201   6.477   2.747   2.686
  754TIP3   OH2 2202   6.612   0.092   4.426
  754TIP3    H1 2203   6.681   0.074   4.489
  754TIP3    H2 2204   6.531   0.081   4.476
  755TIP3   OH2 2205   7.792   2.785   4.465
  755TIP3    H1 2206   7.827   2.838   4.536
  755TIP3    H2 2207   7.749   2.848   4.407
  756TIP3   OH2 2208   0.079   6.565   3.712
  756TIP3    H1 2209   0.098   6.647   3.666
  756TIP3    H2 2210   0.051   6.594   3.800
  757TIP3   OH2 2211   0.195   7.701   0.195
  757TIP3    H1 2212   0.172   7.709   0.288
  757TIP3    H2 2213   0.222   7.789   0.170
  758TIP3   OH2 2214   1.054   1.961   4.116
  758TIP3    H1 2215   0.990   1.974   4.186
  758TIP3    H2 2216   1.120   1.904   4.154
  759TIP3   OH2 2217   1.749   2.330   1.146
  759TIP3    H1 2218   1.769   2.364   1.059
  759TIP3    H2 2219   1.785   2.396   1.206
  760TIP3   OH2 2220   6.545   4.963   3.374
  760TIP3    H1 2221   6.640   4.955   3.388
  760TIP3    H2 2222   6.527   5.056   3.391
  761TIP3   OH2 2223   3.682   1.416   1.475
  761TIP3    H1 2224   3.750   1.434   1.410
  761TIP3    H2 2225   3.699   1.481   1.544
  762TIP3   OH2 2226   4.446   5.152   5.550
  762TIP3    H1 2227   4.479   5.165   5.461
  762TIP3    H2 2228   4.352   5.144   5.540
  763TIP3   OH2 2229   0.500   4.562   1.220
  763TIP3    H1 2230   0.428   4.596   1.166
  763TIP3    H2 2231   0.460   4.494   1.273
  764TIP3   OH2 2232   6.516   7.430   5.340
  764TIP3    H1 2233   6.534   7.452   5.249
  764TIP3    H2 2234   6.445   7.366   5.336
  765TIP3   OH2 2235   3.598   0.433   4.288
  765TIP3    H1 2236   3.610   0.525   4.312
  765TIP3    H2 2237   3.665   0.386   4.337
  766TIP3   OH2 2238   5.192   7.706   2.757
  766TIP3    H1 2239   5.187   7.788   2.806
  766TIP3    H2 2240   5.102   7.674   2.752
  767TIP3   OH2 2241   2.429   2.992   3.672
  767TIP3    H1 2242   2.364   3.062   3.664
  767TIP3    H2 2243   2.481   2.999   3.592
  768TIP3   OH2 2244   3.649   0.368   2.633
  768TIP3    H1 2245   3.721   0.428   2.653
  768TIP3    H2 2246   3.635   0.319   2.713
  769TIP3   OH2 2247   0.654   2.305   5.489
  769TIP3    H1 2248   0.566   2.269   5.492
  769TIP3    H2 2249   0.660   2.361   5.566
  770TIP3   OH2 2250   6.772   1.374   2.505
  770TIP3    H1 2251   6.773   1.469   2.496
  770TIP3    H2 2252   6.694   1.346   2.456
  771TIP3   OH2 2253   0.690   3.111   0.455
  771TIP3    H1 2254   0.650   3.163   0.385
  771TIP3    H2 2255   0.764   3.164   0.485
  772TIP3   OH2 2256   0.367   1.817   2.469
  772TIP3    H1 2257   0.334   1.862   2.546
  772TIP3    H2 2258   0.460   1.838   2.467
  773TIP3   OH2 2259   1.279   2.904   5.802
  773TIP3    H1 2260   1.263   2.974   5.738
  773TIP3    H2 2261   1.265   2.823   5.752
  774TIP3   OH2 2262   5.487   3.678   1.834
  774TIP3    H1 2263   5.559   3.620   1.857
  774TIP3    H2 2264   5.450   3.705   1.919
  775TIP3   OH2 2265   3.148   6.637   0.883
  775TIP3    H1 2266   3.146   6.732   0.897
  775TIP3    H2 2267   3.076   6.604   0.937
  776TIP3   OH2 2268   0.373   7.355   2.605
  776TIP3    H1 2269   0.457   7.350   2.559
  776TIP3    H2 2270   0.386   7.422   2.671
  777TIP3   OH2 2271   4.339   2.940   4.757
  777TIP3    H1 2272   4.362   3.005   4.824
  777TIP3    H2 2273   4.337   2.857   4.804
  778TIP3   OH2 2274   2.705   3.872   1.666
  778TIP3    H1 2275   2.669   3.891   1.753
  778TIP3    H2 2276   2.795   3.845   1.682
  779TIP3   OH2 2277   6.478   4.627   2.022
  779TIP3    H1 2278   6.405   4.567   2.036
  779TIP3    H2 2279   6.554   4.570   2.010
  780TIP3   OH2 2280   6.660   5.371   3.072
  780TIP3    H1 2281   6.656   5.467   3.065
  780TIP3    H2 2282   6.609   5.339   2.998
  781TIP3   OH2 2283   6.083   7.455   5.376
  781TIP3    H1 2284   6.047   7.508   5.305
  781TIP3    H2 2285   6.058   7.502   5.456
  782TIP3   OH2 2286   7.495   0.880   1.809
  782TIP3    H1 2287   7.406   0.879   1.845
  782TIP3    H2 2288   7.523   0.971   1.817
  783TIP3   OH2 2289   3.387   4.391   6.216
  783TIP3    H1 2290   3.474   4.406   6.180
  783TIP3    H2 2291   3.386   4.440   6.298
  784TIP3   OH2 2292   7.428   5.074   3.420
  784TIP3    H1 2293   7.341   5.043   3.395
  784TIP3    H2 2294   7.425   5.081   3.516
  785TIP3   OH2 2295   3.076   5.650   6.800
  785TIP3    H1 2296   3.152   5.593   6.805
  785TIP3    H2 2297   3.005   5.593   6.769
  786TIP3   OH2 2298  -0.020   0.694   2.435
  786TIP3    H1 2299   0.059   0.728   2.477
  786TIP3    H2 2300  -0.061   0.772   2.397
  787TIP3   OH2 2301   2.764   0.889   2.901
  787TIP3    H1 2302   2.775   0.838   2.820
  787TIP3    H2 2303   2.763   0.980   2.871
  788TIP3   OH2 2304   8.187   5.665   5.943
  788TIP3    H1 2305   8.127   5.638   5.873
  788TIP3    H2 2306   8.160   5.613   6.019
  789TIP3   OH2 2307   3.196   1.886   6.277
  789TIP3    H1 2308   3.136   1.823   6.317
  789TIP3    H2 2309   3.257   1.909   6.347
  790TIP3   OH2 2310   2.077   5.258   5.246
  790TIP3    H1 2311   2.107   5.201   5.317
  790TIP3    H2 2312   2.108   5.214   5.166
  791TIP3   OH2 2313   4.660   6.042   1.462
  791TIP3    H1 2314   4.578   6.059   1.509
  791TIP3    H2 2315   4.663   6.110   1.395
  792TIP3   OH2 2316   7.434   7.434   0.586
  792TIP3    H1 2317   7.386   7.431   0.669
  792TIP3    H2 2318   7.511   7.488   0.604
  793TIP3   OH2 2319   4.136   4.624   3.480
  793TIP3    H1 2320   4.107   4.589   3.396
  793TIP3    H2 2321   4.146   4.718   3.466
  794TIP3   OH2 2322   0.659   4.842   3.210
  794TIP3    H1 2323   0.627   4.752   3.221
  794TIP3    H2 2324   0.679   4.848   3.116
  795TIP3   OH2 2325   4.335   6.383   3.772
  795TIP3    H1 2326   4.306   6.319   3.708
  795TIP3    H2 2327   4.259   6.399   3.828
  796TIP3   OH2 2328   6.659   1.216   1.571
  796TIP3    H1 2329   6.647   1.304   1.606
  796TIP3    H2 2330   6.715   1.172   1.635
  797TIP3   OH2 2331   3.849   3.105   0.823
  797TIP3    H1 2332   3.758   3.123   0.848
  797TIP3    H2 2333   3.843   3.036   0.758
  798TIP3   OH2 2334   0.040   4.222   5.099
  798TIP3    H1 2335   0.062   4.137   5.136
  798TIP3    H2 2336  -0.055   4.218   5.086
  799TIP3   OH2 2337   4.832   5.554   4.761
  799TIP3    H1 2338   4.846   5.645   4.788
  799TIP3    H2 2339   4.782   5.562   4.680
  800TIP3   OH2 2340   1.905   1.985   5.776
  800TIP3    H1 2341   1.850   2.063   5.771
  800TIP3    H2 2342   1.845   1.913   5.759
  801TIP3   OH2 2343   4.341   2.179   6.419
  801TIP3    H1 2344   4.328   2.182   6.514
  801TIP3    H2 2345   4.402   2.250   6.401
  802TIP3   OH2 2346   0.866   0.867   5.141
  802TIP3    H1 2347   0.899   0.875   5.052
  802TIP3    H2 2348   0.890   0.778   5.167
  803TIP3   OH2 2349   0.430   7.386   2.075
  803TIP3    H1 2350   0.507   7.436   2.102
  803TIP3    H2 2351   0.463   7.297   2.060
  804TIP3   OH2 2352   0.555   6.564   6.818
  804TIP3    H1 2353   0.607   6.501   6.868
  804TIP3    H2 2354   0.466   6.553   6.850
  805TIP3   OH2 2355   2.694   4.386   0.842
  805TIP3    H1 2356   2.780   4.346   0.854
  805TIP3    H2 2357   2.713   4.474   0.810
  806TIP3   OH2 2358   5.906   7.520   0.241
  806TIP3    H1 2359   5.814   7.498   0.228
  806TIP3    H2 2360   5.919   7.600   0.190
  807TIP3   OH2 2361   1.993   1.020   3.040
  807TIP3    H1 2362   1.999   0.968   3.120
  807TIP3    H2 2363   1.915   0.986   2.996
  808TIP3   OH2 2364   4.934   2.628   6.152
  808TIP3    H1 2365   4.996   2.600   6.085
  808TIP3    H2 2366   4.861   2.567   6.144
  809TIP3   OH2 2367   5.757   5.574   3.206
  809TIP3    H1 2368   5.779   5.638   3.274
  809TIP3    H2 2369   5.682   5.526   3.241
  810TIP3   OH2 2370   0.251   4.098   5.772
  810TIP3    H1 2371   0.346   4.109   5.783
  810TIP3    H2 2372   0.235   4.006   5.793
  811TIP3   OH2 2373   5.249   1.185   6.304
  811TIP3    H1 2374   5.211   1.273   6.310
  811TIP3    H2 2375   5.198   1.134   6.367
  812TIP3   OH2 2376   2.667   4.121   6.213
  812TIP3    H1 2377   2.670   4.040   6.163
  812TIP3    H2 2378   2.597   4.172   6.173
  813TIP3   OH2 2379   4.278   2.345   1.771
  813TIP3    H1 2380   4.340   2.322   1.701
  813TIP3    H2 2381   4.196   2.364   1.725
  814TIP3   OH2 2382   8.339   3.716   4.809
  814TIP3    H1 2383   8.270   3.650   4.818
  814TIP3    H2 2384   8.292   3.798   4.795
  815TIP3   OH2 2385   7.980   0.166   4.897
  815TIP3    H1 2386   7.932   0.089   4.928
  815TIP3    H2 2387   7.922   0.207   4.833
  816TIP3   OH2 2388   7.207   5.760   4.058
  816TIP3    H1 2389   7.200   5.824   3.988
  816TIP3    H2 2390   7.124   5.712   4.055
  817TIP3   OH2 2391   2.104   2.053   0.530
  817TIP3    H1 2392   2.034   2.016   0.477
  817TIP3    H2 2393   2.070   2.138   0.558
  818TIP3   OH2 2394   4.471   4.829   1.358
  818TIP3    H1 2395   4.520   4.906   1.389
  818TIP3    H2 2396   4.384   4.839   1.397
  819TIP3   OH2 2397   5.022   4.028   6.111
  819TIP3    H1 2398   4.992   4.000   6.198
  819TIP3    H2 2399   4.966   3.981   6.050
  820TIP3   OH2 2400   8.013   6.882   1.535
  820TIP3    H1 2401   8.100   6.908   1.506
  820TIP3    H2 2402   7.958   6.960   1.522
  821TIP3   OH2 2403   4.639   4.916   3.929
  821TIP3    H1 2404   4.587   4.944   3.854
  821TIP3    H2 2405   4.723   4.889   3.892
  822TIP3   OH2 2406   4.641   1.052   5.333
  822TIP3    H1 2407   4.633   0.958   5.318
  822TIP3    H2 2408   4.550   1.083   5.341
  823TIP3   OH2 2409   2.855   4.110   6.478
  823TIP3    H1 2410   2.787   4.107   6.410
  823TIP3    H2 2411   2.854   4.023   6.518
  824TIP3   OH2 2412   1.003   6.953   2.548
  824TIP3    H1 2413   1.019   6.874   2.598
  824TIP3    H2 2414   1.087   6.999   2.547
  825TIP3   OH2 2415   6.075   5.151   3.423
  825TIP3    H1 2416   6.041   5.238   3.405
  825TIP3    H2 2417   6.006   5.091   3.394
  826TIP3   OH2 2418   1.062   0.415   4.413
  826TIP3    H1 2419   1.064   0.488   4.352
  826TIP3    H2 2420   0.992   0.436   4.474
  827TIP3   OH2 2421   2.032   1.324   6.582
  827TIP3    H1 2422   1.965   1.389   6.603
  827TIP3    H2 2423   2.034   1.266   6.659
  828TIP3   OH2 2424   4.580   0.178   3.321
  828TIP3    H1 2425   4.525   0.253   3.345
  828TIP3    H2 2426   4.632   0.209   3.247
  829TIP3   OH2 2427   6.262   1.731   0.966
  829TIP3    H1 2428   6.211   1.680   0.902
  829TIP3    H2 2429   6.196   1.781   1.013
  830TIP3   OH2 2430   0.634   0.323   5.066
  830TIP3    H1 2431   0.580   0.398   5.040
  830TIP3    H2 2432   0.577   0.272   5.124
  831TIP3   OH2 2433   7.055   0.068   2.300
  831TIP3    H1 2434   7.111   0.143   2.318
  831TIP3    H2 2435   7.054   0.061   2.205
  832TIP3   OH2 2436   4.916   2.549   1.679
  832TIP3    H1 2437   4.944   2.602   1.604
  832TIP3    H2 2438   4.879   2.612   1.741
  833TIP3   OH2 2439   4.635   3.169   6.395
  833TIP3    H1 2440   4.544   3.151   6.373
  833TIP3    H2 2441   4.676   3.082   6.400
  834TIP3   OH2 2442   7.161   4.085   6.626
  834TIP3    H1 2443   7.182   4.158   6.684
  834TIP3    H2 2444   7.173   4.121   6.538
  835TIP3   OH2 2445   3.615   5.552   3.224
  835TIP3    H1 2446   3.697   5.575   3.268
  835TIP3    H2 2447   3.639   5.481   3.164
  836TIP3   OH2 2448   7.717   5.331   1.985
  836TIP3    H1 2449   7.738   5.388   1.911
  836TIP3    H2 2450   7.710   5.391   2.060
  837TIP3   OH2 2451   8.275   5.234   1.870
  837TIP3    H1 2452   8.290   5.319   1.912
  837TIP3    H2 2453   8.307   5.170   1.932
  838TIP3   OH2 2454   4.227   5.380   3.034
  838TIP3    H1 2455   4.258   5.393   2.944
  838TIP3    H2 2456   4.263   5.296   3.060
  839TIP3   OH2 2457   0.052   1.502   4.279
  839TIP3    H1 2458   0.076   1.574   4.338
  839TIP3    H2 2459   0.050   1.425   4.336
  840TIP3   OH2 2460   8.216   5.070   6.821
  840TIP3    H1 2461   8.240   5.033   6.736
  840TIP3    H2 2462   8.120   5.070   6.821
  841TIP3   OH2 2463   3.654   2.531   3.306
  841TIP3    H1 2464   3.680   2.584   3.382
  841TIP3    H2 2465   3.585   2.582   3.263
  842TIP3   OH2 2466   7.597   0.229   4.506
  842TIP3    H1 2467   7.549   0.151   4.536
  842TIP3    H2 2468   7.538   0.271   4.443
  843TIP3   OH2 2469   4.087   3.601   2.322
  843TIP3    H1 2470   4.173   3.625   2.356
  843TIP3    H2 2471   4.054   3.534   2.382
  844TIP3   OH2 2472   7.107   4.408  -0.007
  844TIP3    H1 2473   7.101   4.417   0.088
  844TIP3    H2 2474   7.083   4.494  -0.041
  845TIP3   OH2 2475   8.073   4.657   0.299
  845TIP3    H1 2476   8.023   4.736   0.319
  845TIP3    H2 2477   8.115   4.633   0.382
  846TIP3   OH2 2478   7.911   4.861   0.446
  846TIP3    H1 2479   7.945   4.947   0.422
  846TIP3    H2 2480   7.879   4.872   0.535
  847TIP3   OH2 2481   3.238   3.420   4.650
  847TIP3    H1 2482   3.233   3.501   4.599
  847TIP3    H2 2483   3.332   3.407   4.665
  848TIP3   OH2 2484   7.531   6.075   6.378
  848TIP3    H1 2485   7.506   6.018   6.450
  848TIP3    H2 2486   7.618   6.108   6.403
  849TIP3   OH2 2487   0.933   6.200   0.102
  849TIP3    H1 2488   1.026   6.216   0.087
  849TIP3    H2 2489   0.914   6.118   0.056
  850TIP3   OH2 2490   3.127   7.269   2.260
  850TIP3    H1 2491   3.199   7.331   2.269
  850TIP3    H2 2492   3.066   7.294   2.331
  851TIP3   OH2 2493   0.483   6.311   4.835
  851TIP3    H1 2494   0.424   6.293   4.762
  851TIP3    H2 2495   0.496   6.406   4.833
  852TIP3   OH2 2496   4.808   7.091   2.159
  852TIP3    H1 2497   4.895   7.124   2.135
  852TIP3    H2 2498   4.747   7.156   2.124
  853TIP3   OH2 2499   6.250   0.867   0.915
  853TIP3    H1 2500   6.305   0.840   0.988
  853TIP3    H2 2501   6.270   0.960   0.903
  854TIP3   OH2 2502   3.712   0.334   5.127
  854TIP3    H1 2503   3.774   0.394   5.085
  854TIP3    H2 2504   3.631   0.384   5.136
  855TIP3   OH2 2505   7.372   1.329   5.372
  855TIP3    H1 2506   7.411   1.253   5.330
  855TIP3    H2 2507   7.405   1.404   5.322
  856TIP3   OH2 2508   4.790   0.226   1.173
  856TIP3    H1 2509   4.840   0.184   1.104
  856TIP3    H2 2510   4.747   0.301   1.131
  857TIP3   OH2 2511   0.459   2.650   4.807
  857TIP3    H1 2512   0.470   2.614   4.720
  857TIP3    H2 2513   0.385   2.602   4.844
  858TIP3   OH2 2514   7.446   1.718   3.712
  858TIP3    H1 2515   7.528   1.672   3.730
  858TIP3    H2 2516   7.378   1.654   3.729
  859TIP3   OH2 2517   1.930   0.588   2.833
  859TIP3    H1 2518   2.008   0.629   2.869
  859TIP3    H2 2519   1.861   0.606   2.897
  860TIP3   OH2 2520   6.844   7.041   6.059
  860TIP3    H1 2521   6.857   7.032   5.965
  860TIP3    H2 2522   6.749   7.035   6.071
  861TIP3   OH2 2523   7.267   2.313   4.576
  861TIP3    H1 2524   7.363   2.315   4.578
  861TIP3    H2 2525   7.245   2.307   4.483
  862TIP3   OH2 2526   1.889   7.714   6.185
  862TIP3    H1 2527   1.940   7.641   6.151
  862TIP3    H2 2528   1.903   7.711   6.280
  863TIP3   OH2 2529   2.593   2.969   1.301
  863TIP3    H1 2530   2.668   2.935   1.252
  863TIP3    H2 2531   2.629   3.042   1.352
  864TIP3   OH2 2532   0.746   1.455   5.178
  864TIP3    H1 2533   0.746   1.396   5.253
  864TIP3    H2 2534   0.660   1.497   5.180
  865TIP3   OH2 2535   5.047   0.171   3.594
  865TIP3    H1 2536   5.038   0.202   3.504
  865TIP3    H2 2537   5.048   0.076   3.587
  866TIP3   OH2 2538   6.926   7.655   6.639
  866TIP3    H1 2539   6.938   7.699   6.723
  866TIP3    H2 2540   6.897   7.724   6.579
  867TIP3   OH2 2541   2.424   2.731   1.169
  867TIP3    H1 2542   2.505   2.713   1.122
  867TIP3    H2 2543   2.438   2.694   1.257
  868TIP3   OH2 2544   4.192   4.639   4.780
  868TIP3    H1 2545   4.284   4.643   4.807
  868TIP3    H2 2546   4.180   4.716   4.724
  869TIP3   OH2 2547   0.396   7.579   2.806
  869TIP3    H1 2548   0.459   7.546   2.870
  869TIP3    H2 2549   0.445   7.643   2.754
  870TIP3   OH2 2550   7.251   5.695   1.201
  870TIP3    H1 2551   7.198   5.728   1.129
  870TIP3    H2 2552   7.307   5.628   1.161
  871TIP3   OH2 2553   4.192   4.255   1.989
  871TIP3    H1 2554   4.134   4.295   2.054
  871TIP3    H2 2555   4.138   4.245   1.911
  872TIP3   OH2 2556   3.346   2.123   3.324
  872TIP3    H1 2557   3.371   2.047   3.377
  872TIP3    H2 2558   3.427   2.151   3.281
  873TIP3   OH2 2559   6.359   3.997   0.072
  873TIP3    H1 2560   6.318   4.047   0.001
  873TIP3    H2 2561   6.331   4.042   0.152
  874TIP3   OH2 2562   3.665   6.050   2.339
  874TIP3    H1 2563   3.611   6.105   2.282
  874TIP3    H2 2564   3.691   5.976   2.284
  875TIP3   OH2 2565   3.241   1.170   0.769
  875TIP3    H1 2566   3.163   1.202   0.723
  875TIP3    H2 2567   3.248   1.225   0.847
  876TIP3   OH2 2568   4.556   7.126   3.892
  876TIP3    H1 2569   4.580   7.063   3.825
  876TIP3    H2 2570   4.480   7.173   3.855
  877TIP3   OH2 2571   2.522   4.172   4.838
  877TIP3    H1 2572   2.435   4.166   4.878
  877TIP3    H2 2573   2.504   4.172   4.744
  878TIP3   OH2 2574   0.751   7.305   3.186
  878TIP3    H1 2575   0.839   7.344   3.181
  878TIP3    H2 2576   0.696   7.373   3.223
  879TIP3   OH2 2577   0.507   7.285   1.566
  879TIP3    H1 2578   0.594   7.250   1.587
  879TIP3    H2 2579   0.446   7.219   1.601
  880TIP3   OH2 2580   5.186   7.379   0.641
  880TIP3    H1 2581   5.257   7.436   0.609
  880TIP3    H2 2582   5.170   7.318   0.569
  881TIP3   OH2 2583   2.656   4.872   5.124
  881TIP3    H1 2584   2.736   4.877   5.072
  881TIP3    H2 2585   2.686   4.863   5.214
  882TIP3   OH2 2586   0.249   4.996   0.089
  882TIP3    H1 2587   0.160   5.022   0.114
  882TIP3    H2 2588   0.270   4.924   0.149
  883TIP3   OH2 2589   2.800   1.807   1.600
  883TIP3    H1 2590   2.865   1.753   1.555
  883TIP3    H2 2591   2.821   1.798   1.693
  884TIP3   OH2 2592   3.247   4.172   3.067
  884TIP3    H1 2593   3.172   4.114   3.075
  884TIP3    H2 2594   3.307   4.126   3.009
  885TIP3   OH2 2595   2.642   7.478   6.426
  885TIP3    H1 2596   2.660   7.471   6.520
  885TIP3    H2 2597   2.721   7.520   6.390
  886TIP3   OH2 2598   6.447   3.371   2.253
  886TIP3    H1 2599   6.464   3.465   2.258
  886TIP3    H2 2600   6.369   3.363   2.200
  887TIP3   OH2 2601   3.084   3.421   6.097
  887TIP3    H1 2602   3.142   3.486   6.056
  887TIP3    H2 2603   3.043   3.468   6.170
  888TIP3   OH2 2604   3.782   6.785   5.946
  888TIP3    H1 2605   3.815   6.721   5.882
  888TIP3    H2 2606   3.839   6.774   6.022
  889TIP3   OH2 2607   8.228   6.442   3.152
  889TIP3    H1 2608   8.301   6.486   3.196
  889TIP3    H2 2609   8.255   6.437   3.061
  890TIP3   OH2 2610   3.416   4.721   6.120
  890TIP3    H1 2611   3.455   4.634   6.131
  890TIP3    H2 2612   3.324   4.704   6.102
  891TIP3   OH2 2613   5.827   6.976   0.138
  891TIP3    H1 2614   5.818   6.942   0.227
  891TIP3    H2 2615   5.902   7.035   0.141
  892TIP3   OH2 2616   6.566   2.746   6.626
  892TIP3    H1 2617   6.508   2.729   6.701
  892TIP3    H2 2618   6.539   2.833   6.594
  893TIP3   OH2 2619   1.654   7.245   2.114
  893TIP3    H1 2620   1.648   7.271   2.022
  893TIP3    H2 2621   1.565   7.223   2.139
  894TIP3   OH2 2622   7.959   2.364   1.586
  894TIP3    H1 2623   7.973   2.274   1.615
  894TIP3    H2 2624   7.870   2.386   1.615
  895TIP3   OH2 2625   7.469   6.316   6.864
  895TIP3    H1 2626   7.522   6.387   6.827
  895TIP3    H2 2627   7.512   6.236   6.833
  896TIP3   OH2 2628   0.030   2.068   2.072
  896TIP3    H1 2629   0.003   1.988   2.026
  896TIP3    H2 2630   0.073   2.036   2.151
  897TIP3   OH2 2631   7.872   7.728   2.964
  897TIP3    H1 2632   7.906   7.672   2.894
  897TIP3    H2 2633   7.821   7.669   3.019
  898TIP3   OH2 2634   5.493   2.797   4.190
  898TIP3    H1 2635   5.484   2.747   4.272
  898TIP3    H2 2636   5.471   2.734   4.122
  899TIP3   OH2 2637   2.526   2.697   5.086
  899TIP3    H1 2638   2.599   2.730   5.033
  899TIP3    H2 2639   2.503   2.614   5.044
  900TIP3   OH2 2640   4.441   4.483   4.113
  900TIP3    H1 2641   4.477   4.428   4.044
  900TIP3    H2 2642   4.346   4.476   4.103
  901TIP3   OH2 2643   0.158   5.686   4.052
  901TIP3    H1 2644   0.203   5.722   4.128
  901TIP3    H2 2645   0.084   5.745   4.038
  902TIP3   OH2 2646   4.694   0.899   4.751
  902TIP3    H1 2647   4.642   0.945   4.816
  902TIP3    H2 2648   4.709   0.963   4.682
  903TIP3   OH2 2649   3.560   1.002   5.970
  903TIP3    H1 2650   3.601   0.964   6.048
  903TIP3    H2 2651   3.595   1.091   5.965
  904TIP3   OH2 2652   1.343   3.402   2.117
  904TIP3    H1 2653   1.332   3.443   2.031
  904TIP3    H2 2654   1.405   3.331   2.102
  905TIP3   OH2 2655   1.307   0.820   3.920
  905TIP3    H1 2656   1.312   0.847   3.829
  905TIP3    H2 2657   1.230   0.764   3.924
  906TIP3   OH2 2658   5.887   0.524   6.538
  906TIP3    H1 2659   5.852   0.591   6.596
  906TIP3    H2 2660   5.940   0.573   6.475
  907TIP3   OH2 2661   2.185   0.426   1.096
  907TIP3    H1 2662   2.189   0.331   1.085
  907TIP3    H2 2663   2.095   0.443   1.125
  908TIP3   OH2 2664   7.463   4.873   0.749
  908TIP3    H1 2665   7.448   4.956   0.704
  908TIP3    H2 2666   7.387   4.863   0.807
  909TIP3   OH2 2667   1.992   6.214   1.317
  909TIP3    H1 2668   1.942   6.231   1.236
  909TIP3    H2 2669   2.004   6.301   1.356
  910TIP3   OH2 2670   5.803   7.379   4.245
  910TIP3    H1 2671   5.724   7.336   4.277
  910TIP3    H2 2672   5.864   7.376   4.318
  911TIP3   OH2 2673   4.039   4.297   5.541
  911TIP3    H1 2674   4.013   4.388   5.556
  911TIP3    H2 2675   4.122   4.304   5.493
  912TIP3   OH2 2676   5.452   5.941   5.789
  912TIP3    H1 2677   5.433   5.848   5.804
  912TIP3    H2 2678   5.514   5.941   5.716
  913TIP3   OH2 2679   1.614   3.821   2.412
  913TIP3    H1 2680   1.639   3.834   2.320
  913TIP3    H2 2681   1.697   3.807   2.457
  914TIP3   OH2 2682   4.130   7.557   4.713
  914TIP3    H1 2683   4.215   7.520   4.737
  914TIP3    H2 2684   4.082   7.561   4.796
  915TIP3   OH2 2685   7.825   7.874   6.339
  915TIP3    H1 2686   7.771   7.909   6.268
  915TIP3    H2 2687   7.914   7.879   6.305
  916TIP3   OH2 2688   4.992   2.725   4.993
  916TIP3    H1 2689   5.026   2.815   4.991
  916TIP3    H2 2690   4.966   2.707   4.903
  917TIP3   OH2 2691   1.746   5.108   2.331
  917TIP3    H1 2692   1.657   5.082   2.307
  917TIP3    H2 2693   1.749   5.202   2.314
  918TIP3   OH2 2694   5.172   7.044   3.011
  918TIP3    H1 2695   5.098   7.045   3.072
  918TIP3    H2 2696   5.134   7.009   2.930
  919TIP3   OH2 2697   2.163   6.291   2.275
  919TIP3    H1 2698   2.217   6.254   2.344
  919TIP3    H2 2699   2.074   6.264   2.296
  920TIP3   OH2 2700   7.189   0.644   5.369
  920TIP3    H1 2701   7.225   0.556   5.381
  920TIP3    H2 2702   7.266   0.701   5.361
  921TIP3   OH2 2703   4.396   6.934   1.013
  921TIP3    H1 2704   4.415   6.841   1.005
  921TIP3    H2 2705   4.476   6.971   1.051
  922TIP3   OH2 2706   1.656   2.941   5.441
  922TIP3    H1 2707   1.722   2.879   5.474
  922TIP3    H2 2708   1.600   2.958   5.517
  923TIP3   OH2 2709   5.071   1.607   0.106
  923TIP3    H1 2710   5.046   1.560   0.026
  923TIP3    H2 2711   4.988   1.634   0.145
  924TIP3   OH2 2712   5.208   5.672   2.081
  924TIP3    H1 2713   5.211   5.605   2.148
  924TIP3    H2 2714   5.116   5.675   2.054
  925TIP3   OH2 2715   0.924   7.198   3.478
  925TIP3    H1 2716   0.982   7.252   3.531
  925TIP3    H2 2717   0.959   7.205   3.389
  926TIP3   OH2 2718   8.223   7.174   2.794
  926TIP3    H1 2719   8.166   7.099   2.811
  926TIP3    H2 2720   8.305   7.152   2.839
  927TIP3   OH2 2721   8.314   4.235   5.408
  927TIP3    H1 2722   8.228   4.195   5.423
  927TIP3    H2 2723   8.352   4.245   5.496
  928TIP3   OH2 2724   3.085   4.409   2.960
  928TIP3    H1 2725   3.163   4.359   2.985
  928TIP3    H2 2726   3.024   4.343   2.926
  929TIP3   OH2 2727   1.320   4.004   6.030
  929TIP3    H1 2728   1.387   4.068   6.006
  929TIP3    H2 2729   1.341   3.979   6.120
  930TIP3   OH2 2730   4.894   4.362   3.452
  930TIP3    H1 2731   4.973   4.348   3.504
  930TIP3    H2 2732   4.927   4.374   3.362
  931TIP3   OH2 2733   7.985   7.655   2.083
  931TIP3    H1 2734   7.956   7.598   2.012
  931TIP3    H2 2735   7.935   7.735   2.072
  932TIP3   OH2 2736   2.405   5.717   1.777
  932TIP3    H1 2737   2.471   5.786   1.789
  932TIP3    H2 2738   2.369   5.703   1.865
  933TIP3   OH2 2739   6.713   2.125   2.781
  933TIP3    H1 2740   6.624   2.101   2.805
  933TIP3    H2 2741   6.712   2.126   2.685
  934TIP3   OH2 2742   8.319   3.479   2.116
  934TIP3    H1 2743   8.335   3.414   2.048
  934TIP3    H2 2744   8.406   3.499   2.151
  935TIP3   OH2 2745   4.963   1.130   0.340
  935TIP3    H1 2746   4.882   1.157   0.384
  935TIP3    H2 2747   5.016   1.210   0.337
  936TIP3   OH2 2748   4.088   6.380   4.140
  936TIP3    H1 2749   4.108   6.329   4.219
  936TIP3    H2 2750   3.997   6.407   4.151
  937TIP3   OH2 2751   8.205   5.956   5.701
  937TIP3    H1 2752   8.196   5.868   5.664
  937TIP3    H2 2753   8.170   6.014   5.633
  938TIP3   OH2 2754   1.996   2.224   2.968
  938TIP3    H1 2755   1.951   2.146   3.001
  938TIP3    H2 2756   2.029   2.268   3.046
  939TIP3   OH2 2757   1.666   4.194   2.152
  939TIP3    H1 2758   1.588   4.144   2.129
  939TIP3    H2 2759   1.679   4.253   2.077
  940TIP3   OH2 2760   0.216   4.018   1.181
  940TIP3    H1 2761   0.254   3.939   1.143
  940TIP3    H2 2762   0.250   4.089   1.127
  941TIP3   OH2 2763   6.830   0.797   2.181
  941TIP3    H1 2764   6.860   0.884   2.206
  941TIP3    H2 2765   6.767   0.773   2.249
  942TIP3   OH2 2766   3.456   1.288   4.221
  942TIP3    H1 2767   3.438   1.222   4.288
  942TIP3    H2 2768   3.375   1.339   4.217
  943TIP3   OH2 2769   1.079   5.644   3.958
  943TIP3    H1 2770   1.010   5.581   3.939
  943TIP3    H2 2771   1.095   5.634   4.052
  944TIP3   OH2 2772   1.355   0.120   2.289
  944TIP3    H1 2773   1.269   0.125   2.247
  944TIP3    H2 2774   1.396   0.042   2.251
  945TIP3   OH2 2775   6.666   1.812   0.108
  945TIP3    H1 2776   6.590   1.867   0.089
  945TIP3    H2 2777   6.738   1.874   0.119
  946TIP3   OH2 2778   7.902   3.027   0.718
  946TIP3    H1 2779   7.832   2.964   0.701
  946TIP3    H2 2780   7.976   2.994   0.668
  947TIP3   OH2 2781   6.989   5.462   6.281
  947TIP3    H1 2782   6.946   5.535   6.327
  947TIP3    H2 2783   7.035   5.415   6.351
  948TIP3   OH2 2784   7.137   7.043   0.887
  948TIP3    H1 2785   7.181   7.085   0.814
  948TIP3    H2 2786   7.059   7.003   0.849
  949TIP3   OH2 2787   0.116   2.665   4.556
  949TIP3    H1 2788   0.096   2.754   4.526
  949TIP3    H2 2789   0.176   2.678   4.629
  950TIP3   OH2 2790   4.326   7.586   6.510
  950TIP3    H1 2791   4.231   7.571   6.507
  950TIP3    H2 2792   4.363   7.500   6.527
  951TIP3   OH2 2793   2.220   6.641   4.910
  951TIP3    H1 2794   2.180   6.554   4.905
  951TIP3    H2 2795   2.291   6.638   4.845
  952TIP3   OH2 2796   6.620   5.629   2.983
  952TIP3    H1 2797   6.608   5.720   3.009
  952TIP3    H2 2798   6.695   5.630   2.924
  953TIP3   OH2 2799   0.561   1.415   0.563
  953TIP3    H1 2800   0.598   1.327   0.553
  953TIP3    H2 2801   0.627   1.463   0.612
  954TIP3   OH2 2802   6.034   3.578   3.621
  954TIP3    H1 2803   6.099   3.572   3.550
  954TIP3    H2 2804   5.991   3.493   3.621
  955TIP3   OH2 2805   4.547   3.169   2.380
  955TIP3    H1 2806   4.478   3.114   2.342
  955TIP3    H2 2807   4.621   3.158   2.320
  956TIP3   OH2 2808   2.383   0.263   5.616
  956TIP3    H1 2809   2.316   0.206   5.580
  956TIP3    H2 2810   2.433   0.294   5.540
  957TIP3   OH2 2811   5.773   1.384   4.252
  957TIP3    H1 2812   5.706   1.406   4.317
  957TIP3    H2 2813   5.733   1.404   4.168
  958TIP3   OH2 2814   7.931   3.600   3.866
  958TIP3    H1 2815   7.850   3.572   3.824
  958TIP3    H2 2816   8.001   3.566   3.811
  959TIP3   OH2 2817   6.529   2.694   4.374
  959TIP3    H1 2818   6.498   2.605   4.387
  959TIP3    H2 2819   6.568   2.718   4.458
  960TIP3   OH2 2820   1.146   6.182   1.392
  960TIP3    H1 2821   1.094   6.252   1.433
  960TIP3    H2 2822   1.091   6.104   1.399
  961TIP3   OH2 2823   0.746   5.808   4.708
  961TIP3    H1 2824   0.727   5.894   4.746
  961TIP3    H2 2825   0.661   5.776   4.678
  962TIP3   OH2 2826   2.436   1.149   3.517
  962TIP3    H1 2827   2.350   1.115   3.489
  962TIP3    H2 2828   2.423   1.244   3.523
  963TIP3   OH2 2829   8.257   6.411   1.303
  963TIP3    H1 2830   8.190   6.378   1.243
  963TIP3    H2 2831   8.240   6.505   1.311
  964TIP3   OH2 2832   3.149   2.497   0.920
  964TIP3    H1 2833   3.115   2.501   0.831
  964TIP3    H2 2834   3.243   2.514   0.911
  965TIP3   OH2 2835   7.857   6.895   3.881
  965TIP3    H1 2836   7.841   6.801   3.879
  965TIP3    H2 2837   7.944   6.905   3.919
  966TIP3   OH2 2838   7.156   5.349   3.660
  966TIP3    H1 2839   7.242   5.388   3.647
  966TIP3    H2 2840   7.172   5.273   3.716
  967TIP3   OH2 2841   3.137   2.657   2.273
  967TIP3    H1 2842   3.159   2.750   2.267
  967TIP3    H2 2843   3.125   2.641   2.367
  968TIP3   OH2 2844   0.745   2.218   4.053
  968TIP3    H1 2845   0.836   2.238   4.033
  968TIP3    H2 2846   0.727   2.137   4.006
  969TIP3   OH2 2847   3.961   3.955   4.986
  969TIP3    H1 2848   3.991   3.979   5.074
  969TIP3    H2 2849   4.041   3.957   4.933
  970TIP3   OH2 2850   6.290   7.202   4.576
  970TIP3    H1 2851   6.334   7.120   4.598
  970TIP3    H2 2852   6.359   7.258   4.540
  971TIP3   OH2 2853   4.680   4.486   3.500
  971TIP3    H1 2854   4.655   4.484   3.407
  971TIP3    H2 2855   4.759   4.432   3.504
  972TIP3   OH2 2856   6.565   3.375   3.372
  972TIP3    H1 2857   6.474   3.362   3.346
  972TIP3    H2 2858   6.585   3.298   3.426
  973TIP3   OH2 2859   5.265   5.652   3.811
  973TIP3    H1 2860   5.354   5.685   3.825
  973TIP3    H2 2861   5.209   5.729   3.825
  974TIP3   OH2 2862   3.087   3.295   0.268
  974TIP3    H1 2863   3.106   3.217   0.215
  974TIP3    H2 2864   3.053   3.358   0.205
  975TIP3   OH2 2865   3.651   7.164   4.915
  975TIP3    H1 2866   3.584   7.221   4.877
  975TIP3    H2 2867   3.721   7.224   4.941
  976TIP3   OH2 2868   3.276   0.141   4.622
  976TIP3    H1 2869   3.227   0.068   4.660
  976TIP3    H2 2870   3.366   0.108   4.615
  977TIP3   OH2 2871   3.043   2.872   1.349
  977TIP3    H1 2872   3.071   2.808   1.284
  977TIP3    H2 2873   3.118   2.884   1.406
  978TIP3   OH2 2874   7.251   4.228   5.331
  978TIP3    H1 2875   7.239   4.139   5.299
  978TIP3    H2 2876   7.192   4.236   5.406
  979TIP3   OH2 2877   1.924   2.392   6.445
  979TIP3    H1 2878   1.941   2.434   6.529
  979TIP3    H2 2879   1.836   2.357   6.453
  980TIP3   OH2 2880   2.678   1.173   1.237
  980TIP3    H1 2881   2.603   1.172   1.177
  980TIP3    H2 2882   2.653   1.233   1.307
  981TIP3   OH2 2883   6.465   5.717   5.377
  981TIP3    H1 2884   6.515   5.646   5.337
  981TIP3    H2 2885   6.393   5.734   5.315
  982TIP3   OH2 2886   2.111   4.786   5.091
  982TIP3    H1 2887   2.049   4.791   5.018
  982TIP3    H2 2888   2.094   4.864   5.143
  983TIP3   OH2 2889   3.493   3.282   4.427
  983TIP3    H1 2890   3.548   3.206   4.407
  983TIP3    H2 2891   3.544   3.334   4.489
  984TIP3   OH2 2892   3.257   7.375   0.552
  984TIP3    H1 2893   3.338   7.427   0.550
  984TIP3    H2 2894   3.209   7.403   0.474
  985TIP3   OH2 2895   5.017   1.507   3.977
  985TIP3    H1 2896   5.041   1.429   3.927
  985TIP3    H2 2897   4.948   1.549   3.926
  986TIP3   OH2 2898   3.366   4.389   4.859
  986TIP3    H1 2899   3.450   4.431   4.877
  986TIP3    H2 2900   3.339   4.353   4.943
  987TIP3   OH2 2901   6.766   3.281   5.940
  987TIP3    H1 2902   6.774   3.265   5.846
  987TIP3    H2 2903   6.840   3.337   5.962
  988TIP3   OH2 2904   6.157   6.769   5.400
  988TIP3    H1 2905   6.175   6.839   5.462
  988TIP3    H2 2906   6.093   6.713   5.444
  989TIP3   OH2 2907   0.642   1.229   3.091
  989TIP3    H1 2908   0.591   1.263   3.018
  989TIP3    H2 2909   0.595   1.150   3.119
  990TIP3   OH2 2910   6.520   5.630   0.203
  990TIP3    H1 2911   6.524   5.535   0.188
  990TIP3    H2 2912   6.449   5.660   0.147
  991TIP3   OH2 2913   3.356   6.070   4.699
  991TIP3    H1 2914   3.406   6.005   4.649
  991TIP3    H2 2915   3.323   6.130   4.633
  992TIP3   OH2 2916   6.717   3.780   0.879
  992TIP3    H1 2917   6.741   3.872   0.877
  992TIP3    H2 2918   6.665   3.770   0.958
  993TIP3   OH2 2919   4.472   3.739   1.908
  993TIP3    H1 2920   4.447   3.669   1.847
  993TIP3    H2 2921   4.390   3.785   1.927
  994TIP3   OH2 2922   0.884   6.128   5.170
  994TIP3    H1 2923   0.857   6.105   5.081
  994TIP3    H2 2924   0.938   6.055   5.199
  995TIP3   OH2 2925   3.742   4.866   1.115
  995TIP3    H1 2926   3.778   4.898   1.032
  995TIP3    H2 2927   3.677   4.931   1.140
  996TIP3   OH2 2928   4.525   7.618   4.850
  996TIP3    H1 2929   4.570   7.637   4.932
  996TIP3    H2 2930   4.432   7.624   4.872
  997TIP3   OH2 2931   0.858   3.525   0.608
  997TIP3    H1 2932   0.932   3.585   0.598
  997TIP3    H2 2933   0.842   3.523   0.703
  998TIP3   OH2 2934   6.099   3.361   4.293
  998TIP3    H1 2935   6.112   3.454   4.314
  998TIP3    H2 2936   6.133   3.352   4.203
  999TIP3   OH2 2937   5.776   6.622   6.854
  999TIP3    H1 2938   5.827   6.670   6.919
  999TIP3    H2 2939   5.840   6.571   6.806
 1000TIP3   OH2 2940   5.504   5.695   3.516
 1000TIP3    H1 2941   5.565   5.651   3.457
 1000TIP3    H2 2942   5.507   5.642   3.596
 1001TIP3   OH2 2943   2.177   2.883   4.698
 1001TIP3    H1 2944   2.183   2.807   4.755
 1001TIP3    H2 2945   2.263   2.890   4.658
 1002TIP3   OH2 2946   5.097   1.415   6.260
 1002TIP3    H1 2947   5.047   1.452   6.332
 1002TIP3    H2 2948   5.165   1.480   6.241
 1003TIP3   OH2 2949   4.484   4.202   2.455
 1003TIP3    H1 2950   4.442   4.206   2.369
 1003TIP3    H2 2951   4.557   4.141   2.444
 1004TIP3   OH2 2952   5.246   0.771   5.172
 1004TIP3    H1 2953   5.218   0.716   5.099
 1004TIP3    H2 2954   5.295   0.842   5.132
 1005TIP3   OH2 2955   0.366   5.550   4.500
 1005TIP3    H1 2956   0.412   5.593   4.572
 1005TIP3    H2 2957   0.275   5.577   4.509
 1006TIP3   OH2 2958   0.734   1.866   2.274
 1006TIP3    H1 2959   0.819   1.824   2.264
 1006TIP3    H2 2960   0.754   1.959   2.284
 1007TIP3   OH2 2961   5.053   4.419   2.065
 1007TIP3    H1 2962   5.135   4.426   2.016
 1007TIP3    H2 2963   5.002   4.353   2.019
 1008TIP3   OH2 2964   6.500   3.757   1.090
 1008TIP3    H1 2965   6.464   3.831   1.040
 1008TIP3    H2 2966   6.424   3.720   1.135
 1009TIP3   OH2 2967   4.145   5.630   4.652
 1009TIP3    H1 2968   4.081   5.697   4.676
 1009TIP3    H2 2969   4.230   5.673   4.663
 1010TIP3   OH2 2970   3.106   6.942   4.831
 1010TIP3    H1 2971   3.075   6.974   4.747
 1010TIP3    H2 2972   3.056   6.861   4.846
 1011TIP3   OH2 2973   4.351   4.384   1.399
 1011TIP3    H1 2974   4.316   4.297   1.417
 1011TIP3    H2 2975   4.282   4.444   1.428
 1012TIP3   OH2 2976   8.200   0.340   4.767
 1012TIP3    H1 2977   8.160   0.302   4.846
 1012TIP3    H2 2978   8.167   0.287   4.695
 1013TIP3   OH2 2979   7.376   0.050   2.470
 1013TIP3    H1 2980   7.339   0.099   2.543
 1013TIP3    H2 2981   7.464   0.027   2.499
 1014TIP3   OH2 2982   2.400   6.883   5.097
 1014TIP3    H1 2983   2.446   6.805   5.066
 1014TIP3    H2 2984   2.307   6.858   5.096
 1015TIP3   OH2 2985   1.875   4.613   5.631
 1015TIP3    H1 2986   1.859   4.652   5.546
 1015TIP3    H2 2987   1.942   4.669   5.671
 1016TIP3   OH2 2988   0.456   4.952   3.369
 1016TIP3    H1 2989   0.472   4.876   3.425
 1016TIP3    H2 2990   0.518   4.940   3.296
 1017TIP3   OH2 2991   7.435   1.778   5.967
 1017TIP3    H1 2992   7.394   1.768   5.881
 1017TIP3    H2 2993   7.484   1.860   5.959
 1018TIP3   OH2 2994   3.637   1.655   6.287
 1018TIP3    H1 2995   3.670   1.727   6.233
 1018TIP3    H2 2996   3.622   1.584   6.224
 1019TIP3   OH2 2997   7.682   3.448   2.482
 1019TIP3    H1 2998   7.737   3.371   2.464
 1019TIP3    H2 2999   7.621   3.418   2.549
 1020TIP3   OH2 3000   2.143   0.952   2.682
 1020TIP3    H1 3001   2.234   0.929   2.700
 1020TIP3    H2 3002   2.096   0.869   2.683
 1021TIP3   OH2 3003   4.914   6.663   5.959
 1021TIP3    H1 3004   4.967   6.687   6.035
 1021TIP3    H2 3005   4.936   6.571   5.943
 1022TIP3   OH2 3006   6.644   0.943   1.028
 1022TIP3    H1 3007   6.656   0.872   0.965
 1022TIP3    H2 3008   6.643   1.023   0.976
 1023TIP3   OH2 3009   7.287   3.260   0.681
 1023TIP3    H1 3010   7.251   3.215   0.604
 1023TIP3    H2 3011   7.210   3.293   0.727
 1024TIP3   OH2 3012   4.828   5.159   5.707
 1024TIP3    H1 3013   4.874   5.083   5.673
 1024TIP3    H2 3014   4.735   5.141   5.691
 1025TIP3   OH2 3015   6.282   4.487   4.304
 1025TIP3    H1 3016   6.216   4.435   4.349
 1025TIP3    H2 3017   6.349   4.424   4.277
 1026TIP3   OH2 3018   7.442   7.042   0.765
 1026TIP3    H1 3019   7.355   7.013   0.738
 1026TIP3    H2 3020   7.478   7.087   0.688
 1027TIP3   OH2 3021   6.629   7.254   3.994
 1027TIP3    H1 3022   6.659   7.249   3.903
 1027TIP3    H2 3023   6.557   7.191   3.999
 1028TIP3   OH2 3024   8.156   5.712   6.347
 1028TIP3    H1 3025   8.152   5.627   6.302
 1028TIP3    H2 3026   8.088   5.764   6.304
 1029TIP3   OH2 3027   3.376   0.612   1.091
 1029TIP3    H1 3028   3.393   0.530   1.044
 1029TIP3    H2 3029   3.283   0.628   1.078
 1030TIP3   OH2 3030   1.707   5.284   3.121
 1030TIP3    H1 3031   1.659   5.204   3.103
 1030TIP3    H2 3032   1.640   5.352   3.125
 1031TIP3   OH2 3033   7.661   2.163   2.997
 1031TIP3    H1 3034   7.657   2.238   2.938
 1031TIP3    H2 3035   7.574   2.160   3.037
 1032TIP3   OH2 3036   7.925   0.660   0.417
 1032TIP3    H1 3037   7.991   0.623   0.359
 1032TIP3    H2 3038   7.955   0.749   0.434
 1033TIP3   OH2 3039   3.294   5.997   6.015
 1033TIP3    H1 3040   3.232   6.006   5.942
 1033TIP3    H2 3041   3.379   6.019   5.976
 1034TIP3   OH2 3042   3.330   5.669   6.065
 1034TIP3    H1 3043   3.416   5.627   6.071
 1034TIP3    H2 3044   3.328   5.707   5.977
 1035TIP3   OH2 3045   0.765   1.501   2.272
 1035TIP3    H1 3046   0.725   1.441   2.210
 1035TIP3    H2 3047   0.856   1.473   2.277
 1036TIP3   OH2 3048   7.564   1.390   6.029
 1036TIP3    H1 3049   7.469   1.379   6.031
 1036TIP3    H2 3050   7.597   1.322   6.087
 1037TIP3   OH2 3051   6.932   2.300   3.597
 1037TIP3    H1 3052   6.909   2.241   3.669
 1037TIP3    H2 3053   6.937   2.243   3.520
 1038TIP3   OH2 3054   1.964   6.477   1.413
 1038TIP3    H1 3055   1.903   6.510   1.347
 1038TIP3    H2 3056   2.021   6.551   1.433
 1039TIP3   OH2 3057   0.864   3.886   4.879
 1039TIP3    H1 3058   0.808   3.812   4.897
 1039TIP3    H2 3059   0.915   3.860   4.802
 1040TIP3   OH2 3060   4.650   5.674   2.937
 1040TIP3    H1 3061   4.614   5.735   3.001
 1040TIP3    H2 3062   4.738   5.655   2.969
 1041TIP3   OH2 3063   1.249   6.828   0.859
 1041TIP3    H1 3064   1.287   6.749   0.819
 1041TIP3    H2 3065   1.293   6.901   0.815
 1042TIP3   OH2 3066   4.576   5.545   2.690
 1042TIP3    H1 3067   4.623   5.593   2.759
 1042TIP3    H2 3068   4.542   5.613   2.633
 1043TIP3   OH2 3069   3.599   4.777   1.915
 1043TIP3    H1 3070   3.595   4.763   1.820
 1043TIP3    H2 3071   3.688   4.752   1.938
 1044TIP3   OH2 3072   0.515   1.234   5.876
 1044TIP3    H1 3073   0.491   1.143   5.861
 1044TIP3    H2 3074   0.432   1.279   5.893
 1045TIP3   OH2 3075   5.886   2.041   3.894
 1045TIP3    H1 3076   5.827   1.987   3.946
 1045TIP3    H2 3077   5.923   2.103   3.957
 1046TIP3   OH2 3078   3.402   7.839   4.431
 1046TIP3    H1 3079   3.414   7.808   4.520
 1046TIP3    H2 3080   3.368   7.928   4.440
 1047TIP3   OH2 3081   1.727   0.284   2.433
 1047TIP3    H1 3082   1.760   0.322   2.514
 1047TIP3    H2 3083   1.802   0.238   2.395
 1048TIP3   OH2 3084   3.349   5.259   5.116
 1048TIP3    H1 3085   3.391   5.219   5.192
 1048TIP3    H2 3086   3.347   5.190   5.049
 1049TIP3   OH2 3087   5.736   5.852   1.145
 1049TIP3    H1 3088   5.653   5.891   1.170
 1049TIP3    H2 3089   5.778   5.918   1.090
 1050TIP3   OH2 3090   6.646   5.440   5.708
 1050TIP3    H1 3091   6.713   5.504   5.731
 1050TIP3    H2 3092   6.634   5.387   5.786
 1051TIP3   OH2 3093   0.541   5.772   1.218
 1051TIP3    H1 3094   0.478   5.777   1.146
 1051TIP3    H2 3095   0.627   5.776   1.174
 1052TIP3   OH2 3096   1.371   4.796   2.434
 1052TIP3    H1 3097   1.364   4.771   2.526
 1052TIP3    H2 3098   1.464   4.787   2.413
 1053TIP3   OH2 3099   1.205   0.839   6.064
 1053TIP3    H1 3100   1.172   0.814   5.978
 1053TIP3    H2 3101   1.132   0.886   6.105
 1054TIP3   OH2 3102   5.783   3.865   0.924
 1054TIP3    H1 3103   5.829   3.782   0.927
 1054TIP3    H2 3104   5.850   3.929   0.900
 1055TIP3   OH2 3105   0.952   0.158   2.042
 1055TIP3    H1 3106   0.967   0.102   1.966
 1055TIP3    H2 3107   0.857   0.172   2.043
 1056TIP3   OH2 3108   8.083   4.714   4.157
 1056TIP3    H1 3109   8.118   4.725   4.245
 1056TIP3    H2 3110   8.157   4.679   4.107
 1057TIP3   OH2 3111   6.485   1.640   4.599
 1057TIP3    H1 3112   6.516   1.710   4.541
 1057TIP3    H2 3113   6.542   1.646   4.676
 1058TIP3   OH2 3114   3.575   0.466   0.907
 1058TIP3    H1 3115   3.554   0.376   0.883
 1058TIP3    H2 3116   3.649   0.489   0.851
 1059TIP3   OH2 3117   5.070   2.175   3.367
 1059TIP3    H1 3118   5.039   2.125   3.291
 1059TIP3    H2 3119   5.135   2.118   3.408
 1060TIP3   OH2 3120   1.407   4.632   5.506
 1060TIP3    H1 3121   1.331   4.654   5.453
 1060TIP3    H2 3122   1.388   4.546   5.542
 1061TIP3   OH2 3123   0.671   4.243   1.505
 1061TIP3    H1 3124   0.678   4.153   1.473
 1061TIP3    H2 3125   0.577   4.260   1.510
 1062TIP3   OH2 3126   7.918   6.284   0.701
 1062TIP3    H1 3127   7.877   6.349   0.757
 1062TIP3    H2 3128   8.008   6.277   0.733
 1063TIP3   OH2 3129   4.859   7.467   6.751
 1063TIP3    H1 3130   4.858   7.465   6.846
 1063TIP3    H2 3131   4.895   7.553   6.729
 1064TIP3   OH2 3132   8.059   0.203   1.212
 1064TIP3    H1 3133   7.969   0.172   1.213
 1064TIP3    H2 3134   8.106   0.144   1.271
 1065TIP3   OH2 3135   7.081   2.416   5.479
 1065TIP3    H1 3136   7.140   2.416   5.555
 1065TIP3    H2 3137   7.027   2.494   5.490
 1066TIP3   OH2 3138   2.915   2.886   3.968
 1066TIP3    H1 3139   2.870   2.939   3.903
 1066TIP3    H2 3140   2.911   2.938   4.049
 1067TIP3   OH2 3141   7.250   1.662   0.618
 1067TIP3    H1 3142   7.189   1.602   0.575
 1067TIP3    H2 3143   7.273   1.725   0.551
 1068TIP3   OH2 3144   1.579   1.429   6.151
 1068TIP3    H1 3145   1.598   1.382   6.233
 1068TIP3    H2 3146   1.550   1.515   6.179
 1069TIP3   OH2 3147   6.812   6.013   1.347
 1069TIP3    H1 3148   6.729   5.985   1.386
 1069TIP3    H2 3149   6.836   5.942   1.287
 1070TIP3   OH2 3150   1.258   6.038   1.169
 1070TIP3    H1 3151   1.332   6.000   1.216
 1070TIP3    H2 3152   1.208   6.084   1.236
 1071TIP3   OH2 3153   6.219   1.334   2.521
 1071TIP3    H1 3154   6.130   1.348   2.490
 1071TIP3    H2 3155   6.274   1.364   2.448
 1072TIP3   OH2 3156   2.796   4.101   4.852
 1072TIP3    H1 3157   2.878   4.148   4.837
 1072TIP3    H2 3158   2.728   4.168   4.851
 1073TIP3   OH2 3159   2.495   2.016   6.281
 1073TIP3    H1 3160   2.421   2.023   6.342
 1073TIP3    H2 3161   2.569   2.055   6.328
 1074TIP3   OH2 3162   3.215   4.212   2.251
 1074TIP3    H1 3163   3.276   4.272   2.294
 1074TIP3    H2 3164   3.147   4.196   2.317
 1075TIP3   OH2 3165   0.664   1.796   2.533
 1075TIP3    H1 3166   0.713   1.849   2.597
 1075TIP3    H2 3167   0.689   1.834   2.448
 1076TIP3   OH2 3168   0.588   4.603   2.336
 1076TIP3    H1 3169   0.546   4.570   2.257
 1076TIP3    H2 3170   0.548   4.554   2.407
 1077TIP3   OH2 3171   1.233   7.465   0.546
 1077TIP3    H1 3172   1.318   7.434   0.516
 1077TIP3    H2 3173   1.218   7.421   0.629
 1078TIP3   OH2 3174   4.543   3.399   3.154
 1078TIP3    H1 3175   4.618   3.458   3.154
 1078TIP3    H2 3176   4.536   3.369   3.063
 1079TIP3   OH2 3177   1.086   7.264   5.598
 1079TIP3    H1 3178   1.070   7.352   5.630
 1079TIP3    H2 3179   1.176   7.266   5.565
 1080TIP3   OH2 3180   7.468   1.775   0.901
 1080TIP3    H1 3181   7.562   1.785   0.918
 1080TIP3    H2 3182   7.463   1.698   0.844
 1081TIP3   OH2 3183   4.841   6.172   6.466
 1081TIP3    H1 3184   4.841   6.197   6.559
 1081TIP3    H2 3185   4.850   6.077   6.466
 1082TIP3   OH2 3186   2.979   2.374   5.953
 1082TIP3    H1 3187   2.995   2.386   6.047
 1082TIP3    H2 3188   3.066   2.361   5.916
 1083TIP3   OH2 3189   8.333   2.399   5.391
 1083TIP3    H1 3190   8.340   2.348   5.471
 1083TIP3    H2 3191   8.282   2.476   5.416
 1084TIP3   OH2 3192   4.720   1.109   2.099
 1084TIP3    H1 3193   4.644   1.150   2.057
 1084TIP3    H2 3194   4.727   1.153   2.184
 1085TIP3   OH2 3195   4.541   0.723   3.573
 1085TIP3    H1 3196   4.537   0.641   3.622
 1085TIP3    H2 3197   4.468   0.775   3.608
 1086TIP3   OH2 3198   6.715   4.078   2.645
 1086TIP3    H1 3199   6.630   4.089   2.602
 1086TIP3    H2 3200   6.711   3.992   2.686
 1087TIP3   OH2 3201   6.413   5.557   3.155
 1087TIP3    H1 3202   6.459   5.565   3.239
 1087TIP3    H2 3203   6.463   5.614   3.096
 1088TIP3   OH2 3204   3.141   4.472   0.034
 1088TIP3    H1 3205   3.225   4.499   0.069
 1088TIP3    H2 3206   3.135   4.378   0.052
 1089TIP3   OH2 3207   0.760   5.004   4.051
 1089TIP3    H1 3208   0.689   5.000   3.987
 1089TIP3    H2 3209   0.717   5.027   4.134
 1090TIP3   OH2 3210   3.046   6.478   5.870
 1090TIP3    H1 3211   2.994   6.533   5.929
 1090TIP3    H2 3212   3.127   6.527   5.856
 1091TIP3   OH2 3213   0.075   6.311   6.470
 1091TIP3    H1 3214   0.054   6.392   6.424
 1091TIP3    H2 3215   0.142   6.269   6.417
 1092TIP3   OH2 3216   2.021   2.012   0.811
 1092TIP3    H1 3217   2.004   2.036   0.902
 1092TIP3    H2 3218   2.057   1.924   0.816
 1093TIP3   OH2 3219   3.599   7.908   2.713
 1093TIP3    H1 3220   3.659   7.861   2.655
 1093TIP3    H2 3221   3.652   7.926   2.791
 1094TIP3   OH2 3222   2.299   7.502   1.818
 1094TIP3    H1 3223   2.355   7.432   1.851
 1094TIP3    H2 3224   2.223   7.502   1.876
 1095TIP3   OH2 3225   1.158   1.032   4.844
 1095TIP3    H1 3226   1.233   0.973   4.852
 1095TIP3    H2 3227   1.182   1.091   4.772
 1096TIP3   OH2 3228   6.477   3.908   6.356
 1096TIP3    H1 3229   6.389   3.911   6.394
 1096TIP3    H2 3230   6.475   3.971   6.284
 1097TIP3   OH2 3231   5.859   5.017   6.460
 1097TIP3    H1 3232   5.919   4.972   6.518
 1097TIP3    H2 3233   5.911   5.039   6.383
 1098TIP3   OH2 3234   6.770   3.447   1.877
 1098TIP3    H1 3235   6.793   3.381   1.812
 1098TIP3    H2 3236   6.694   3.412   1.923
 1099TIP3   OH2 3237   1.519   1.039   3.546
 1099TIP3    H1 3238   1.446   1.002   3.594
 1099TIP3    H2 3239   1.533   0.978   3.473
 1100TIP3   OH2 3240   1.668   3.246   2.765
 1100TIP3    H1 3241   1.656   3.341   2.771
 1100TIP3    H2 3242   1.619   3.211   2.840
 1101TIP3   OH2 3243   5.780   5.229   0.572
 1101TIP3    H1 3244   5.790   5.298   0.638
 1101TIP3    H2 3245   5.699   5.250   0.527
 1102TIP3   OH2 3246   1.321   5.270   4.145
 1102TIP3    H1 3247   1.346   5.362   4.153
 1102TIP3    H2 3248   1.238   5.263   4.191
 1103TIP3   OH2 3249   3.524   1.901   6.111
 1103TIP3    H1 3250   3.593   1.951   6.067
 1103TIP3    H2 3251   3.527   1.930   6.202
 1104TIP3   OH2 3252   3.851   5.116   2.844
 1104TIP3    H1 3253   3.927   5.152   2.798
 1104TIP3    H2 3254   3.787   5.187   2.843
 1105TIP3   OH2 3255   1.314   1.966   4.428
 1105TIP3    H1 3256   1.260   2.027   4.378
 1105TIP3    H2 3257   1.324   2.008   4.514
 1106TIP3   OH2 3258   3.421   3.760   4.135
 1106TIP3    H1 3259   3.487   3.697   4.105
 1106TIP3    H2 3260   3.398   3.809   4.056
 1107TIP3   OH2 3261   4.542   7.273   2.856
 1107TIP3    H1 3262   4.499   7.358   2.862
 1107TIP3    H2 3263   4.604   7.282   2.784
 1108TIP3   OH2 3264   3.836   2.971   5.151
 1108TIP3    H1 3265   3.886   2.967   5.069
 1108TIP3    H2 3266   3.745   2.981   5.123
 1109TIP3   OH2 3267   2.171   2.745   1.555
 1109TIP3    H1 3268   2.084   2.773   1.583
 1109TIP3    H2 3269   2.226   2.759   1.632
 1110TIP3   OH2 3270   3.351   2.177   5.498
 1110TIP3    H1 3271   3.316   2.210   5.580
 1110TIP3    H2 3272   3.301   2.097   5.480
 1111TIP3   OH2 3273   4.056   2.907   3.619
 1111TIP3    H1 3274   4.113   2.832   3.604
 1111TIP3    H2 3275   4.037   2.941   3.531
 1112TIP3   OH2 3276   8.102   7.125   5.614
 1112TIP3    H1 3277   8.075   7.188   5.681
 1112TIP3    H2 3278   8.020   7.085   5.584
 1113TIP3   OH2 3279   3.615   2.063   5.447
 1113TIP3    H1 3280   3.550   2.132   5.441
 1113TIP3    H2 3281   3.599   2.022   5.532
 1114TIP3   OH2 3282   5.098   3.616   4.428
 1114TIP3    H1 3283   5.139   3.548   4.376
 1114TIP3    H2 3284   5.107   3.586   4.519
 1115TIP3   OH2 3285   3.297   3.999   2.099
 1115TIP3    H1 3286   3.242   3.935   2.143
 1115TIP3    H2 3287   3.283   4.080   2.147
 1116TIP3   OH2 3288   4.893   5.528   2.653
 1116TIP3    H1 3289   4.850   5.465   2.710
 1116TIP3    H2 3290   4.986   5.506   2.659
 1117TIP3   OH2 3291   2.249   6.289   5.140
 1117TIP3    H1 3292   2.157   6.316   5.132
 1117TIP3    H2 3293   2.292   6.363   5.183
 1118TIP3   OH2 3294   4.763   2.728   1.857
 1118TIP3    H1 3295   4.726   2.645   1.888
 1118TIP3    H2 3296   4.808   2.764   1.934
 1119TIP3   OH2 3297   2.659   3.516   4.328
 1119TIP3    H1 3298   2.711   3.436   4.322
 1119TIP3    H2 3299   2.638   3.524   4.421
 1120TIP3   OH2 3300   3.192   7.464   6.549
 1120TIP3    H1 3301   3.189   7.552   6.584
 1120TIP3    H2 3302   3.252   7.470   6.474
 1121TIP3   OH2 3303   2.713   2.997   5.885
 1121TIP3    H1 3304   2.742   2.944   5.959
 1121TIP3    H2 3305   2.691   2.934   5.817
 1122TIP3   OH2 3306   4.657   1.023   1.745
 1122TIP3    H1 3307   4.678   1.081   1.672
 1122TIP3    H2 3308   4.663   0.935   1.709
 1123TIP3   OH2 3309   2.979   7.704   2.885
 1123TIP3    H1 3310   2.932   7.686   2.967
 1123TIP3    H2 3311   3.012   7.793   2.896
 1124TIP3   OH2 3312   5.994   3.081   0.444
 1124TIP3    H1 3313   6.014   3.048   0.356
 1124TIP3    H2 3314   6.050   3.158   0.454
 1125TIP3   OH2 3315   3.408   0.701   2.746
 1125TIP3    H1 3316   3.314   0.697   2.727
 1125TIP3    H2 3317   3.450   0.685   2.662
 1126TIP3   OH2 3318   2.925   6.177   5.612
 1126TIP3    H1 3319   2.945   6.102   5.556
 1126TIP3    H2 3320   2.836   6.203   5.587
 1127TIP3   OH2 3321   6.041   4.722   4.905
 1127TIP3    H1 3322   5.958   4.765   4.883
 1127TIP3    H2 3323   6.056   4.745   4.997
 1128TIP3   OH2 3324   6.667   7.627   6.806
 1128TIP3    H1 3325   6.579   7.591   6.793
 1128TIP3    H2 3326   6.708   7.621   6.720
 1129TIP3   OH2 3327   1.341   0.092   4.602
 1129TIP3    H1 3328   1.387   0.036   4.664
 1129TIP3    H2 3329   1.344   0.179   4.642
 1130TIP3   OH2 3330   6.497   5.350   0.380
 1130TIP3    H1 3331   6.547   5.319   0.456
 1130TIP3    H2 3332   6.562   5.359   0.311
 1131TIP3   OH2 3333  -0.007   1.898   6.622
 1131TIP3    H1 3334   0.073   1.921   6.574
 1131TIP3    H2 3335   0.016   1.912   6.714
 1132TIP3   OH2 3336   1.258   1.516   1.816
 1132TIP3    H1 3337   1.263   1.507   1.911
 1132TIP3    H2 3338   1.256   1.426   1.784
 1133TIP3   OH2 3339   3.011   1.649   1.560
 1133TIP3    H1 3340   2.966   1.571   1.526
 1133TIP3    H2 3341   3.075   1.671   1.493
 1134TIP3   OH2 3342   6.102   2.762   4.076
 1134TIP3    H1 3343   6.131   2.781   4.165
 1134TIP3    H2 3344   6.182   2.745   4.027
 1135TIP3   OH2 3345   7.738   4.464   1.243
 1135TIP3    H1 3346   7.814   4.484   1.298
 1135TIP3    H2 3347   7.720   4.545   1.197
 1136TIP3   OH2 3348   0.751   5.421   2.425
 1136TIP3    H1 3349   0.662   5.388   2.411
 1136TIP3    H2 3350   0.740   5.515   2.437
 1137TIP3   OH2 3351   6.289   7.823   0.097
 1137TIP3    H1 3352   6.255   7.913   0.104
 1137TIP3    H2 3353   6.212   7.768   0.109
 1138TIP3   OH2 3354   3.388   4.050   4.646
 1138TIP3    H1 3355   3.321   4.070   4.581
 1138TIP3    H2 3356   3.468   4.091   4.611
 1139TIP3   OH2 3357   7.215   2.993   6.639
 1139TIP3    H1 3358   7.268   2.933   6.587
 1139TIP3    H2 3359   7.238   3.080   6.607
 1140TIP3   OH2 3360   5.840   2.647   4.141
 1140TIP3    H1 3361   5.921   2.659   4.092
 1140TIP3    H2 3362   5.771   2.668   4.079
 1141TIP3   OH2 3363   1.592   1.276   3.716
 1141TIP3    H1 3364   1.514   1.291   3.770
 1141TIP3    H2 3365   1.577   1.190   3.676
 1142TIP3   OH2 3366   4.299   6.794   0.390
 1142TIP3    H1 3367   4.254   6.762   0.468
 1142TIP3    H2 3368   4.244   6.865   0.358
 1143TIP3   OH2 3369   0.521   2.947   4.053
 1143TIP3    H1 3370   0.596   2.911   4.006
 1143TIP3    H2 3371   0.448   2.941   3.991
 1144TIP3   OH2 3372   4.229   3.790   0.828
 1144TIP3    H1 3373   4.146   3.838   0.828
 1144TIP3    H2 3374   4.293   3.854   0.859
 1145TIP3   OH2 3375   1.434   6.796   5.166
 1145TIP3    H1 3376   1.381   6.823   5.091
 1145TIP3    H2 3377   1.524   6.792   5.132
 1146TIP3   OH2 3378   7.407   5.192   1.204
 1146TIP3    H1 3379   7.387   5.211   1.112
 1146TIP3    H2 3380   7.322   5.173   1.243
 1147TIP3   OH2 3381   2.053   4.631   1.862
 1147TIP3    H1 3382   2.038   4.715   1.818
 1147TIP3    H2 3383   1.965   4.600   1.883
 1148TIP3   OH2 3384   0.884   2.688   5.792
 1148TIP3    H1 3385   0.921   2.770   5.825
 1148TIP3    H2 3386   0.813   2.715   5.734
 1149TIP3   OH2 3387   2.615   4.587   5.144
 1149TIP3    H1 3388   2.531   4.627   5.120
 1149TIP3    H2 3389   2.675   4.661   5.152
 1150TIP3   OH2 3390   4.703   4.083   3.625
 1150TIP3    H1 3391   4.728   4.160   3.674
 1150TIP3    H2 3392   4.766   4.077   3.553
 1151TIP3   OH2 3393   0.295   2.199   2.979
 1151TIP3    H1 3394   0.244   2.139   3.033
 1151TIP3    H2 3395   0.294   2.282   3.028
 1152TIP3   OH2 3396   1.477   5.042   3.846
 1152TIP3    H1 3397   1.563   5.078   3.866
 1152TIP3    H2 3398   1.417   5.116   3.856
 1153TIP3   OH2 3399   5.016   5.417   4.007
 1153TIP3    H1 3400   5.101   5.439   4.045
 1153TIP3    H2 3401   4.953   5.454   4.068
 1154TIP3   OH2 3402   1.361   7.516   4.647
 1154TIP3    H1 3403   1.417   7.593   4.656
 1154TIP3    H2 3404   1.289   7.546   4.591
 1155TIP3   OH2 3405   6.047   6.236   6.514
 1155TIP3    H1 3406   6.098   6.204   6.440
 1155TIP3    H2 3407   6.062   6.170   6.583
 1156TIP3   OH2 3408   5.730   1.470   5.795
 1156TIP3    H1 3409   5.812   1.519   5.807
 1156TIP3    H2 3410   5.750   1.383   5.828
 1157TIP3   OH2 3411   3.970   4.726   1.943
 1157TIP3    H1 3412   3.910   4.671   1.893
 1157TIP3    H2 3413   4.047   4.672   1.957
 1158TIP3   OH2 3414   5.851   3.454   0.282
 1158TIP3    H1 3415   5.805   3.508   0.218
 1158TIP3    H2 3416   5.809   3.474   0.366
 1159TIP3   OH2 3417   4.643   3.528   1.944
 1159TIP3    H1 3418   4.721   3.577   1.919
 1159TIP3    H2 3419   4.570   3.589   1.931
 1160TIP3   OH2 3420   7.521   3.957   6.092
 1160TIP3    H1 3421   7.531   3.971   6.187
 1160TIP3    H2 3422   7.460   4.026   6.064
 1161TIP3   OH2 3423   7.533   2.538   2.032
 1161TIP3    H1 3424   7.592   2.476   1.989
 1161TIP3    H2 3425   7.564   2.541   2.122
 1162TIP3   OH2 3426   6.050   3.926   3.356
 1162TIP3    H1 3427   6.044   3.844   3.306
 1162TIP3    H2 3428   6.123   3.972   3.315
 1163TIP3   OH2 3429   5.006   1.437   3.214
 1163TIP3    H1 3430   4.938   1.373   3.232
 1163TIP3    H2 3431   4.964   1.501   3.156
 1164TIP3   OH2 3432   6.098   4.425   6.258
 1164TIP3    H1 3433   6.139   4.450   6.175
 1164TIP3    H2 3434   6.010   4.396   6.234
 1165TIP3   OH2 3435   4.228   4.173   2.722
 1165TIP3    H1 3436   4.160   4.212   2.667
 1165TIP3    H2 3437   4.274   4.247   2.760
 1166TIP3   OH2 3438   1.756   4.930   3.201
 1166TIP3    H1 3439   1.680   4.969   3.159
 1166TIP3    H2 3440   1.723   4.850   3.241
 1167TIP3   OH2 3441   6.051   4.235   1.550
 1167TIP3    H1 3442   6.069   4.328   1.565
 1167TIP3    H2 3443   6.134   4.199   1.519
 1168TIP3   OH2 3444   3.944   4.123   2.878
 1168TIP3    H1 3445   4.001   4.199   2.871
 1168TIP3    H2 3446   3.898   4.134   2.961
 1169TIP3   OH2 3447   0.933   7.443   6.081
 1169TIP3    H1 3448   0.907   7.519   6.029
 1169TIP3    H2 3449   0.901   7.462   6.169
 1170TIP3   OH2 3450   8.131   1.675   2.582
 1170TIP3    H1 3451   8.154   1.696   2.491
 1170TIP3    H2 3452   8.046   1.631   2.575
 1171TIP3   OH2 3453   7.159   5.163   3.252
 1171TIP3    H1 3454   7.137   5.076   3.287
 1171TIP3    H2 3455   7.085   5.218   3.277
 1172TIP3   OH2 3456   1.175   2.744   3.604
 1172TIP3    H1 3457   1.246   2.700   3.558
 1172TIP3    H2 3458   1.101   2.739   3.544
 1173TIP3   OH2 3459   1.088   2.581   5.040
 1173TIP3    H1 3460   1.033   2.554   4.966
 1173TIP3    H2 3461   1.142   2.504   5.059
 1174TIP3   OH2 3462   2.902   7.795   0.083
 1174TIP3    H1 3463   2.989   7.777   0.048
 1174TIP3    H2 3464   2.856   7.839   0.011
 1175TIP3   OH2 3465   5.421   2.091   4.391
 1175TIP3    H1 3466   5.495   2.069   4.334
 1175TIP3    H2 3467   5.403   2.010   4.440
 1176TIP3   OH2 3468   7.206   1.733   6.129
 1176TIP3    H1 3469   7.296   1.748   6.100
 1176TIP3    H2 3470   7.165   1.683   6.059
 1177TIP3   OH2 3471  -0.010   4.175   3.212
 1177TIP3    H1 3472   0.069   4.147   3.165
 1177TIP3    H2 3473  -0.052   4.093   3.237
 1178TIP3   OH2 3474   0.382   1.016   3.386
 1178TIP3    H1 3475   0.388   1.109   3.410
 1178TIP3    H2 3476   0.315   0.981   3.445
 1179TIP3   OH2 3477   5.803   2.823   6.042
 1179TIP3    H1 3478   5.723   2.784   6.077
 1179TIP3    H2 3479   5.814   2.905   6.090
 1180TIP3   OH2 3480   0.144   2.821   3.695
 1180TIP3    H1 3481   0.126   2.823   3.789
 1180TIP3    H2 3482   0.155   2.912   3.670
 1181TIP3   OH2 3483   4.012   5.004   6.653
 1181TIP3    H1 3484   3.917   5.018   6.644
 1181TIP3    H2 3485   4.035   5.051   6.733
 1182TIP3   OH2 3486   7.772   6.176   1.209
 1182TIP3    H1 3487   7.823   6.164   1.289
 1182TIP3    H2 3488   7.681   6.160   1.236
 1183TIP3   OH2 3489   7.265   5.960   2.595
 1183TIP3    H1 3490   7.297   6.035   2.645
 1183TIP3    H2 3491   7.314   5.885   2.629
 1184TIP3   OH2 3492   5.751   6.928   6.089
 1184TIP3    H1 3493   5.742   6.916   5.995
 1184TIP3    H2 3494   5.665   6.903   6.124
 1185TIP3   OH2 3495   6.080   4.784   5.159
 1185TIP3    H1 3496   6.012   4.848   5.180
 1185TIP3    H2 3497   6.159   4.817   5.203
 1186TIP3   OH2 3498   1.949   7.791   4.814
 1186TIP3    H1 3499   1.972   7.866   4.868
 1186TIP3    H2 3500   1.902   7.732   4.873
 1187TIP3   OH2 3501   4.005   0.601   3.585
 1187TIP3    H1 3502   3.940   0.650   3.535
 1187TIP3    H2 3503   3.953   0.542   3.639
 1188TIP3   OH2 3504   4.261   4.099   4.621
 1188TIP3    H1 3505   4.344   4.057   4.602
 1188TIP3    H2 3506   4.252   4.093   4.716
 1189TIP3   OH2 3507   3.305   3.515   6.363
 1189TIP3    H1 3508   3.380   3.455   6.360
 1189TIP3    H2 3509   3.339   3.594   6.405
 1190TIP3   OH2 3510   1.197   2.153   0.293
 1190TIP3    H1 3511   1.266   2.180   0.232
 1190TIP3    H2 3512   1.131   2.222   0.286
 1191TIP3   OH2 3513   1.793   5.709   2.032
 1191TIP3    H1 3514   1.882   5.713   1.997
 1191TIP3    H2 3515   1.794   5.633   2.090
 1192TIP3   OH2 3516   2.063   3.813   1.450
 1192TIP3    H1 3517   2.048   3.719   1.451
 1192TIP3    H2 3518   2.082   3.835   1.542
 1193TIP3   OH2 3519   4.741   2.394   6.139
 1193TIP3    H1 3520   4.696   2.367   6.219
 1193TIP3    H2 3521   4.681   2.371   6.068
 1194TIP3   OH2 3522   4.713   0.262   6.250
 1194TIP3    H1 3523   4.778   0.202   6.214
 1194TIP3    H2 3524   4.632   0.211   6.254
 1195TIP3   OH2 3525   4.288   3.140   0.658
 1195TIP3    H1 3526   4.382   3.144   0.673
 1195TIP3    H2 3527   4.250   3.198   0.725
 1196TIP3   OH2 3528   2.670   5.011   1.975
 1196TIP3    H1 3529   2.616   5.078   2.018
 1196TIP3    H2 3530   2.702   4.956   2.047
 1197TIP3   OH2 3531   6.880   5.424   6.027
 1197TIP3    H1 3532   6.870   5.334   5.996
 1197TIP3    H2 3533   6.938   5.416   6.104
 1198TIP3   OH2 3534   3.164   3.817   4.490
 1198TIP3    H1 3535   3.245   3.773   4.464
 1198TIP3    H2 3536   3.130   3.764   4.562
 1199TIP3   OH2 3537   8.008   1.687   0.013
 1199TIP3    H1 3538   7.921   1.710   0.045
 1199TIP3    H2 3539   8.055   1.771   0.010
 1200TIP3   OH2 3540   5.164   4.305   1.695
 1200TIP3    H1 3541   5.215   4.367   1.746
 1200TIP3    H2 3542   5.221   4.278   1.624
 1201TIP3   OH2 3543   5.629   5.762   1.782
 1201TIP3    H1 3544   5.550   5.736   1.830
 1201TIP3    H2 3545   5.635   5.856   1.794
 1202TIP3   OH2 3546   4.315   5.626   6.868
 1202TIP3    H1 3547   4.381   5.622   6.799
 1202TIP3    H2 3548   4.267   5.543   6.860
 1203TIP3   OH2 3549   5.810   5.070   5.994
 1203TIP3    H1 3550   5.881   5.135   5.996
 1203TIP3    H2 3551   5.850   4.991   5.958
 1204TIP3   OH2 3552   4.082   5.219   3.270
 1204TIP3    H1 3553   4.143   5.194   3.200
 1204TIP3    H2 3554   4.132   5.279   3.324
 1205TIP3   OH2 3555   4.704   3.756   5.853
 1205TIP3    H1 3556   4.720   3.751   5.759
 1205TIP3    H2 3557   4.670   3.670   5.877
 1206TIP3   OH2 3558   8.286   7.102   5.883
 1206TIP3    H1 3559   8.280   7.050   5.803
 1206TIP3    H2 3560   8.197   7.132   5.899
 1207TIP3   OH2 3561   6.661   6.087   5.872
 1207TIP3    H1 3562   6.699   6.027   5.808
 1207TIP3    H2 3563   6.589   6.037   5.911
 1208TIP3   OH2 3564   5.036   2.297   1.054
 1208TIP3    H1 3565   5.058   2.207   1.029
 1208TIP3    H2 3566   4.943   2.305   1.035
 1209TIP3   OH2 3567   6.072   7.836   6.529
 1209TIP3    H1 3568   5.978   7.822   6.529
 1209TIP3    H2 3569   6.100   7.813   6.441
 1210TIP3   OH2 3570   2.238   7.868   4.604
 1210TIP3    H1 3571   2.227   7.810   4.679
 1210TIP3    H2 3572   2.316   7.919   4.624
 1211TIP3   OH2 3573   0.107   3.759   4.519
 1211TIP3    H1 3574   0.060   3.820   4.463
 1211TIP3    H2 3575   0.145   3.814   4.588
 1212TIP3   OH2 3576   7.891   2.210   4.464
 1212TIP3    H1 3577   7.830   2.279   4.438
 1212TIP3    H2 3578   7.941   2.191   4.384
 1213TIP3   OH2 3579   5.187   6.704   4.584
 1213TIP3    H1 3580   5.193   6.732   4.493
 1213TIP3    H2 3581   5.270   6.732   4.623
 1214TIP3   OH2 3582   8.252   7.639   5.194
 1214TIP3    H1 3583   8.171   7.664   5.150
 1214TIP3    H2 3584   8.312   7.712   5.178
 1215TIP3   OH2 3585   6.134   7.631   4.510
 1215TIP3    H1 3586   6.108   7.585   4.590
 1215TIP3    H2 3587   6.230   7.625   4.509
 1216TIP3   OH2 3588   2.960   7.087   3.817
 1216TIP3    H1 3589   2.931   7.114   3.730
 1216TIP3    H2 3590   3.012   7.008   3.801
 1217TIP3   OH2 3591   0.267   7.686   2.503
 1217TIP3    H1 3592   0.185   7.735   2.508
 1217TIP3    H2 3593   0.332   7.743   2.544
 1218TIP3   OH2 3594   0.385   5.703   5.501
 1218TIP3    H1 3595   0.326   5.774   5.477
 1218TIP3    H2 3596   0.438   5.738   5.573
 1219TIP3   OH2 3597   8.297   7.879   5.517
 1219TIP3    H1 3598   8.245   7.799   5.525
 1219TIP3    H2 3599   8.382   7.850   5.484
 1220TIP3   OH2 3600   5.362   2.986   2.437
 1220TIP3    H1 3601   5.418   3.016   2.365
 1220TIP3    H2 3602   5.410   3.010   2.516
 1221TIP3   OH2 3603   8.155   2.450   0.284
 1221TIP3    H1 3604   8.156   2.422   0.375
 1221TIP3    H2 3605   8.117   2.376   0.237
 1222TIP3   OH2 3606   2.855   5.906   1.831
 1222TIP3    H1 3607   2.859   5.838   1.898
 1222TIP3    H2 3608   2.942   5.946   1.831
 1223TIP3   OH2 3609   4.529   6.688   6.042
 1223TIP3    H1 3610   4.585   6.760   6.072
 1223TIP3    H2 3611   4.565   6.664   5.957
 1224TIP3   OH2 3612   1.709   4.334   5.080
 1224TIP3    H1 3613   1.713   4.369   5.168
 1224TIP3    H2 3614   1.616   4.314   5.066
 1225TIP3   OH2 3615   1.450   3.259   1.315
 1225TIP3    H1 3616   1.420   3.220   1.233
 1225TIP3    H2 3617   1.541   3.231   1.324
 1226TIP3   OH2 3618   3.099   2.673   1.150
 1226TIP3    H1 3619   3.079   2.596   1.096
 1226TIP3    H2 3620   3.170   2.717   1.103
 1227TIP3   OH2 3621   4.663   2.320   3.094
 1227TIP3    H1 3622   4.723   2.271   3.037
 1227TIP3    H2 3623   4.598   2.356   3.034
 1228TIP3   OH2 3624   3.831   5.860   3.442
 1228TIP3    H1 3625   3.829   5.849   3.347
 1228TIP3    H2 3626   3.763   5.801   3.475
 1229TIP3   OH2 3627   6.956   6.289   5.451
 1229TIP3    H1 3628   6.908   6.211   5.478
 1229TIP3    H2 3629   7.042   6.256   5.424
 1230TIP3   OH2 3630   3.457   1.926   4.874
 1230TIP3    H1 3631   3.430   1.932   4.966
 1230TIP3    H2 3632   3.459   2.016   4.844
 1231TIP3   OH2 3633   8.267   3.403   5.407
 1231TIP3    H1 3634   8.198   3.469   5.417
 1231TIP3    H2 3635   8.220   3.325   5.378
 1232TIP3   OH2 3636   0.512   4.139   5.859
 1232TIP3    H1 3637   0.597   4.130   5.816
 1232TIP3    H2 3638   0.531   4.181   5.943
 1233TIP3   OH2 3639   3.146   3.933   6.605
 1233TIP3    H1 3640   3.145   3.862   6.541
 1233TIP3    H2 3641   3.067   3.919   6.658
 1234TIP3   OH2 3642   1.611   0.439   0.157
 1234TIP3    H1 3643   1.565   0.381   0.217
 1234TIP3    H2 3644   1.681   0.384   0.121
 1235TIP3   OH2 3645   2.260   5.036   2.361
 1235TIP3    H1 3646   2.270   4.975   2.288
 1235TIP3    H2 3647   2.181   5.008   2.406
 1236TIP3   OH2 3648   1.086   7.135   0.542
 1236TIP3    H1 3649   1.106   7.176   0.458
 1236TIP3    H2 3650   1.111   7.044   0.531
 1237TIP3   OH2 3651   5.236   7.266   3.621
 1237TIP3    H1 3652   5.145   7.297   3.613
 1237TIP3    H2 3653   5.277   7.292   3.539
 1238TIP3   OH2 3654   2.983   7.269   6.566
 1238TIP3    H1 3655   2.933   7.300   6.491
 1238TIP3    H2 3656   3.054   7.333   6.577
 1239TIP3   OH2 3657   3.389   7.458   0.296
 1239TIP3    H1 3658   3.452   7.398   0.334
 1239TIP3    H2 3659   3.366   7.420   0.211
 1240TIP3   OH2 3660   4.855   4.763   6.366
 1240TIP3    H1 3661   4.926   4.717   6.321
 1240TIP3    H2 3662   4.880   4.855   6.362
 1241TIP3   OH2 3663   5.722   3.824   2.090
 1241TIP3    H1 3664   5.809   3.785   2.097
 1241TIP3    H2 3665   5.700   3.815   1.997
 1242TIP3   OH2 3666   7.933   7.319   1.306
 1242TIP3    H1 3667   7.930   7.411   1.334
 1242TIP3    H2 3668   7.861   7.312   1.243
 1243TIP3   OH2 3669   0.258   1.919   1.909
 1243TIP3    H1 3670   0.254   1.998   1.855
 1243TIP3    H2 3671   0.271   1.847   1.848
 1244TIP3   OH2 3672   0.641   1.939   2.892
 1244TIP3    H1 3673   0.731   1.963   2.872
 1244TIP3    H2 3674   0.589   2.010   2.854
 1245TIP3   OH2 3675   5.538   4.875   3.834
 1245TIP3    H1 3676   5.600   4.929   3.785
 1245TIP3    H2 3677   5.539   4.912   3.922
 1246TIP3   OH2 3678   0.055   2.851   6.170
 1246TIP3    H1 3679   0.002   2.771   6.164
 1246TIP3    H2 3680   0.012   2.903   6.238
 1247TIP3   OH2 3681   2.639   0.735   6.845
 1247TIP3    H1 3682   2.689   0.775   6.916
 1247TIP3    H2 3683   2.612   0.809   6.790
 1248TIP3   OH2 3684   5.565   0.719   5.129
 1248TIP3    H1 3685   5.516   0.723   5.046
 1248TIP3    H2 3686   5.650   0.683   5.105
 1249TIP3   OH2 3687   5.787   7.128   5.174
 1249TIP3    H1 3688   5.693   7.121   5.185
 1249TIP3    H2 3689   5.823   7.054   5.222
 1250TIP3   OH2 3690   1.620   3.869   3.511
 1250TIP3    H1 3691   1.700   3.816   3.507
 1250TIP3    H2 3692   1.560   3.818   3.565
 1251TIP3   OH2 3693   6.008   4.098   3.112
 1251TIP3    H1 3694   6.065   4.038   3.160
 1251TIP3    H2 3695   5.961   4.146   3.181
 1252TIP3   OH2 3696   8.325   5.851   2.548
 1252TIP3    H1 3697   8.352   5.783   2.610
 1252TIP3    H2 3698   8.294   5.923   2.603
 1253TIP3   OH2 3699   7.474   0.681   5.762
 1253TIP3    H1 3700   7.454   0.692   5.855
 1253TIP3    H2 3701   7.396   0.713   5.717
 1254TIP3   OH2 3702   7.960   3.913   4.178
 1254TIP3    H1 3703   7.873   3.899   4.140
 1254TIP3    H2 3704   7.995   3.825   4.191
 1255TIP3   OH2 3705   4.862   5.502   0.946
 1255TIP3    H1 3706   4.773   5.503   0.910
 1255TIP3    H2 3707   4.874   5.589   0.983
 1256TIP3   OH2 3708   2.608   7.087   6.534
 1256TIP3    H1 3709   2.552   7.034   6.591
 1256TIP3    H2 3710   2.548   7.141   6.483
 1257TIP3   OH2 3711   1.034   4.369   5.767
 1257TIP3    H1 3712   1.093   4.296   5.788
 1257TIP3    H2 3713   1.041   4.379   5.672
 1258TIP3   OH2 3714   3.926   6.286   4.609
 1258TIP3    H1 3715   3.913   6.340   4.687
 1258TIP3    H2 3716   3.955   6.348   4.541
 1259TIP3   OH2 3717   1.785   6.279   1.103
 1259TIP3    H1 3718   1.739   6.338   1.163
 1259TIP3    H2 3719   1.731   6.277   1.024
 1260TIP3   OH2 3720   0.760   1.315   1.651
 1260TIP3    H1 3721   0.816   1.383   1.689
 1260TIP3    H2 3722   0.820   1.243   1.631
 1261TIP3   OH2 3723   7.418   2.892   3.815
 1261TIP3    H1 3724   7.343   2.887   3.874
 1261TIP3    H2 3725   7.404   2.822   3.752
 1262TIP3   OH2 3726   0.363   3.406   4.330
 1262TIP3    H1 3727   0.421   3.330   4.334
 1262TIP3    H2 3728   0.370   3.446   4.417
 1263TIP3   OH2 3729   0.222   2.489   0.417
 1263TIP3    H1 3730   0.188   2.563   0.366
 1263TIP3    H2 3731   0.212   2.414   0.358
 1264TIP3   OH2 3732   1.588   2.724   4.579
 1264TIP3    H1 3733   1.584   2.799   4.637
 1264TIP3    H2 3734   1.680   2.720   4.551
 1265TIP3   OH2 3735   3.641   6.428   3.712
 1265TIP3    H1 3736   3.584   6.504   3.714
 1265TIP3    H2 3737   3.588   6.360   3.670
 1266TIP3   OH2 3738   1.554   5.797   4.669
 1266TIP3    H1 3739   1.560   5.749   4.751
 1266TIP3    H2 3740   1.472   5.767   4.629
 1267TIP3   OH2 3741   5.947   4.877   2.088
 1267TIP3    H1 3742   6.033   4.908   2.061
 1267TIP3    H2 3743   5.965   4.812   2.157
 1268TIP3   OH2 3744   3.176   2.723   0.210
 1268TIP3    H1 3745   3.190   2.788   0.278
 1268TIP3    H2 3746   3.264   2.699   0.180
 1269TIP3   OH2 3747   8.003   2.528   6.082
 1269TIP3    H1 3748   7.912   2.511   6.107
 1269TIP3    H2 3749   8.025   2.458   6.021
 1270TIP3   OH2 3750   5.597   1.421   2.771
 1270TIP3    H1 3751   5.596   1.354   2.702
 1270TIP3    H2 3752   5.622   1.373   2.850
 1271TIP3   OH2 3753   6.880   7.896   4.361
 1271TIP3    H1 3754   6.969   7.865   4.341
 1271TIP3    H2 3755   6.885   7.927   4.451
 1272TIP3   OH2 3756   4.030   0.865   4.840
 1272TIP3    H1 3757   4.001   0.827   4.923
 1272TIP3    H2 3758   4.089   0.936   4.865
 1273TIP3   OH2 3759   8.094   7.679   4.744
 1273TIP3    H1 3760   8.127   7.598   4.704
 1273TIP3    H2 3761   8.090   7.741   4.671
 1274TIP3   OH2 3762   3.824   4.646   5.250
 1274TIP3    H1 3763   3.814   4.704   5.174
 1274TIP3    H2 3764   3.896   4.587   5.226
 1275TIP3   OH2 3765   6.945   1.703   5.410
 1275TIP3    H1 3766   6.859   1.743   5.417
 1275TIP3    H2 3767   6.999   1.769   5.367
 1276TIP3   OH2 3768   1.140   1.338   6.692
 1276TIP3    H1 3769   1.120   1.384   6.774
 1276TIP3    H2 3770   1.055   1.328   6.649
 1277TIP3   OH2 3771   0.428   6.905   5.692
 1277TIP3    H1 3772   0.491   6.832   5.693
 1277TIP3    H2 3773   0.388   6.904   5.779
 1278TIP3   OH2 3774   3.626   6.068   3.129
 1278TIP3    H1 3775   3.684   6.143   3.122
 1278TIP3    H2 3776   3.549   6.092   3.076
 1279TIP3   OH2 3777   0.777   4.027   6.593
 1279TIP3    H1 3778   0.870   4.049   6.604
 1279TIP3    H2 3779   0.767   3.945   6.643
 1280TIP3   OH2 3780   7.660   2.524   2.621
 1280TIP3    H1 3781   7.689   2.436   2.596
 1280TIP3    H2 3782   7.587   2.543   2.562
 1281TIP3   OH2 3783   0.203   5.089   6.393
 1281TIP3    H1 3784   0.273   5.027   6.416
 1281TIP3    H2 3785   0.200   5.150   6.467
 1282TIP3   OH2 3786   1.196   7.522   4.864
 1282TIP3    H1 3787   1.217   7.616   4.865
 1282TIP3    H2 3788   1.266   7.483   4.812
 1283TIP3   OH2 3789   2.920   0.807   3.157
 1283TIP3    H1 3790   2.898   0.787   3.066
 1283TIP3    H2 3791   2.870   0.744   3.209
 1284TIP3   OH2 3792   1.114   3.649   0.587
 1284TIP3    H1 3793   1.181   3.616   0.646
 1284TIP3    H2 3794   1.122   3.745   0.593
 1285TIP3   OH2 3795   6.735   3.683   0.161
 1285TIP3    H1 3796   6.666   3.738   0.198
 1285TIP3    H2 3797   6.742   3.711   0.070
 1286TIP3   OH2 3798   1.775   2.400   2.979
 1286TIP3    H1 3799   1.854   2.411   3.032
 1286TIP3    H2 3800   1.802   2.420   2.890
 1287TIP3   OH2 3801   3.141   7.052   6.577
 1287TIP3    H1 3802   3.093   7.134   6.584
 1287TIP3    H2 3803   3.077   6.990   6.543
 1288TIP3   OH2 3804   2.807   5.285   3.081
 1288TIP3    H1 3805   2.768   5.366   3.115
 1288TIP3    H2 3806   2.734   5.223   3.078
 1289TIP3   OH2 3807   7.870   4.862   2.027
 1289TIP3    H1 3808   7.862   4.811   1.946
 1289TIP3    H2 3809   7.780   4.880   2.053
 1290TIP3   OH2 3810   6.101   4.114   2.583
 1290TIP3    H1 3811   6.152   4.091   2.660
 1290TIP3    H2 3812   6.145   4.190   2.546
 1291TIP3   OH2 3813   5.081   1.323   0.158
 1291TIP3    H1 3814   5.167   1.364   0.168
 1291TIP3    H2 3815   5.097   1.248   0.100
 1292TIP3   OH2 3816   8.360   5.501   5.771
 1292TIP3    H1 3817   8.268   5.506   5.800
 1292TIP3    H2 3818   8.370   5.411   5.740
 1293TIP3   OH2 3819   3.981   1.922   4.252
 1293TIP3    H1 3820   4.064   1.966   4.274
 1293TIP3    H2 3821   3.969   1.858   4.322
 1294TIP3   OH2 3822   7.073   4.579   2.633
 1294TIP3    H1 3823   6.992   4.539   2.603
 1294TIP3    H2 3824   7.046   4.665   2.667
 1295TIP3   OH2 3825   3.110   2.459   4.366
 1295TIP3    H1 3826   3.203   2.461   4.391
 1295TIP3    H2 3827   3.098   2.374   4.324
 1296TIP3   OH2 3828   0.782   5.358   6.811
 1296TIP3    H1 3829   0.719   5.412   6.857
 1296TIP3    H2 3830   0.814   5.413   6.739
 1297TIP3   OH2 3831   3.770   1.909   1.247
 1297TIP3    H1 3832   3.718   1.838   1.209
 1297TIP3    H2 3833   3.849   1.867   1.278
 1298TIP3   OH2 3834   6.081   5.129   5.358
 1298TIP3    H1 3835   6.137   5.190   5.405
 1298TIP3    H2 3836   6.103   5.043   5.394
 1299TIP3   OH2 3837   4.310   5.292   6.531
 1299TIP3    H1 3838   4.244   5.251   6.475
 1299TIP3    H2 3839   4.259   5.347   6.591
 1300TIP3   OH2 3840   8.150   0.493   2.869
 1300TIP3    H1 3841   8.187   0.536   2.946
 1300TIP3    H2 3842   8.140   0.564   2.805
 1301TIP3   OH2 3843   1.096   3.073   2.015
 1301TIP3    H1 3844   1.045   3.015   1.958
 1301TIP3    H2 3845   1.131   3.140   1.956
 1302TIP3   OH2 3846   4.863   3.837   3.615
 1302TIP3    H1 3847   4.880   3.927   3.587
 1302TIP3    H2 3848   4.803   3.846   3.689
 1303TIP3   OH2 3849   1.175   5.377   5.355
 1303TIP3    H1 3850   1.239   5.380   5.427
 1303TIP3    H2 3851   1.119   5.303   5.377
 1304TIP3   OH2 3852   1.071   0.309   3.979
 1304TIP3    H1 3853   1.065   0.253   4.057
 1304TIP3    H2 3854   1.152   0.281   3.936
 1305TIP3   OH2 3855   6.704   3.130   4.763
 1305TIP3    H1 3856   6.761   3.082   4.824
 1305TIP3    H2 3857   6.703   3.076   4.684
 1306TIP3   OH2 3858   2.099   3.525   6.776
 1306TIP3    H1 3859   2.096   3.514   6.681
 1306TIP3    H2 3860   2.165   3.462   6.805
 1307TIP3   OH2 3861   3.397   6.425   4.389
 1307TIP3    H1 3862   3.444   6.504   4.412
 1307TIP3    H2 3863   3.335   6.453   4.321
 1308TIP3   OH2 3864   7.062   4.121   4.072
 1308TIP3    H1 3865   7.009   4.191   4.108
 1308TIP3    H2 3866   7.006   4.079   4.007
 1309TIP3   OH2 3867   0.783   7.556   2.480
 1309TIP3    H1 3868   0.856   7.555   2.418
 1309TIP3    H2 3869   0.822   7.577   2.564
 1310TIP3   OH2 3870   3.218   0.462   3.909
 1310TIP3    H1 3871   3.188   0.507   3.988
 1310TIP3    H2 3872   3.209   0.369   3.929
 1311TIP3   OH2 3873   8.214   3.916   5.331
 1311TIP3    H1 3874   8.241   3.892   5.420
 1311TIP3    H2 3875   8.191   4.008   5.338
 1312TIP3   OH2 3876   6.643   6.723   1.238
 1312TIP3    H1 3877   6.731   6.685   1.240
 1312TIP3    H2 3878   6.642   6.777   1.159
 1313TIP3   OH2 3879   0.657   1.835   5.616
 1313TIP3    H1 3880   0.583   1.893   5.596
 1313TIP3    H2 3881   0.623   1.747   5.600
 1314TIP3   OH2 3882   7.293   2.527   0.561
 1314TIP3    H1 3883   7.208   2.500   0.595
 1314TIP3    H2 3884   7.356   2.470   0.607
 1315TIP3   OH2 3885   6.388   2.554   1.756
 1315TIP3    H1 3886   6.322   2.488   1.736
 1315TIP3    H2 3887   6.368   2.626   1.697
 1316TIP3   OH2 3888   5.391   7.583   4.415
 1316TIP3    H1 3889   5.352   7.526   4.348
 1316TIP3    H2 3890   5.338   7.663   4.412
 1317TIP3   OH2 3891   0.993   5.874   4.283
 1317TIP3    H1 3892   1.066   5.824   4.247
 1317TIP3    H2 3893   0.940   5.809   4.329
 1318TIP3   OH2 3894   5.476   0.608   0.898
 1318TIP3    H1 3895   5.409   0.630   0.963
 1318TIP3    H2 3896   5.558   0.642   0.934
 1319TIP3   OH2 3897   0.711   1.920   6.717
 1319TIP3    H1 3898   0.791   1.868   6.724
 1319TIP3    H2 3899   0.644   1.868   6.762
 1320TIP3   OH2 3900   2.219   1.844   2.718
 1320TIP3    H1 3901   2.228   1.749   2.711
 1320TIP3    H2 3902   2.213   1.861   2.812
 1321TIP3   OH2 3903   6.511   7.275   5.586
 1321TIP3    H1 3904   6.424   7.312   5.571
 1321TIP3    H2 3905   6.563   7.305   5.512
 1322TIP3   OH2 3906   7.074   6.774   4.346
 1322TIP3    H1 3907   7.084   6.759   4.440
 1322TIP3    H2 3908   7.011   6.846   4.340
 1323TIP3   OH2 3909   0.360   1.278   2.037
 1323TIP3    H1 3910   0.296   1.207   2.029
 1323TIP3    H2 3911   0.357   1.302   2.129
 1324TIP3   OH2 3912   4.520   4.026   4.559
 1324TIP3    H1 3913   4.549   4.061   4.643
 1324TIP3    H2 3914   4.562   3.940   4.554
 1325TIP3   OH2 3915   4.803   5.930   2.098
 1325TIP3    H1 3916   4.843   6.003   2.050
 1325TIP3    H2 3917   4.727   5.969   2.141
 1326TIP3   OH2 3918   5.937   2.137   1.222
 1326TIP3    H1 3919   6.022   2.119   1.262
 1326TIP3    H2 3920   5.878   2.151   1.296
 1327TIP3   OH2 3921   1.188   6.137   4.802
 1327TIP3    H1 3922   1.126   6.136   4.730
 1327TIP3    H2 3923   1.270   6.107   4.764
 1328TIP3   OH2 3924   5.792   7.610   4.537
 1328TIP3    H1 3925   5.828   7.524   4.515
 1328TIP3    H2 3926   5.779   7.608   4.631
 1329TIP3   OH2 3927   6.848   3.785   5.493
 1329TIP3    H1 3928   6.786   3.805   5.423
 1329TIP3    H2 3929   6.798   3.734   5.556
 1330TIP3   OH2 3930   4.357   2.671   6.333
 1330TIP3    H1 3931   4.287   2.627   6.381
 1330TIP3    H2 3932   4.426   2.685   6.397
 1331TIP3   OH2 3933   6.915   0.512   6.371
 1331TIP3    H1 3934   6.885   0.580   6.311
 1331TIP3    H2 3935   6.956   0.447   6.314
 1332TIP3   OH2 3936   2.102   7.729   1.334
 1332TIP3    H1 3937   2.011   7.698   1.335
 1332TIP3    H2 3938   2.137   7.704   1.419
 1333TIP3   OH2 3939   5.324   6.098   4.897
 1333TIP3    H1 3940   5.361   6.186   4.892
 1333TIP3    H2 3941   5.318   6.068   4.806
 1334TIP3   OH2 3942   2.437   3.418   0.808
 1334TIP3    H1 3943   2.384   3.482   0.856
 1334TIP3    H2 3944   2.520   3.464   0.790
 1335TIP3   OH2 3945   2.812   6.933   2.519
 1335TIP3    H1 3946   2.856   7.016   2.542
 1335TIP3    H2 3947   2.749   6.958   2.452
 1336TIP3   OH2 3948   3.162   5.646   0.967
 1336TIP3    H1 3949   3.154   5.578   1.034
 1336TIP3    H2 3950   3.167   5.728   1.017
 1337TIP3   OH2 3951   6.698   0.092   4.854
 1337TIP3    H1 3952   6.617   0.100   4.904
 1337TIP3    H2 3953   6.731   0.005   4.877
 1338TIP3   OH2 3954   1.414   0.352   5.577
 1338TIP3    H1 3955   1.397   0.259   5.558
 1338TIP3    H2 3956   1.333   0.396   5.552
 1339TIP3   OH2 3957   7.541   7.485   4.077
 1339TIP3    H1 3958   7.588   7.555   4.124
 1339TIP3    H2 3959   7.492   7.531   4.009
 1340TIP3   OH2 3960   0.183   5.259   3.239
 1340TIP3    H1 3961   0.258   5.285   3.186
 1340TIP3    H2 3962   0.215   5.261   3.329
 1341TIP3   OH2 3963   5.580   7.823   2.547
 1341TIP3    H1 3964   5.664   7.795   2.510
 1341TIP3    H2 3965   5.564   7.761   2.618
 1342TIP3   OH2 3966   1.667   6.640   4.736
 1342TIP3    H1 3967   1.610   6.586   4.681
 1342TIP3    H2 3968   1.639   6.730   4.719
 1343TIP3   OH2 3969   6.631   1.611   6.065
 1343TIP3    H1 3970   6.719   1.585   6.039
 1343TIP3    H2 3971   6.618   1.570   6.151
 1344TIP3   OH2 3972   3.465   7.789   0.919
 1344TIP3    H1 3973   3.525   7.861   0.939
 1344TIP3    H2 3974   3.517   7.710   0.931
 1345TIP3   OH2 3975   8.086   1.260   4.324
 1345TIP3    H1 3976   8.073   1.285   4.416
 1345TIP3    H2 3977   8.023   1.313   4.275
 1346TIP3   OH2 3978   2.055   1.820   6.547
 1346TIP3    H1 3979   2.064   1.740   6.599
 1346TIP3    H2 3980   1.999   1.877   6.600
 1347TIP3   OH2 3981   6.383   3.906   0.633
 1347TIP3    H1 3982   6.448   3.959   0.587
 1347TIP3    H2 3983   6.311   3.898   0.572
 1348TIP3   OH2 3984   4.191   2.705   3.439
 1348TIP3    H1 3985   4.173   2.622   3.393
 1348TIP3    H2 3986   4.287   2.706   3.450
 1349TIP3   OH2 3987   4.835   6.122   1.889
 1349TIP3    H1 3988   4.909   6.168   1.848
 1349TIP3    H2 3989   4.814   6.052   1.828
 1350TIP3   OH2 3990   6.024   3.842   3.609
 1350TIP3    H1 3991   6.022   3.747   3.621
 1350TIP3    H2 3992   6.052   3.855   3.519
 1351TIP3   OH2 3993   3.245   6.759   3.744
 1351TIP3    H1 3994   3.168   6.705   3.757
 1351TIP3    H2 3995   3.230   6.801   3.659
 1352TIP3   OH2 3996   0.494   1.533   3.782
 1352TIP3    H1 3997   0.498   1.530   3.687
 1352TIP3    H2 3998   0.423   1.594   3.801
 1353TIP3   OH2 3999   6.739   7.841   1.295
 1353TIP3    H1 4000   6.651   7.805   1.287
 1353TIP3    H2 4001   6.796   7.771   1.263
 1354TIP3   OH2 4002   6.678   6.659   4.368
 1354TIP3    H1 4003   6.665   6.699   4.282
 1354TIP3    H2 4004   6.746   6.594   4.354
 1355TIP3   OH2 4005   2.645   4.098   2.725
 1355TIP3    H1 4006   2.556   4.066   2.742
 1355TIP3    H2 4007   2.674   4.049   2.648
 1356TIP3   OH2 4008   4.595   0.570   2.664
 1356TIP3    H1 4009   4.578   0.570   2.570
 1356TIP3    H2 4010   4.522   0.523   2.702
 1357TIP3   OH2 4011   1.379   3.308   6.116
 1357TIP3    H1 4012   1.406   3.309   6.024
 1357TIP3    H2 4013   1.417   3.227   6.151
 1358TIP3   OH2 4014   0.967   6.362   4.994
 1358TIP3    H1 4015   0.907   6.321   4.932
 1358TIP3    H2 4016   1.011   6.288   5.037
 1359TIP3   OH2 4017   1.403   0.117   6.574
 1359TIP3    H1 4018   1.364   0.078   6.497
 1359TIP3    H2 4019   1.497   0.099   6.566
 1360TIP3   OH2 4020   8.157   7.336   6.326
 1360TIP3    H1 4021   8.197   7.315   6.411
 1360TIP3    H2 4022   8.098   7.409   6.346
 1361TIP3   OH2 4023   3.514   5.797   1.642
 1361TIP3    H1 4024   3.446   5.828   1.582
 1361TIP3    H2 4025   3.581   5.866   1.639
 1362TIP3   OH2 4026   3.053   3.004   6.665
 1362TIP3    H1 4027   3.146   3.014   6.685
 1362TIP3    H2 4028   3.009   3.008   6.750
 1363TIP3   OH2 4029   0.652   2.708   5.245
 1363TIP3    H1 4030   0.727   2.650   5.254
 1363TIP3    H2 4031   0.648   2.730   5.152
 1364TIP3   OH2 4032   7.890   7.022   4.800
 1364TIP3    H1 4033   7.863   7.106   4.837
 1364TIP3    H2 4034   7.980   7.037   4.771
 1365TIP3   OH2 4035   4.461   5.256   5.271
 1365TIP3    H1 4036   4.449   5.329   5.210
 1365TIP3    H2 4037   4.538   5.209   5.237
 1366TIP3   OH2 4038   2.944   4.979   5.502
 1366TIP3    H1 4039   2.988   4.954   5.421
 1366TIP3    H2 4040   2.852   4.958   5.487
 1367TIP3   OH2 4041   5.498   2.493   4.922
 1367TIP3    H1 4042   5.410   2.526   4.939
 1367TIP3    H2 4043   5.539   2.561   4.869
 1368TIP3   OH2 4044   8.118   0.490   4.479
 1368TIP3    H1 4045   8.088   0.410   4.522
 1368TIP3    H2 4046   8.196   0.464   4.431
 1369TIP3   OH2 4047   0.200   0.485   1.314
 1369TIP3    H1 4048   0.120   0.502   1.266
 1369TIP3    H2 4049   0.226   0.396   1.288
 1370TIP3   OH2 4050   3.188   3.178   1.135
 1370TIP3    H1 4051   3.245   3.135   1.072
 1370TIP3    H2 4052   3.158   3.108   1.192
 1371TIP3   OH2 4053   0.758   7.478   1.806
 1371TIP3    H1 4054   0.833   7.433   1.767
 1371TIP3    H2 4055   0.739   7.550   1.746
 1372TIP3   OH2 4056   4.468   0.226   2.794
 1372TIP3    H1 4057   4.456   0.199   2.885
 1372TIP3    H2 4058   4.401   0.178   2.745
 1373TIP3   OH2 4059   3.255   7.697   1.854
 1373TIP3    H1 4060   3.278   7.789   1.853
 1373TIP3    H2 4061   3.159   7.696   1.855
 1374TIP3   OH2 4062   5.172   3.089   3.928
 1374TIP3    H1 4063   5.268   3.086   3.925
 1374TIP3    H2 4064   5.145   3.083   3.837
 1375TIP3   OH2 4065   5.204   1.317   3.544
 1375TIP3    H1 4066   5.219   1.302   3.451
 1375TIP3    H2 4067   5.272   1.265   3.587
 1376TIP3   OH2 4068   3.387   5.746   2.164
 1376TIP3    H1 4069   3.324   5.739   2.236
 1376TIP3    H2 4070   3.409   5.656   2.143
 1377TIP3   OH2 4071   7.405   6.188   4.143
 1377TIP3    H1 4072   7.454   6.259   4.102
 1377TIP3    H2 4073   7.430   6.192   4.236
 1378TIP3   OH2 4074   0.919   3.625   3.762
 1378TIP3    H1 4075   0.874   3.709   3.754
 1378TIP3    H2 4076   0.910   3.585   3.676
 1379TIP3   OH2 4077   8.303   4.753   5.907
 1379TIP3    H1 4078   8.215   4.715   5.910
 1379TIP3    H2 4079   8.289   4.845   5.883
 1380TIP3   OH2 4080   3.128   4.928   0.714
 1380TIP3    H1 4081   3.136   4.865   0.642
 1380TIP3    H2 4082   3.037   4.955   0.712
 1381TIP3   OH2 4083   1.047   6.406   2.625
 1381TIP3    H1 4084   1.017   6.489   2.663
 1381TIP3    H2 4085   1.139   6.422   2.603
 1382TIP3   OH2 4086   5.860   6.836   0.369
 1382TIP3    H1 4087   5.845   6.764   0.431
 1382TIP3    H2 4088   5.922   6.893   0.413
 1383TIP3   OH2 4089   4.482   7.590   0.726
 1383TIP3    H1 4090   4.391   7.619   0.720
 1383TIP3    H2 4091   4.532   7.670   0.743
 1384TIP3   OH2 4092   7.780   4.137   3.962
 1384TIP3    H1 4093   7.838   4.143   3.886
 1384TIP3    H2 4094   7.728   4.059   3.945
 1385TIP3   OH2 4095   3.373   2.184   4.848
 1385TIP3    H1 4096   3.387   2.267   4.804
 1385TIP3    H2 4097   3.388   2.203   4.941
 1386TIP3   OH2 4098   0.009   1.017   4.130
 1386TIP3    H1 4099   0.069   1.071   4.181
 1386TIP3    H2 4100  -0.075   1.062   4.134
 1387TIP3   OH2 4101   7.777   1.498   6.324
 1387TIP3    H1 4102   7.858   1.523   6.367
 1387TIP3    H2 4103   7.739   1.430   6.381
 1388TIP3   OH2 4104   7.141   4.431   6.383
 1388TIP3    H1 4105   7.211   4.369   6.405
 1388TIP3    H2 4106   7.166   4.512   6.427
 1389TIP3   OH2 4107   0.757   0.045   4.603
 1389TIP3    H1 4108   0.668   0.042   4.568
 1389TIP3    H2 4109   0.751   0.100   4.681
 1390TIP3   OH2 4110   2.246   4.631   0.031
 1390TIP3    H1 4111   2.204   4.618   0.116
 1390TIP3    H2 4112   2.177   4.613  -0.033
 1391TIP3   OH2 4113   5.782   2.255   5.868
 1391TIP3    H1 4114   5.862   2.288   5.827
 1391TIP3    H2 4115   5.810   2.175   5.914
 1392TIP3   OH2 4116   3.929   0.754   0.401
 1392TIP3    H1 4117   3.959   0.835   0.360
 1392TIP3    H2 4118   3.918   0.693   0.329
 1393TIP3   OH2 4119   6.808   4.734   3.123
 1393TIP3    H1 4120   6.804   4.739   3.219
 1393TIP3    H2 4121   6.793   4.825   3.094
 1394TIP3   OH2 4122   3.127   3.582   5.019
 1394TIP3    H1 4123   3.129   3.675   4.996
 1394TIP3    H2 4124   3.099   3.538   4.939
 1395TIP3   OH2 4125   2.442   1.803   4.267
 1395TIP3    H1 4126   2.367   1.858   4.244
 1395TIP3    H2 4127   2.441   1.732   4.203
 1396TIP3   OH2 4128   1.174   2.466   2.827
 1396TIP3    H1 4129   1.123   2.544   2.803
 1396TIP3    H2 4130   1.162   2.406   2.754
 1397TIP3   OH2 4131   1.422   6.355   5.335
 1397TIP3    H1 4132   1.343   6.408   5.343
 1397TIP3    H2 4133   1.392   6.265   5.350
 1398TIP3   OH2 4134   2.877   7.471   6.026
 1398TIP3    H1 4135   2.913   7.535   6.087
 1398TIP3    H2 4136   2.801   7.435   6.071
 1399TIP3   OH2 4137   7.247   1.746   1.864
 1399TIP3    H1 4138   7.166   1.759   1.913
 1399TIP3    H2 4139   7.304   1.700   1.925
 1400TIP3   OH2 4140   2.778   4.681   1.553
 1400TIP3    H1 4141   2.803   4.736   1.478
 1400TIP3    H2 4142   2.739   4.603   1.514
 1401TIP3   OH2 4143   4.788   0.279   3.165
 1401TIP3    H1 4144   4.816   0.324   3.244
 1401TIP3    H2 4145   4.759   0.349   3.106
 1402TIP3   OH2 4146   2.361   0.473   3.790
 1402TIP3    H1 4147   2.415   0.472   3.869
 1402TIP3    H2 4148   2.420   0.442   3.721
 1403TIP3   OH2 4149   7.563   3.111   1.497
 1403TIP3    H1 4150   7.531   3.196   1.468
 1403TIP3    H2 4151   7.626   3.131   1.565
 1404TIP3   OH2 4152   4.673   6.877   3.138
 1404TIP3    H1 4153   4.656   6.972   3.141
 1404TIP3    H2 4154   4.623   6.842   3.212
 1405TIP3   OH2 4155   4.219   0.711   5.873
 1405TIP3    H1 4156   4.128   0.739   5.884
 1405TIP3    H2 4157   4.216   0.651   5.798
 1406TIP3   OH2 4158   1.629   6.952   4.903
 1406TIP3    H1 4159   1.632   6.871   4.955
 1406TIP3    H2 4160   1.720   6.983   4.902
 1407TIP3   OH2 4161   1.936   4.561   1.395
 1407TIP3    H1 4162   1.891   4.573   1.311
 1407TIP3    H2 4163   1.900   4.629   1.452
 1408TIP3   OH2 4164   7.404   2.531   0.912
 1408TIP3    H1 4165   7.311   2.507   0.911
 1408TIP3    H2 4166   7.442   2.478   0.982
 1409TIP3   OH2 4167   0.706   4.119   4.865
 1409TIP3    H1 4168   0.693   4.143   4.773
 1409TIP3    H2 4169   0.771   4.049   4.863
 1410TIP3   OH2 4170   2.942   2.515   6.733
 1410TIP3    H1 4171   2.984   2.596   6.764
 1410TIP3    H2 4172   2.884   2.489   6.805
 1411TIP3   OH2 4173   1.913   3.705   2.087
 1411TIP3    H1 4174   1.895   3.785   2.136
 1411TIP3    H2 4175   1.904   3.731   1.995
 1412TIP3   OH2 4176   4.240   6.769   4.970
 1412TIP3    H1 4177   4.308   6.817   5.018
 1412TIP3    H2 4178   4.159   6.818   4.988
 1413TIP3   OH2 4179   2.302   2.765   0.295
 1413TIP3    H1 4180   2.283   2.855   0.321
 1413TIP3    H2 4181   2.397   2.756   0.304
 1414TIP3   OH2 4182   7.429   6.263   3.688
 1414TIP3    H1 4183   7.427   6.353   3.719
 1414TIP3    H2 4184   7.498   6.221   3.740
 1415TIP3   OH2 4185   5.080   3.144   5.823
 1415TIP3    H1 4186   4.995   3.188   5.820
 1415TIP3    H2 4187   5.086   3.111   5.913
 1416TIP3   OH2 4188   5.393   1.404   5.752
 1416TIP3    H1 4189   5.477   1.449   5.762
 1416TIP3    H2 4190   5.414   1.311   5.757
 1417TIP3   OH2 4191   3.604   6.903   0.831
 1417TIP3    H1 4192   3.579   6.824   0.783
 1417TIP3    H2 4193   3.586   6.883   0.922
 1418TIP3   OH2 4194   1.601   7.505   6.211
 1418TIP3    H1 4195   1.598   7.440   6.141
 1418TIP3    H2 4196   1.682   7.486   6.258
 1419TIP3   OH2 4197   4.587   1.452   1.078
 1419TIP3    H1 4198   4.566   1.424   0.989
 1419TIP3    H2 4199   4.550   1.540   1.085
 1420TIP3   OH2 4200   5.248   0.456   6.005
 1420TIP3    H1 4201   5.243   0.541   5.962
 1420TIP3    H2 4202   5.340   0.448   6.031
 1421TIP3   OH2 4203   5.976   7.945   1.791
 1421TIP3    H1 4204   5.883   7.945   1.769
 1421TIP3    H2 4205   5.997   7.853   1.805
 1422TIP3   OH2 4206   2.324   1.122   6.658
 1422TIP3    H1 4207   2.259   1.074   6.710
 1422TIP3    H2 4208   2.303   1.101   6.567
 1423TIP3   OH2 4209   4.944   4.794   4.140
 1423TIP3    H1 4210   4.937   4.889   4.144
 1423TIP3    H2 4211   4.860   4.763   4.174
 1424TIP3   OH2 4212   7.043   0.621   0.519
 1424TIP3    H1 4213   6.999   0.704   0.536
 1424TIP3    H2 4214   7.035   0.572   0.601
 1425TIP3   OH2 4215   2.066   6.985   3.110
 1425TIP3    H1 4216   2.055   6.983   3.015
 1425TIP3    H2 4217   2.110   7.069   3.127
 1426TIP3   OH2 4218   4.861   1.029   0.652
 1426TIP3    H1 4219   4.917   0.997   0.582
 1426TIP3    H2 4220   4.792   1.078   0.607
 1427TIP3   OH2 4221   5.533   2.262   1.795
 1427TIP3    H1 4222   5.576   2.228   1.873
 1427TIP3    H2 4223   5.568   2.209   1.723
 1428TIP3   OH2 4224   3.865   1.241   5.950
 1428TIP3    H1 4225   3.777   1.265   5.920
 1428TIP3    H2 4226   3.883   1.301   6.022
 1429TIP3   OH2 4227   3.638   2.202   0.796
 1429TIP3    H1 4228   3.732   2.194   0.815
 1429TIP3    H2 4229   3.598   2.129   0.844
 1430TIP3   OH2 4230   1.415   6.032   4.699
 1430TIP3    H1 4231   1.472   5.955   4.704
 1430TIP3    H2 4232   1.470   6.100   4.661
 1431TIP3   OH2 4233   4.623   6.867   0.444
 1431TIP3    H1 4234   4.567   6.942   0.464
 1431TIP3    H2 4235   4.694   6.904   0.392
 1432TIP3   OH2 4236   8.212   2.609   3.453
 1432TIP3    H1 4237   8.209   2.515   3.432
 1432TIP3    H2 4238   8.305   2.628   3.466
 1433TIP3   OH2 4239   5.872   6.442   0.670
 1433TIP3    H1 4240   5.836   6.362   0.630
 1433TIP3    H2 4241   5.814   6.461   0.744
 1434TIP3   OH2 4242   3.267   1.831   2.451
 1434TIP3    H1 4243   3.278   1.736   2.446
 1434TIP3    H2 4244   3.212   1.852   2.376
 1435TIP3   OH2 4245   7.786   4.594   3.871
 1435TIP3    H1 4246   7.746   4.547   3.797
 1435TIP3    H2 4247   7.780   4.532   3.944
 1436TIP3   OH2 4248   4.845   6.999   2.499
 1436TIP3    H1 4249   4.896   7.065   2.451
 1436TIP3    H2 4250   4.757   7.037   2.506
 1437TIP3   OH2 4251   6.837   3.782   3.790
 1437TIP3    H1 4252   6.903   3.851   3.800
 1437TIP3    H2 4253   6.767   3.824   3.739
 1438TIP3   OH2 4254   7.533   6.634   5.230
 1438TIP3    H1 4255   7.535   6.545   5.265
 1438TIP3    H2 4256   7.595   6.632   5.157
 1439TIP3   OH2 4257   1.522   2.923   2.255
 1439TIP3    H1 4258   1.541   2.846   2.200
 1439TIP3    H2 4259   1.606   2.943   2.297
 1440TIP3   OH2 4260   6.577   0.595   1.370
 1440TIP3    H1 4261   6.579   0.691   1.371
 1440TIP3    H2 4262   6.669   0.569   1.360
 1441TIP3   OH2 4263   6.811   2.050   4.357
 1441TIP3    H1 4264   6.891   2.040   4.306
 1441TIP3    H2 4265   6.796   1.963   4.395
 1442TIP3   OH2 4266   2.199   7.480   0.631
 1442TIP3    H1 4267   2.247   7.516   0.556
 1442TIP3    H2 4268   2.262   7.482   0.703
 1443TIP3   OH2 4269   6.322   4.386   4.029
 1443TIP3    H1 4270   6.404   4.435   4.036
 1443TIP3    H2 4271   6.350   4.296   4.010
 1444TIP3   OH2 4272   3.459   1.039   0.307
 1444TIP3    H1 4273   3.445   1.130   0.334
 1444TIP3    H2 4274   3.493   0.996   0.385
 1445TIP3   OH2 4275   7.617   0.369   6.506
 1445TIP3    H1 4276   7.532   0.380   6.464
 1445TIP3    H2 4277   7.668   0.317   6.444
 1446TIP3   OH2 4278   3.194   6.784   2.121
 1446TIP3    H1 4279   3.274   6.754   2.165
 1446TIP3    H2 4280   3.220   6.866   2.079
 1447TIP3   OH2 4281   1.040   6.121   2.752
 1447TIP3    H1 4282   1.045   6.060   2.679
 1447TIP3    H2 4283   1.046   6.208   2.712
 1448TIP3   OH2 4284   4.384   7.076   3.420
 1448TIP3    H1 4285   4.419   6.988   3.427
 1448TIP3    H2 4286   4.436   7.128   3.481
 1449TIP3   OH2 4287   8.207   0.047   4.900
 1449TIP3    H1 4288   8.266   0.100   4.954
 1449TIP3    H2 4289   8.124   0.094   4.901
 1450TIP3   OH2 4290   0.779   0.626   4.797
 1450TIP3    H1 4291   0.800   0.716   4.825
 1450TIP3    H2 4292   0.684   0.621   4.802
 1451TIP3   OH2 4293   5.915   3.012   3.799
 1451TIP3    H1 4294   5.837   2.991   3.850
 1451TIP3    H2 4295   5.961   3.077   3.851
 1452TIP3   OH2 4296   0.128   6.716   6.698
 1452TIP3    H1 4297   0.206   6.760   6.667
 1452TIP3    H2 4298   0.079   6.694   6.619
 1453TIP3   OH2 4299   7.369   1.936   5.233
 1453TIP3    H1 4300   7.348   1.843   5.230
 1453TIP3    H2 4301   7.464   1.940   5.229
 1454TIP3   OH2 4302   5.864   7.812   6.348
 1454TIP3    H1 4303   5.893   7.857   6.268
 1454TIP3    H2 4304   5.769   7.822   6.347
 1455TIP3   OH2 4305   1.480   5.030   5.739
 1455TIP3    H1 4306   1.470   4.990   5.825
 1455TIP3    H2 4307   1.572   5.056   5.734
 1456TIP3   OH2 4308   3.742   0.408   1.256
 1456TIP3    H1 4309   3.834   0.389   1.275
 1456TIP3    H2 4310   3.733   0.391   1.162
 1457TIP3   OH2 4311   7.456   6.864   5.820
 1457TIP3    H1 4312   7.361   6.868   5.826
 1457TIP3    H2 4313   7.487   6.915   5.895
 1458TIP3   OH2 4314   6.190   7.323   4.991
 1458TIP3    H1 4315   6.242   7.294   5.066
 1458TIP3    H2 4316   6.103   7.340   5.027
 1459TIP3   OH2 4317   6.292   6.283   0.875
 1459TIP3    H1 4318   6.301   6.367   0.830
 1459TIP3    H2 4319   6.351   6.288   0.950
 1460TIP3   OH2 4320   1.436   7.415   1.231
 1460TIP3    H1 4321   1.419   7.496   1.183
 1460TIP3    H2 4322   1.349   7.376   1.245
 1461TIP3   OH2 4323   7.707   4.751   2.644
 1461TIP3    H1 4324   7.666   4.723   2.563
 1461TIP3    H2 4325   7.722   4.844   2.633
 1462TIP3   OH2 4326   7.144   4.196   0.991
 1462TIP3    H1 4327   7.219   4.145   0.961
 1462TIP3    H2 4328   7.171   4.287   0.982
 1463TIP3   OH2 4329   2.569   5.986   6.539
 1463TIP3    H1 4330   2.631   6.058   6.532
 1463TIP3    H2 4331   2.582   5.934   6.460
 1464TIP3   OH2 4332   1.520   6.776   0.664
 1464TIP3    H1 4333   1.475   6.700   0.702
 1464TIP3    H2 4334   1.469   6.851   0.693
 1465TIP3   OH2 4335   0.496   5.987   5.267
 1465TIP3    H1 4336   0.497   6.065   5.210
 1465TIP3    H2 4337   0.406   5.983   5.300
 1466TIP3   OH2 4338   6.451   2.428   4.387
 1466TIP3    H1 4339   6.521   2.370   4.418
 1466TIP3    H2 4340   6.396   2.442   4.465
 1467TIP3   OH2 4341   3.589   3.484   1.163
 1467TIP3    H1 4342   3.520   3.534   1.206
 1467TIP3    H2 4343   3.579   3.505   1.070
 1468TIP3   OH2 4344   0.805   0.587   1.963
 1468TIP3    H1 4345   0.735   0.640   1.925
 1468TIP3    H2 4346   0.763   0.502   1.980
 1469TIP3   OH2 4347   1.155   5.916   0.743
 1469TIP3    H1 4348   1.177   5.991   0.798
 1469TIP3    H2 4349   1.059   5.918   0.738
 1470TIP3   OH2 4350   7.528   3.378   2.732
 1470TIP3    H1 4351   7.535   3.418   2.819
 1470TIP3    H2 4352   7.549   3.285   2.746
 1471TIP3   OH2 4353   5.489   3.805   5.085
 1471TIP3    H1 4354   5.463   3.726   5.132
 1471TIP3    H2 4355   5.581   3.792   5.064
 1472TIP3   OH2 4356   8.009   6.218   2.175
 1472TIP3    H1 4357   8.049   6.222   2.089
 1472TIP3    H2 4358   8.000   6.309   2.202
 1473TIP3   OH2 4359   5.408   1.840   0.196
 1473TIP3    H1 4360   5.445   1.755   0.217
 1473TIP3    H2 4361   5.476   1.903   0.220
 1474TIP3   OH2 4362   4.292   6.574   1.157
 1474TIP3    H1 4363   4.378   6.592   1.118
 1474TIP3    H2 4364   4.232   6.576   1.083
 1475TIP3   OH2 4365   2.393   7.250   0.978
 1475TIP3    H1 4366   2.438   7.226   0.897
 1475TIP3    H2 4367   2.417   7.341   0.993
 1476TIP3   OH2 4368   3.128   1.824   5.194
 1476TIP3    H1 4369   3.195   1.887   5.167
 1476TIP3    H2 4370   3.153   1.742   5.152
 1477TIP3   OH2 4371   5.209   6.162   5.581
 1477TIP3    H1 4372   5.157   6.223   5.528
 1477TIP3    H2 4373   5.223   6.087   5.524
 1478TIP3   OH2 4374   2.086   1.075   2.151
 1478TIP3    H1 4375   2.075   1.156   2.103
 1478TIP3    H2 4376   2.127   1.101   2.234
 1479TIP3   OH2 4377   4.632   3.962   2.464
 1479TIP3    H1 4378   4.699   3.910   2.506
 1479TIP3    H2 4379   4.606   3.911   2.387
 1480TIP3   OH2 4380   3.943   7.706   0.498
 1480TIP3    H1 4381   3.966   7.798   0.485
 1480TIP3    H2 4382   4.015   7.657   0.459
 1481TIP3   OH2 4383   3.235   3.162   4.789
 1481TIP3    H1 4384   3.214   3.223   4.719
 1481TIP3    H2 4385   3.255   3.080   4.745
 1482TIP3   OH2 4386   2.390   7.627   3.281
 1482TIP3    H1 4387   2.310   7.595   3.239
 1482TIP3    H2 4388   2.382   7.722   3.280
 1483TIP3   OH2 4389   5.256   3.056   3.192
 1483TIP3    H1 4390   5.291   2.974   3.156
 1483TIP3    H2 4391   5.324   3.121   3.176
 1484TIP3   OH2 4392   0.807   5.175   3.758
 1484TIP3    H1 4393   0.807   5.193   3.664
 1484TIP3    H2 4394   0.714   5.175   3.782
 1485TIP3   OH2 4395   1.112   6.964   1.180
 1485TIP3    H1 4396   1.040   6.908   1.151
 1485TIP3    H2 4397   1.191   6.921   1.149
 1486TIP3   OH2 4398   4.567   4.384   1.235
 1486TIP3    H1 4399   4.529   4.427   1.159
 1486TIP3    H2 4400   4.493   4.365   1.292
 1487TIP3   OH2 4401   0.175   1.131   5.493
 1487TIP3    H1 4402   0.214   1.212   5.461
 1487TIP3    H2 4403   0.193   1.067   5.425
 1488TIP3   OH2 4404   8.197   4.534   4.950
 1488TIP3    H1 4405   8.189   4.527   5.045
 1488TIP3    H2 4406   8.214   4.445   4.920
 1489TIP3   OH2 4407   6.916   2.724   6.331
 1489TIP3    H1 4408   6.869   2.652   6.290
 1489TIP3    H2 4409   6.979   2.752   6.265
 1490TIP3   OH2 4410   1.156   5.940   2.934
 1490TIP3    H1 4411   1.109   6.009   2.887
 1490TIP3    H2 4412   1.216   5.903   2.869
 1491TIP3   OH2 4413   7.316   3.244   6.528
 1491TIP3    H1 4414   7.309   3.323   6.583
 1491TIP3    H2 4415   7.407   3.215   6.540
 1492TIP3   OH2 4416   1.572   6.699   5.921
 1492TIP3    H1 4417   1.526   6.693   6.005
 1492TIP3    H2 4418   1.562   6.612   5.882
 1493TIP3   OH2 4419   1.744   4.124   1.221
 1493TIP3    H1 4420   1.667   4.071   1.200
 1493TIP3    H2 4421   1.780   4.148   1.136
 1494TIP3   OH2 4422   7.398   6.284   1.801
 1494TIP3    H1 4423   7.339   6.316   1.869
 1494TIP3    H2 4424   7.339   6.250   1.733
 1495TIP3   OH2 4425   3.911   3.183   5.890
 1495TIP3    H1 4426   3.827   3.173   5.935
 1495TIP3    H2 4427   3.928   3.277   5.891
 1496TIP3   OH2 4428   6.025   4.167   6.618
 1496TIP3    H1 4429   5.970   4.125   6.551
 1496TIP3    H2 4430   6.072   4.235   6.571
 1497TIP3   OH2 4431   1.010   2.951   2.851
 1497TIP3    H1 4432   0.937   2.961   2.789
 1497TIP3    H2 4433   1.082   2.917   2.798
 1498TIP3   OH2 4434   8.115   4.050   4.383
 1498TIP3    H1 4435   8.037   4.038   4.328
 1498TIP3    H2 4436   8.174   4.102   4.329
 1499TIP3   OH2 4437   4.531   0.183   3.689
 1499TIP3    H1 4438   4.474   0.114   3.655
 1499TIP3    H2 4439   4.535   0.166   3.783
 1500TIP3   OH2 4440   6.610   0.204   3.909
 1500TIP3    H1 4441   6.643   0.133   3.854
 1500TIP3    H2 4442   6.638   0.180   3.998
 1501TIP3   OH2 4443   0.592   2.287   4.459
 1501TIP3    H1 4444   0.623   2.340   4.532
 1501TIP3    H2 4445   0.497   2.297   4.459
 1502TIP3   OH2 4446   6.902   6.557   5.388
 1502TIP3    H1 4447   6.930   6.474   5.427
 1502TIP3    H2 4448   6.938   6.555   5.300
 1503TIP3   OH2 4449   6.197   1.629   5.328
 1503TIP3    H1 4450   6.185   1.613   5.422
 1503TIP3    H2 4451   6.213   1.543   5.291
 1504TIP3   OH2 4452   2.586   1.044   0.901
 1504TIP3    H1 4453   2.542   1.092   0.971
 1504TIP3    H2 4454   2.517   1.026   0.837
 1505TIP3   OH2 4455   1.905   5.723   3.857
 1505TIP3    H1 4456   1.843   5.763   3.797
 1505TIP3    H2 4457   1.959   5.796   3.888
 1506TIP3   OH2 4458   2.362   2.072   0.471
 1506TIP3    H1 4459   2.393   1.983   0.455
 1506TIP3    H2 4460   2.268   2.063   0.481
 1507TIP3   OH2 4461   6.487   3.964   3.855
 1507TIP3    H1 4462   6.473   4.056   3.833
 1507TIP3    H2 4463   6.402   3.935   3.888
 1508TIP3   OH2 4464   2.828   0.573   5.529
 1508TIP3    H1 4465   2.878   0.544   5.606
 1508TIP3    H2 4466   2.842   0.505   5.464
 1509TIP3   OH2 4467   2.212   5.522   3.683
 1509TIP3    H1 4468   2.260   5.596   3.718
 1509TIP3    H2 4469   2.192   5.547   3.592
 1510TIP3   OH2 4470   4.826   0.773   0.358
 1510TIP3    H1 4471   4.912   0.793   0.395
 1510TIP3    H2 4472   4.788   0.710   0.419
 1511TIP3   OH2 4473   5.552   3.237   5.342
 1511TIP3    H1 4474   5.507   3.214   5.423
 1511TIP3    H2 4475   5.587   3.154   5.310
 1512TIP3   OH2 4476   7.602   3.775   1.710
 1512TIP3    H1 4477   7.599   3.811   1.621
 1512TIP3    H2 4478   7.568   3.686   1.700
 1513TIP3   OH2 4479   5.163   3.161   2.392
 1513TIP3    H1 4480   5.156   3.154   2.297
 1513TIP3    H2 4481   5.247   3.120   2.413
 1514TIP3   OH2 4482   6.499   1.890   4.383
 1514TIP3    H1 4483   6.516   1.926   4.296
 1514TIP3    H2 4484   6.420   1.837   4.373
 1515TIP3   OH2 4485   5.431   3.077   1.486
 1515TIP3    H1 4486   5.380   3.149   1.522
 1515TIP3    H2 4487   5.474   3.038   1.562
 1516TIP3   OH2 4488   3.484   2.298   1.763
 1516TIP3    H1 4489   3.409   2.274   1.708
 1516TIP3    H2 4490   3.506   2.218   1.810
 1517TIP3   OH2 4491   0.582   6.040   3.520
 1517TIP3    H1 4492   0.560   6.073   3.607
 1517TIP3    H2 4493   0.578   6.118   3.464
 1518TIP3   OH2 4494   3.944   3.898   4.085
 1518TIP3    H1 4495   3.873   3.892   4.148
 1518TIP3    H2 4496   3.908   3.951   4.013
 1519TIP3   OH2 4497   8.113   5.753   3.812
 1519TIP3    H1 4498   8.032   5.709   3.789
 1519TIP3    H2 4499   8.090   5.846   3.818
 1520TIP3   OH2 4500   5.166   4.259   5.881
 1520TIP3    H1 4501   5.199   4.245   5.970
 1520TIP3    H2 4502   5.232   4.316   5.841
 1521TIP3   OH2 4503   4.691   0.803   6.385
 1521TIP3    H1 4504   4.638   0.723   6.378
 1521TIP3    H2 4505   4.651   0.863   6.322
 1522TIP3   OH2 4506   3.399   7.514   2.780
 1522TIP3    H1 4507   3.386   7.568   2.858
 1522TIP3    H2 4508   3.478   7.551   2.739
 1523TIP3   OH2 4509   4.189   7.555   5.832
 1523TIP3    H1 4510   4.238   7.636   5.848
 1523TIP3    H2 4511   4.139   7.541   5.913
 1524TIP3   OH2 4512   2.651   3.705   4.127
 1524TIP3    H1 4513   2.746   3.714   4.113
 1524TIP3    H2 4514   2.644   3.646   4.202
 1525TIP3   OH2 4515   6.497   3.259   1.218
 1525TIP3    H1 4516   6.482   3.301   1.133
 1525TIP3    H2 4517   6.411   3.257   1.260
 1526TIP3   OH2 4518   4.954   3.800   1.173
 1526TIP3    H1 4519   4.993   3.712   1.175
 1526TIP3    H2 4520   4.928   3.817   1.263
 1527TIP3   OH2 4521   5.013   3.647   0.766
 1527TIP3    H1 4522   4.987   3.564   0.727
 1527TIP3    H2 4523   4.979   3.713   0.706
 1528TIP3   OH2 4524   1.622   4.788   4.603
 1528TIP3    H1 4525   1.623   4.883   4.607
 1528TIP3    H2 4526   1.694   4.761   4.660
 1529TIP3   OH2 4527   4.562   3.876   2.208
 1529TIP3    H1 4528   4.523   3.790   2.191
 1529TIP3    H2 4529   4.521   3.934   2.145
 1530TIP3   OH2 4530   5.106   4.620   6.243
 1530TIP3    H1 4531   5.116   4.574   6.160
 1530TIP3    H2 4532   5.069   4.555   6.302
 1531TIP3   OH2 4533   4.181   0.234   5.811
 1531TIP3    H1 4534   4.210   0.285   5.887
 1531TIP3    H2 4535   4.260   0.220   5.760
 1532TIP3   OH2 4536   3.668   7.020   2.347
 1532TIP3    H1 4537   3.672   7.107   2.385
 1532TIP3    H2 4538   3.575   7.004   2.331
 1533TIP3   OH2 4539   4.655   0.439   0.793
 1533TIP3    H1 4540   4.611   0.451   0.877
 1533TIP3    H2 4541   4.748   0.453   0.811
 1534TIP3   OH2 4542   4.016   0.075   2.412
 1534TIP3    H1 4543   4.023   0.170   2.423
 1534TIP3    H2 4544   3.925   0.062   2.385
 1535TIP3   OH2 4545   3.043   2.156   5.224
 1535TIP3    H1 4546   3.092   2.109   5.291
 1535TIP3    H2 4547   3.012   2.235   5.268
 1536TIP3   OH2 4548   0.217   2.295   4.656
 1536TIP3    H1 4549   0.286   2.237   4.691
 1536TIP3    H2 4550   0.145   2.286   4.718
 1537TIP3   OH2 4551   0.545   7.833   3.389
 1537TIP3    H1 4552   0.617   7.876   3.342
 1537TIP3    H2 4553   0.565   7.848   3.481
 1538TIP3   OH2 4554   7.499   7.770   1.672
 1538TIP3    H1 4555   7.545   7.838   1.623
 1538TIP3    H2 4556   7.560   7.746   1.742
 1539TIP3   OH2 4557   2.122   7.339   5.855
 1539TIP3    H1 4558   2.090   7.406   5.795
 1539TIP3    H2 4559   2.166   7.388   5.924
 1540TIP3   OH2 4560   4.712   4.619   5.959
 1540TIP3    H1 4561   4.710   4.695   5.900
 1540TIP3    H2 4562   4.699   4.656   6.046
 1541TIP3   OH2 4563   7.392   0.739   0.722
 1541TIP3    H1 4564   7.372   0.821   0.767
 1541TIP3    H2 4565   7.426   0.681   0.790
 1542TIP3   OH2 4566   1.967   2.601   6.645
 1542TIP3    H1 4567   1.936   2.685   6.612
 1542TIP3    H2 4568   1.990   2.618   6.736
 1543TIP3   OH2 4569   6.287   0.521   3.334
 1543TIP3    H1 4570   6.225   0.498   3.265
 1543TIP3    H2 4571   6.358   0.567   3.289
 1544TIP3   OH2 4572   4.747   6.390   3.061
 1544TIP3    H1 4573   4.695   6.409   2.984
 1544TIP3    H2 4574   4.828   6.351   3.027
 1545TIP3   OH2 4575   5.933   2.758   4.966
 1545TIP3    H1 4576   5.890   2.804   4.894
 1545TIP3    H2 4577   5.867   2.697   4.999
 1546TIP3   OH2 4578   5.874   5.185   0.143
 1546TIP3    H1 4579   5.884   5.184   0.047
 1546TIP3    H2 4580   5.962   5.166   0.176
 1547TIP3   OH2 4581   5.209   2.322   3.152
 1547TIP3    H1 4582   5.141   2.352   3.091
 1547TIP3    H2 4583   5.160   2.280   3.223
 1548TIP3   OH2 4584   5.356   1.173   1.620
 1548TIP3    H1 4585   5.343   1.248   1.678
 1548TIP3    H2 4586   5.395   1.105   1.675
 1549TIP3   OH2 4587   6.738   3.099   6.135
 1549TIP3    H1 4588   6.804   3.040   6.098
 1549TIP3    H2 4589   6.728   3.168   6.069
 1550TIP3   OH2 4590   0.334   7.490   4.069
 1550TIP3    H1 4591   0.280   7.452   4.138
 1550TIP3    H2 4592   0.359   7.414   4.015
 1551TIP3   OH2 4593   4.536   2.902   3.755
 1551TIP3    H1 4594   4.620   2.867   3.725
 1551TIP3    H2 4595   4.501   2.949   3.680
 1552TIP3   OH2 4596   3.577   1.578   4.488
 1552TIP3    H1 4597   3.583   1.672   4.505
 1552TIP3    H2 4598   3.603   1.537   4.571
 1553TIP3   OH2 4599   4.889   4.507   4.758
 1553TIP3    H1 4600   4.940   4.563   4.701
 1553TIP3    H2 4601   4.834   4.455   4.699
 1554TIP3   OH2 4602   6.179   3.768   5.138
 1554TIP3    H1 4603   6.268   3.781   5.171
 1554TIP3    H2 4604   6.158   3.677   5.160
 1555TIP3   OH2 4605   5.567   3.202   0.203
 1555TIP3    H1 4606   5.496   3.241   0.153
 1555TIP3    H2 4607   5.635   3.184   0.138
 1556TIP3   OH2 4608   4.561   5.796   1.365
 1556TIP3    H1 4609   4.611   5.722   1.401
 1556TIP3    H2 4610   4.607   5.874   1.397
 1557TIP3   OH2 4611   3.886   7.287   4.920
 1557TIP3    H1 4612   3.903   7.381   4.928
 1557TIP3    H2 4613   3.969   7.251   4.887
 1558TIP3   OH2 4614   5.303   1.712   4.430
 1558TIP3    H1 4615   5.230   1.718   4.368
 1558TIP3    H2 4616   5.288   1.631   4.477
 1559TIP3   OH2 4617   0.944   1.314   4.241
 1559TIP3    H1 4618   1.010   1.382   4.255
 1559TIP3    H2 4619   0.861   1.360   4.250
 1560TIP3   OH2 4620   0.394   5.784   1.878
 1560TIP3    H1 4621   0.316   5.755   1.831
 1560TIP3    H2 4622   0.463   5.723   1.851
 1561TIP3   OH2 4623   2.374   5.302   6.145
 1561TIP3    H1 4624   2.415   5.381   6.181
 1561TIP3    H2 4625   2.358   5.324   6.053
 1562TIP3   OH2 4626   2.541   3.452   0.404
 1562TIP3    H1 4627   2.500   3.518   0.348
 1562TIP3    H2 4628   2.482   3.445   0.480
 1563TIP3   OH2 4629   1.906   5.712   4.793
 1563TIP3    H1 4630   2.000   5.713   4.778
 1563TIP3    H2 4631   1.897   5.696   4.887
 1564TIP3   OH2 4632   7.452   2.573   1.758
 1564TIP3    H1 4633   7.517   2.592   1.826
 1564TIP3    H2 4634   7.369   2.600   1.797
 1565TIP3   OH2 4635   7.051   7.198   2.693
 1565TIP3    H1 4636   7.068   7.135   2.623
 1565TIP3    H2 4637   6.991   7.261   2.654
 1566TIP3   OH2 4638   7.029   2.322   0.377
 1566TIP3    H1 4639   7.038   2.302   0.284
 1566TIP3    H2 4640   7.011   2.416   0.380
 1567TIP3   OH2 4641   4.203   4.651   0.441
 1567TIP3    H1 4642   4.133   4.685   0.386
 1567TIP3    H2 4643   4.279   4.705   0.418
 1568TIP3   OH2 4644   4.898   5.828   4.859
 1568TIP3    H1 4645   4.988   5.826   4.826
 1568TIP3    H2 4646   4.907   5.812   4.953
 1569TIP3   OH2 4647   5.290   0.800   3.119
 1569TIP3    H1 4648   5.215   0.744   3.140
 1569TIP3    H2 4649   5.347   0.746   3.064
 1570TIP3   OH2 4650   1.940   0.042   3.688
 1570TIP3    H1 4651   2.016  -0.012   3.708
 1570TIP3    H2 4652   1.977   0.125   3.658
 1571TIP3   OH2 4653   2.591   0.406   6.296
 1571TIP3    H1 4654   2.504   0.389   6.334
 1571TIP3    H2 4655   2.650   0.346   6.343
 1572TIP3   OH2 4656   6.299   2.438   1.443
 1572TIP3    H1 4657   6.379   2.487   1.459
 1572TIP3    H2 4658   6.235   2.504   1.417
 1573TIP3   OH2 4659   1.931   7.222   1.585
 1573TIP3    H1 4660   1.884   7.239   1.503
 1573TIP3    H2 4661   1.940   7.127   1.587
 1574TIP3   OH2 4662   4.158   7.661   0.324
 1574TIP3    H1 4663   4.235   7.686   0.374
 1574TIP3    H2 4664   4.191   7.603   0.255
 1575TIP3   OH2 4665   3.717   5.499   4.676
 1575TIP3    H1 4666   3.751   5.530   4.760
 1575TIP3    H2 4667   3.636   5.548   4.663
 1576TIP3   OH2 4668   0.442   2.331   1.187
 1576TIP3    H1 4669   0.410   2.349   1.099
 1576TIP3    H2 4670   0.537   2.342   1.182
 1577TIP3   OH2 4671   7.041   3.292   1.842
 1577TIP3    H1 4672   7.114   3.353   1.837
 1577TIP3    H2 4673   6.974   3.331   1.786
 1578TIP3   OH2 4674   0.510   3.120   5.502
 1578TIP3    H1 4675   0.513   3.025   5.492
 1578TIP3    H2 4676   0.445   3.149   5.439
 1579TIP3   OH2 4677   6.330   4.607   5.206
 1579TIP3    H1 4678   6.325   4.586   5.112
 1579TIP3    H2 4679   6.332   4.702   5.209
 1580TIP3   OH2 4680   1.766   0.528   3.327
 1580TIP3    H1 4681   1.858   0.552   3.335
 1580TIP3    H2 4682   1.721   0.582   3.392
 1581TIP3   OH2 4683   0.692   3.880   6.381
 1581TIP3    H1 4684   0.748   3.934   6.325
 1581TIP3    H2 4685   0.714   3.907   6.470
 1582TIP3   OH2 4686   0.579   2.558   0.641
 1582TIP3    H1 4687   0.586   2.559   0.546
 1582TIP3    H2 4688   0.594   2.648   0.668
 1583TIP3   OH2 4689   3.527   4.081   6.151
 1583TIP3    H1 4690   3.566   4.035   6.076
 1583TIP3    H2 4691   3.473   4.149   6.112
 1584TIP3   OH2 4692   3.951   3.085   5.420
 1584TIP3    H1 4693   3.907   3.131   5.349
 1584TIP3    H2 4694   3.880   3.059   5.479
 1585TIP3   OH2 4695   0.648   6.736   1.075
 1585TIP3    H1 4696   0.694   6.790   1.011
 1585TIP3    H2 4697   0.716   6.704   1.134
 1586TIP3   OH2 4698   6.938   7.610   2.441
 1586TIP3    H1 4699   6.959   7.679   2.377
 1586TIP3    H2 4700   7.008   7.546   2.430
 1587TIP3   OH2 4701   1.632   3.908   1.635
 1587TIP3    H1 4702   1.584   3.989   1.653
 1587TIP3    H2 4703   1.575   3.860   1.574
 1588TIP3   OH2 4704   0.082   1.663   4.064
 1588TIP3    H1 4705  -0.005   1.678   4.028
 1588TIP3    H2 4706   0.067   1.610   4.142
 1589TIP3   OH2 4707   3.970   5.826   4.674
 1589TIP3    H1 4708   3.885   5.850   4.709
 1589TIP3    H2 4709   3.977   5.873   4.591
 1590TIP3   OH2 4710   1.584   5.961   6.785
 1590TIP3    H1 4711   1.636   5.943   6.707
 1590TIP3    H2 4712   1.494   5.962   6.753
 1591TIP3   OH2 4713   3.481  -0.017   3.623
 1591TIP3    H1 4714   3.540  -0.029   3.698
 1591TIP3    H2 4715   3.508   0.067   3.585
 1592TIP3   OH2 4716   5.525   7.756   4.227
 1592TIP3    H1 4717   5.553   7.711   4.147
 1592TIP3    H2 4718   5.515   7.687   4.292
 1593TIP3   OH2 4719   3.368   2.617   1.557
 1593TIP3    H1 4720   3.420   2.685   1.514
 1593TIP3    H2 4721   3.324   2.572   1.485
 1594TIP3   OH2 4722   5.405   4.430   5.797
 1594TIP3    H1 4723   5.479   4.381   5.762
 1594TIP3    H2 4724   5.443   4.512   5.830
 1595TIP3   OH2 4725   0.607   6.349   0.443
 1595TIP3    H1 4726   0.515   6.350   0.419
 1595TIP3    H2 4727   0.637   6.260   0.422
 1596TIP3   OH2 4728   3.337   5.357   3.721
 1596TIP3    H1 4729   3.255   5.329   3.764
 1596TIP3    H2 4730   3.401   5.290   3.747
 1597TIP3   OH2 4731   7.809   6.624   6.597
 1597TIP3    H1 4732   7.839   6.626   6.688
 1597TIP3    H2 4733   7.850   6.701   6.557
 1598TIP3   OH2 4734   1.495   3.131   0.764
 1598TIP3    H1 4735   1.469   3.061   0.823
 1598TIP3    H2 4736   1.548   3.088   0.697
 1599TIP3   OH2 4737   6.128   3.550   6.484
 1599TIP3    H1 4738   6.210   3.553   6.532
 1599TIP3    H2 4739   6.120   3.460   6.453
 1600TIP3   OH2 4740   0.263   5.793   2.313
 1600TIP3    H1 4741   0.208   5.870   2.303
 1600TIP3    H2 4742   0.249   5.765   2.403
 1601TIP3   OH2 4743   6.212   3.538   3.406
 1601TIP3    H1 4744   6.193   3.487   3.327
 1601TIP3    H2 4745   6.297   3.577   3.389
 1602TIP3   OH2 4746   5.749   2.515   5.332
 1602TIP3    H1 4747   5.741   2.427   5.369
 1602TIP3    H2 4748   5.841   2.523   5.309
 1603TIP3   OH2 4749   0.147   4.572   5.432
 1603TIP3    H1 4750   0.115   4.605   5.348
 1603TIP3    H2 4751   0.083   4.603   5.496
 1604TIP3   OH2 4752   8.251   4.946   3.393
 1604TIP3    H1 4753   8.220   5.014   3.453
 1604TIP3    H2 4754   8.224   4.864   3.433
 1605TIP3   OH2 4755   6.088   5.530   5.024
 1605TIP3    H1 4756   6.141   5.584   4.965
 1605TIP3    H2 4757   6.059   5.456   4.971
 1606TIP3   OH2 4758   7.381   6.948   2.495
 1606TIP3    H1 4759   7.404   6.984   2.581
 1606TIP3    H2 4760   7.290   6.974   2.482
 1607TIP3   OH2 4761   2.447   7.884   1.563
 1607TIP3    H1 4762   2.457   7.871   1.657
 1607TIP3    H2 4763   2.354   7.866   1.546
 1608TIP3   OH2 4764   3.916   1.178   5.535
 1608TIP3    H1 4765   3.924   1.273   5.546
 1608TIP3    H2 4766   3.827   1.158   5.562
 1609TIP3   OH2 4767   3.712   1.822   3.679
 1609TIP3    H1 4768   3.792   1.848   3.726
 1609TIP3    H2 4769   3.742   1.803   3.590
 1610TIP3   OH2 4770   4.560   4.083   2.723
 1610TIP3    H1 4771   4.465   4.092   2.712
 1610TIP3    H2 4772   4.589   4.036   2.644
 1611TIP3   OH2 4773   4.002   1.093   6.226
 1611TIP3    H1 4774   4.053   1.174   6.236
 1611TIP3    H2 4775   4.002   1.077   6.131
 1612TIP3   OH2 4776   5.528   7.631   4.632
 1612TIP3    H1 4777   5.488   7.605   4.548
 1612TIP3    H2 4778   5.560   7.549   4.669
 1613TIP3   OH2 4779   5.740   7.610   4.104
 1613TIP3    H1 4780   5.775   7.538   4.156
 1613TIP3    H2 4781   5.792   7.686   4.130
 1614TIP3   OH2 4782   8.103   4.124   0.806
 1614TIP3    H1 4783   8.144   4.128   0.719
 1614TIP3    H2 4784   8.172   4.150   0.866
 1615TIP3   OH2 4785   4.633   6.088   2.236
 1615TIP3    H1 4786   4.636   6.017   2.300
 1615TIP3    H2 4787   4.568   6.150   2.272
 1616TIP3   OH2 4788   2.316   6.520   5.325
 1616TIP3    H1 4789   2.305   6.612   5.300
 1616TIP3    H2 4790   2.290   6.518   5.417
 1617TIP3   OH2 4791   0.035   4.147   4.010
 1617TIP3    H1 4792   0.094   4.091   4.060
 1617TIP3    H2 4793  -0.052   4.125   4.044
 1618TIP3   OH2 4794   7.135   7.145   0.322
 1618TIP3    H1 4795   7.138   7.237   0.349
 1618TIP3    H2 4796   7.157   7.147   0.228
 1619TIP3   OH2 4797   6.329   3.223   3.355
 1619TIP3    H1 4798   6.243   3.265   3.352
 1619TIP3    H2 4799   6.335   3.173   3.274
 1620TIP3   OH2 4800   0.477   0.631   0.866
 1620TIP3    H1 4801   0.483   0.548   0.912
 1620TIP3    H2 4802   0.542   0.624   0.796
 1621TIP3   OH2 4803   4.023   3.323   5.660
 1621TIP3    H1 4804   4.021   3.243   5.608
 1621TIP3    H2 4805   4.096   3.310   5.720
 1622TIP3   OH2 4806   6.114   4.521   1.887
 1622TIP3    H1 4807   6.165   4.553   1.812
 1622TIP3    H2 4808   6.044   4.585   1.898
 1623TIP3   OH2 4809   1.371   5.910   6.203
 1623TIP3    H1 4810   1.439   5.889   6.139
 1623TIP3    H2 4811   1.370   6.005   6.206
 1624TIP3   OH2 4812   6.179   6.103   6.063
 1624TIP3    H1 4813   6.113   6.154   6.110
 1624TIP3    H2 4814   6.135   6.075   5.983
 1625TIP3   OH2 4815   0.129   0.256   4.495
 1625TIP3    H1 4816   0.115   0.168   4.530
 1625TIP3    H2 4817   0.198   0.245   4.430
 1626TIP3   OH2 4818   0.877   6.965   0.371
 1626TIP3    H1 4819   0.964   6.926   0.371
 1626TIP3    H2 4820   0.818   6.892   0.353
 1627TIP3   OH2 4821   1.595   1.600   4.581
 1627TIP3    H1 4822   1.539   1.522   4.586
 1627TIP3    H2 4823   1.684   1.565   4.591
 1628TIP3   OH2 4824   5.248   7.459   4.693
 1628TIP3    H1 4825   5.323   7.516   4.710
 1628TIP3    H2 4826   5.174   7.503   4.735
 1629TIP3   OH2 4827   5.126   7.073   5.221
 1629TIP3    H1 4828   5.155   6.994   5.267
 1629TIP3    H2 4829   5.127   7.142   5.288
 1630TIP3   OH2 4830   3.671   5.126   4.330
 1630TIP3    H1 4831   3.713   5.165   4.407
 1630TIP3    H2 4832   3.681   5.191   4.261
 1631TIP3   OH2 4833   7.495   0.579   6.783
 1631TIP3    H1 4834   7.521   0.503   6.835
 1631TIP3    H2 4835   7.403   0.563   6.761
 1632TIP3   OH2 4836   2.326   4.135   1.082
 1632TIP3    H1 4837   2.395   4.166   1.024
 1632TIP3    H2 4838   2.370   4.124   1.167
 1633TIP3   OH2 4839   0.464   3.248   1.533
 1633TIP3    H1 4840   0.488   3.288   1.450
 1633TIP3    H2 4841   0.371   3.228   1.524
 1634TIP3   OH2 4842   5.528   6.798   0.044
 1634TIP3    H1 4843   5.437   6.812   0.073
 1634TIP3    H2 4844   5.538   6.855  -0.032
 1635TIP3   OH2 4845   5.285   3.928   2.894
 1635TIP3    H1 4846   5.293   4.000   2.955
 1635TIP3    H2 4847   5.229   3.962   2.823
 1636TIP3   OH2 4848   0.036   5.226   5.410
 1636TIP3    H1 4849   0.106   5.265   5.463
 1636TIP3    H2 4850  -0.029   5.296   5.401
 1637TIP3   OH2 4851   8.275   0.017   5.267
 1637TIP3    H1 4852   8.347   0.068   5.305
 1637TIP3    H2 4853   8.220   0.081   5.223
 1638TIP3   OH2 4854   6.277   2.679   1.005
 1638TIP3    H1 4855   6.299   2.743   1.073
 1638TIP3    H2 4856   6.335   2.701   0.932
 1639TIP3   OH2 4857   2.213   6.874   3.488
 1639TIP3    H1 4858   2.300   6.852   3.454
 1639TIP3    H2 4859   2.192   6.802   3.546
 1640TIP3   OH2 4860   4.086   4.905   3.465
 1640TIP3    H1 4861   4.157   4.954   3.422
 1640TIP3    H2 4862   4.016   4.902   3.400
 1641TIP3   OH2 4863   0.278   3.096   0.398
 1641TIP3    H1 4864   0.334   3.169   0.373
 1641TIP3    H2 4865   0.239   3.123   0.481
 1642TIP3   OH2 4866   1.680   0.664   1.084
 1642TIP3    H1 4867   1.680   0.696   0.993
 1642TIP3    H2 4868   1.690   0.569   1.075
 1643TIP3   OH2 4869   5.076   5.724   5.964
 1643TIP3    H1 4870   5.076   5.807   6.012
 1643TIP3    H2 4871   4.999   5.678   5.996
 1644TIP3   OH2 4872   3.949   4.484   6.100
 1644TIP3    H1 4873   3.912   4.559   6.053
 1644TIP3    H2 4874   4.043   4.497   6.094
 1645TIP3   OH2 4875   8.393   5.339   1.185
 1645TIP3    H1 4876   8.409   5.262   1.130
 1645TIP3    H2 4877   8.343   5.306   1.259
 1646TIP3   OH2 4878   3.135   4.273   5.113
 1646TIP3    H1 4879   3.117   4.221   5.192
 1646TIP3    H2 4880   3.206   4.227   5.069
 1647TIP3   OH2 4881   6.314   1.361   1.440
 1647TIP3    H1 4882   6.355   1.403   1.515
 1647TIP3    H2 4883   6.334   1.420   1.366
 1648TIP3   OH2 4884   0.845   5.733   0.514
 1648TIP3    H1 4885   0.870   5.694   0.430
 1648TIP3    H2 4886   0.750   5.744   0.508
 1649TIP3   OH2 4887   1.751   4.431   1.003
 1649TIP3    H1 4888   1.806   4.502   1.038
 1649TIP3    H2 4889   1.813   4.363   0.978
 1650TIP3   OH2 4890   3.528   3.950   6.408
 1650TIP3    H1 4891   3.563   3.996   6.332
 1650TIP3    H2 4892   3.463   4.009   6.445
 1651TIP3   OH2 4893   4.410   0.394   0.619
 1651TIP3    H1 4894   4.490   0.355   0.657
 1651TIP3    H2 4895   4.423   0.488   0.629
 1652TIP3   OH2 4896   6.321   1.231   6.614
 1652TIP3    H1 4897   6.315   1.308   6.671
 1652TIP3    H2 4898   6.342   1.159   6.674
 1653TIP3   OH2 4899   6.432   5.199   6.633
 1653TIP3    H1 4900   6.384   5.116   6.635
 1653TIP3    H2 4901   6.373   5.261   6.591
 1654TIP3   OH2 4902   5.345   1.241   6.031
 1654TIP3    H1 4903   5.415   1.305   6.039
 1654TIP3    H2 4904   5.306   1.238   6.118
 1655TIP3   OH2 4905   2.700   7.073   5.499
 1655TIP3    H1 4906   2.691   7.134   5.426
 1655TIP3    H2 4907   2.744   6.996   5.462
 1656TIP3   OH2 4908   2.155   3.655   3.548
 1656TIP3    H1 4909   2.121   3.643   3.637
 1656TIP3    H2 4910   2.167   3.749   3.539
 1657TIP3   OH2 4911   3.844   0.214   0.696
 1657TIP3    H1 4912   3.786   0.145   0.663
 1657TIP3    H2 4913   3.927   0.170   0.711
 1658TIP3   OH2 4914   7.933   1.064   1.675
 1658TIP3    H1 4915   7.912   1.157   1.671
 1658TIP3    H2 4916   7.851   1.020   1.652
 1659TIP3   OH2 4917   5.245   2.731   6.798
 1659TIP3    H1 4918   5.338   2.735   6.822
 1659TIP3    H2 4919   5.208   2.663   6.854
 1660TIP3   OH2 4920   0.086   2.608   3.258
 1660TIP3    H1 4921   0.133   2.526   3.243
 1660TIP3    H2 4922   0.048   2.631   3.173
 1661TIP3   OH2 4923   3.147   4.665   6.084
 1661TIP3    H1 4924   3.107   4.672   6.171
 1661TIP3    H2 4925   3.093   4.721   6.028
 1662TIP3   OH2 4926   6.579   6.782   2.475
 1662TIP3    H1 4927   6.497   6.751   2.438
 1662TIP3    H2 4928   6.566   6.776   2.570
 1663TIP3   OH2 4929   3.511   6.976   2.655
 1663TIP3    H1 4930   3.519   7.070   2.673
 1663TIP3    H2 4931   3.600   6.942   2.666
 1664TIP3   OH2 4932   7.848   6.035   0.273
 1664TIP3    H1 4933   7.867   6.095   0.345
 1664TIP3    H2 4934   7.753   6.029   0.271
 1665TIP3   OH2 4935   2.312   5.305   5.891
 1665TIP3    H1 4936   2.298   5.226   5.839
 1665TIP3    H2 4937   2.330   5.373   5.826
 1666TIP3   OH2 4938   8.001   0.625   3.162
 1666TIP3    H1 4939   7.955   0.666   3.089
 1666TIP3    H2 4940   7.995   0.688   3.233
 1667TIP3   OH2 4941   3.505   6.550   6.773
 1667TIP3    H1 4942   3.576   6.501   6.814
 1667TIP3    H2 4943   3.534   6.563   6.683
 1668TIP3   OH2 4944   3.816   6.604   6.280
 1668TIP3    H1 4945   3.745   6.560   6.233
 1668TIP3    H2 4946   3.874   6.636   6.212
 1669TIP3   OH2 4947   3.014   2.308   4.933
 1669TIP3    H1 4948   3.104   2.335   4.915
 1669TIP3    H2 4949   2.970   2.314   4.849
 1670TIP3   OH2 4950   4.864   2.907   5.531
 1670TIP3    H1 4951   4.911   2.979   5.573
 1670TIP3    H2 4952   4.852   2.936   5.441
 1671TIP3   OH2 4953   2.564   2.191   3.756
 1671TIP3    H1 4954   2.601   2.278   3.746
 1671TIP3    H2 4955   2.484   2.204   3.806
 1672TIP3   OH2 4956   5.063   1.995   6.368
 1672TIP3    H1 4957   5.081   1.919   6.314
 1672TIP3    H2 4958   5.108   1.977   6.451
 1673TIP3   OH2 4959   0.200   2.285   0.228
 1673TIP3    H1 4960   0.157   2.219   0.173
 1673TIP3    H2 4961   0.213   2.241   0.312
 1674TIP3   OH2 4962   0.592   3.271   3.823
 1674TIP3    H1 4963   0.674   3.224   3.836
 1674TIP3    H2 4964   0.615   3.343   3.765
 1675TIP3   OH2 4965   3.159   2.122   0.741
 1675TIP3    H1 4966   3.111   2.171   0.807
 1675TIP3    H2 4967   3.188   2.043   0.786
 1676TIP3   OH2 4968   5.652   1.295   5.227
 1676TIP3    H1 4969   5.734   1.336   5.257
 1676TIP3    H2 4970   5.627   1.346   5.150
 1677TIP3   OH2 4971   0.194   2.517   1.883
 1677TIP3    H1 4972   0.204   2.539   1.791
 1677TIP3    H2 4973   0.136   2.441   1.883
 1678TIP3   OH2 4974   6.870   6.742   3.768
 1678TIP3    H1 4975   6.779   6.728   3.742
 1678TIP3    H2 4976   6.903   6.806   3.706
 1679TIP3   OH2 4977   3.250   6.502   4.177
 1679TIP3    H1 4978   3.279   6.573   4.120
 1679TIP3    H2 4979   3.245   6.425   4.120
 1680TIP3   OH2 4980   5.319   2.241   3.903
 1680TIP3    H1 4981   5.404   2.254   3.861
 1680TIP3    H2 4982   5.341   2.204   3.989
 1681TIP3   OH2 4983   7.863   7.601   0.256
 1681TIP3    H1 4984   7.770   7.597   0.279
 1681TIP3    H2 4985   7.864   7.595   0.161
 1682TIP3   OH2 4986   3.664   1.736   4.874
 1682TIP3    H1 4987   3.717   1.729   4.953
 1682TIP3    H2 4988   3.605   1.810   4.890
 1683TIP3   OH2 4989   2.599   5.593   1.643
 1683TIP3    H1 4990   2.519   5.593   1.695
 1683TIP3    H2 4991   2.573   5.628   1.558
 1684TIP3   OH2 4992   4.887   1.935   1.469
 1684TIP3    H1 4993   4.821   1.866   1.474
 1684TIP3    H2 4994   4.927   1.936   1.556
 1685TIP3   OH2 4995   5.680   2.073   1.628
 1685TIP3    H1 4996   5.770   2.048   1.652
 1685TIP3    H2 4997   5.668   2.036   1.540
 1686TIP3   OH2 4998   3.801   1.440   3.535
 1686TIP3    H1 4999   3.791   1.393   3.452
 1686TIP3    H2 5000   3.872   1.502   3.520
 1687TIP3   OH2 5001   0.219   3.571   6.681
 1687TIP3    H1 5002   0.167   3.650   6.664
 1687TIP3    H2 5003   0.257   3.548   6.596
 1688TIP3   OH2 5004   0.695   7.053   3.576
 1688TIP3    H1 5005   0.712   6.973   3.526
 1688TIP3    H2 5006   0.778   7.101   3.574
 1689TIP3   OH2 5007   4.070   4.980   2.577
 1689TIP3    H1 5008   4.046   5.034   2.501
 1689TIP3    H2 5009   4.104   5.043   2.641
 1690TIP3   OH2 5010   2.066   2.173   6.401
 1690TIP3    H1 5011   2.160   2.185   6.411
 1690TIP3    H2 5012   2.030   2.262   6.404
 1691TIP3   OH2 5013   4.249   3.232   1.903
 1691TIP3    H1 5014   4.300   3.288   1.962
 1691TIP3    H2 5015   4.300   3.231   1.822
 1692TIP3   OH2 5016   3.173   5.948   4.495
 1692TIP3    H1 5017   3.086   5.954   4.456
 1692TIP3    H2 5018   3.160   5.896   4.574
 1693TIP3   OH2 5019   2.077   5.142   4.684
 1693TIP3    H1 5020   2.007   5.187   4.637
 1693TIP3    H2 5021   2.158   5.173   4.642
 1694TIP3   OH2 5022   5.069   1.756   6.209
 1694TIP3    H1 5023   5.117   1.679   6.177
 1694TIP3    H2 5024   4.977   1.736   6.193
 1695TIP3   OH2 5025   0.547   4.132   6.209
 1695TIP3    H1 5026   0.624   4.130   6.153
 1695TIP3    H2 5027   0.555   4.212   6.260
 1696TIP3   OH2 5028   0.958   5.846   3.386
 1696TIP3    H1 5029   0.900   5.778   3.420
 1696TIP3    H2 5030   0.957   5.914   3.453
 1697TIP3   OH2 5031   7.542   4.291   4.154
 1697TIP3    H1 5032   7.507   4.367   4.200
 1697TIP3    H2 5033   7.632   4.282   4.187
 1698TIP3   OH2 5034   5.599   3.854   0.713
 1698TIP3    H1 5035   5.651   3.913   0.659
 1698TIP3    H2 5036   5.647   3.849   0.796
 1699TIP3   OH2 5037   2.041   6.051   6.596
 1699TIP3    H1 5038   2.063   6.112   6.525
 1699TIP3    H2 5039   2.106   5.982   6.590
 1700TIP3   OH2 5040   3.947   1.528   5.012
 1700TIP3    H1 5041   3.884   1.556   5.079
 1700TIP3    H2 5042   3.933   1.433   5.005
 1701TIP3   OH2 5043   3.080   0.459   6.254
 1701TIP3    H1 5044   3.133   0.404   6.197
 1701TIP3    H2 5045   3.010   0.403   6.284
 1702TIP3   OH2 5046   2.762   6.201   3.485
 1702TIP3    H1 5047   2.836   6.175   3.539
 1702TIP3    H2 5048   2.702   6.126   3.488
 1703TIP3   OH2 5049   6.271   1.592   2.743
 1703TIP3    H1 5050   6.263   1.632   2.830
 1703TIP3    H2 5051   6.189   1.615   2.698
 1704TIP3   OH2 5052   1.108   7.400   2.670
 1704TIP3    H1 5053   1.032   7.343   2.683
 1704TIP3    H2 5054   1.116   7.450   2.751
 1705TIP3   OH2 5055   5.829   2.084   0.951
 1705TIP3    H1 5056   5.867   2.062   1.036
 1705TIP3    H2 5057   5.844   2.178   0.942
 1706TIP3   OH2 5058   5.740   5.572   4.622
 1706TIP3    H1 5059   5.712   5.639   4.685
 1706TIP3    H2 5060   5.659   5.533   4.591
 1707TIP3   OH2 5061   1.633   4.048   0.139
 1707TIP3    H1 5062   1.661   3.989   0.208
 1707TIP3    H2 5063   1.637   3.996   0.059
 1708TIP3   OH2 5064   4.220   5.971   1.819
 1708TIP3    H1 5065   4.126   5.985   1.834
 1708TIP3    H2 5066   4.226   5.880   1.791
 1709TIP3   OH2 5067   8.087   0.334   3.145
 1709TIP3    H1 5068   8.078   0.429   3.153
 1709TIP3    H2 5069   8.180   0.321   3.128
 1710TIP3   OH2 5070   7.433   7.599   0.076
 1710TIP3    H1 5071   7.413   7.522   0.024
 1710TIP3    H2 5072   7.389   7.584   0.160
 1711TIP3   OH2 5073   0.695   6.649   3.627
 1711TIP3    H1 5074   0.720   6.723   3.572
 1711TIP3    H2 5075   0.761   6.648   3.697
 1712TIP3   OH2 5076   7.845   5.610   1.014
 1712TIP3    H1 5077   7.933   5.595   0.979
 1712TIP3    H2 5078   7.794   5.639   0.939
 1713TIP3   OH2 5079   4.970   3.481   5.664
 1713TIP3    H1 5080   4.959   3.396   5.621
 1713TIP3    H2 5081   4.951   3.464   5.756
 1714TIP3   OH2 5082   3.561   3.046   5.140
 1714TIP3    H1 5083   3.585   3.091   5.221
 1714TIP3    H2 5084   3.484   3.093   5.108
 1715TIP3   OH2 5085   5.620   0.342  -0.027
 1715TIP3    H1 5086   5.574   0.338   0.057
 1715TIP3    H2 5087   5.640   0.435  -0.038
 1716TIP3   OH2 5088   5.502   0.681   2.660
 1716TIP3    H1 5089   5.526   0.599   2.618
 1716TIP3    H2 5090   5.525   0.668   2.752
 1717TIP3   OH2 5091   6.454   7.444   6.789
 1717TIP3    H1 5092   6.392   7.420   6.858
 1717TIP3    H2 5093   6.411   7.418   6.708
 1718TIP3   OH2 5094   7.849   7.142   1.855
 1718TIP3    H1 5095   7.855   7.205   1.784
 1718TIP3    H2 5096   7.835   7.058   1.812
 1719TIP3   OH2 5097   6.735   4.238   4.304
 1719TIP3    H1 5098   6.779   4.166   4.349
 1719TIP3    H2 5099   6.698   4.291   4.374
 1720TIP3   OH2 5100   3.341   6.098   4.371
 1720TIP3    H1 5101   3.297   6.039   4.432
 1720TIP3    H2 5102   3.326   6.185   4.407
 1721TIP3   OH2 5103   4.223   7.307   0.539
 1721TIP3    H1 5104   4.187   7.377   0.593
 1721TIP3    H2 5105   4.289   7.350   0.485
 1722TIP3   OH2 5106   6.219   4.403   2.121
 1722TIP3    H1 5107   6.232   4.399   2.027
 1722TIP3    H2 5108   6.124   4.409   2.132
 1723TIP3   OH2 5109   6.324   6.647   4.009
 1723TIP3    H1 5110   6.284   6.581   4.066
 1723TIP3    H2 5111   6.254   6.711   3.995
 1724TIP3   OH2 5112   3.318   7.203   5.203
 1724TIP3    H1 5113   3.328   7.163   5.289
 1724TIP3    H2 5114   3.244   7.158   5.164
 1725TIP3   OH2 5115   3.724   6.923   3.740
 1725TIP3    H1 5116   3.642   6.881   3.716
 1725TIP3    H2 5117   3.704   7.016   3.745
 1726TIP3   OH2 5118   2.668   1.057   2.149
 1726TIP3    H1 5119   2.724   0.990   2.112
 1726TIP3    H2 5120   2.579   1.024   2.135
 1727TIP3   OH2 5121   5.967   4.619   3.564
 1727TIP3    H1 5122   6.016   4.630   3.482
 1727TIP3    H2 5123   5.875   4.628   3.538
 1728TIP3   OH2 5124   7.918   2.925   4.683
 1728TIP3    H1 5125   7.980   2.882   4.742
 1728TIP3    H2 5126   7.959   3.010   4.665
 1729TIP3   OH2 5127   1.371   2.978   1.571
 1729TIP3    H1 5128   1.429   3.054   1.563
 1729TIP3    H2 5129   1.302   2.993   1.505
 1730TIP3   OH2 5130   2.166   2.422   4.377
 1730TIP3    H1 5131   2.107   2.389   4.445
 1730TIP3    H2 5132   2.126   2.393   4.295
 1731TIP3   OH2 5133   7.074   4.077   5.850
 1731TIP3    H1 5134   7.032   4.077   5.936
 1731TIP3    H2 5135   7.085   4.170   5.829
 1732TIP3   OH2 5136   8.179   5.740   3.470
 1732TIP3    H1 5137   8.111   5.758   3.406
 1732TIP3    H2 5138   8.140   5.676   3.530
 1733TIP3   OH2 5139   3.886   7.607   3.812
 1733TIP3    H1 5140   3.851   7.680   3.864
 1733TIP3    H2 5141   3.850   7.529   3.854
 1734TIP3   OH2 5142   1.330   5.562   5.553
 1734TIP3    H1 5143   1.351   5.472   5.576
 1734TIP3    H2 5144   1.239   5.559   5.525
 1735TIP3   OH2 5145   3.387   6.380   5.434
 1735TIP3    H1 5146   3.436   6.300   5.415
 1735TIP3    H2 5147   3.445   6.451   5.409
 1736TIP3   OH2 5148   2.440   4.891   1.139
 1736TIP3    H1 5149   2.451   4.810   1.188
 1736TIP3    H2 5150   2.351   4.919   1.157
 1737TIP3   OH2 5151   4.850   7.543   5.812
 1737TIP3    H1 5152   4.861   7.475   5.878
 1737TIP3    H2 5153   4.837   7.624   5.861
 1738TIP3   OH2 5154   7.099   7.379   6.716
 1738TIP3    H1 5155   7.082   7.467   6.684
 1738TIP3    H2 5156   7.176   7.350   6.666
 1739TIP3   OH2 5157   1.215   1.832   1.542
 1739TIP3    H1 5158   1.273   1.901   1.509
 1739TIP3    H2 5159   1.133   1.877   1.563
 1740TIP3   OH2 5160   4.436   6.128   1.600
 1740TIP3    H1 5161   4.364   6.152   1.541
 1740TIP3    H2 5162   4.393   6.098   1.680
 1741TIP3   OH2 5163   4.629   0.854   6.642
 1741TIP3    H1 5164   4.680   0.838   6.563
 1741TIP3    H2 5165   4.560   0.787   6.641
 1742TIP3   OH2 5166   0.744   5.717   6.391
 1742TIP3    H1 5167   0.784   5.793   6.348
 1742TIP3    H2 5168   0.762   5.644   6.331
 1743TIP3   OH2 5169   5.844   1.399   0.780
 1743TIP3    H1 5170   5.752   1.399   0.753
 1743TIP3    H2 5171   5.893   1.392   0.697
 1744TIP3   OH2 5172   7.522   7.189   0.523
 1744TIP3    H1 5173   7.601   7.193   0.468
 1744TIP3    H2 5174   7.488   7.278   0.523
 1745TIP3   OH2 5175   7.296   6.718   5.338
 1745TIP3    H1 5176   7.387   6.699   5.317
 1745TIP3    H2 5177   7.249   6.706   5.256
 1746TIP3   OH2 5178   2.636   3.878   0.958
 1746TIP3    H1 5179   2.564   3.836   1.004
 1746TIP3    H2 5180   2.609   3.969   0.949
 1747TIP3   OH2 5181   2.262   5.257   3.741
 1747TIP3    H1 5182   2.255   5.348   3.712
 1747TIP3    H2 5183   2.213   5.208   3.675
 1748TIP3   OH2 5184   1.292   5.644   1.955
 1748TIP3    H1 5185   1.379   5.670   1.927
 1748TIP3    H2 5186   1.262   5.581   1.889
 1749TIP3   OH2 5187   6.112   1.987   0.366
 1749TIP3    H1 5188   6.076   1.972   0.279
 1749TIP3    H2 5189   6.080   1.913   0.418
 1750TIP3   OH2 5190   5.017   4.864   3.502
 1750TIP3    H1 5191   5.051   4.914   3.428
 1750TIP3    H2 5192   5.065   4.781   3.500
 1751TIP3   OH2 5193   5.531   4.609   5.085
 1751TIP3    H1 5194   5.612   4.566   5.057
 1751TIP3    H2 5195   5.466   4.582   5.020
 1752TIP3   OH2 5196   6.105   6.319   4.767
 1752TIP3    H1 5197   6.147   6.323   4.854
 1752TIP3    H2 5198   6.139   6.239   4.728
 1753TIP3   OH2 5199   2.757   4.116   4.349
 1753TIP3    H1 5200   2.778   4.208   4.365
 1753TIP3    H2 5201   2.680   4.099   4.402
 1754TIP3   OH2 5202   1.167   3.956   4.644
 1754TIP3    H1 5203   1.090   3.900   4.645
 1754TIP3    H2 5204   1.214   3.935   4.724
 1755TIP3   OH2 5205   4.432   5.933   3.439
 1755TIP3    H1 5206   4.438   5.845   3.402
 1755TIP3    H2 5207   4.347   5.965   3.412
 1756TIP3   OH2 5208   2.021   2.274   6.757
 1756TIP3    H1 5209   2.086   2.206   6.774
 1756TIP3    H2 5210   1.944   2.226   6.726
 1757TIP3   OH2 5211   0.502   0.545   3.438
 1757TIP3    H1 5212   0.543   0.632   3.433
 1757TIP3    H2 5213   0.469   0.529   3.350
 1758TIP3   OH2 5214   5.666   5.458   2.581
 1758TIP3    H1 5215   5.598   5.520   2.554
 1758TIP3    H2 5216   5.716   5.505   2.648
 1759TIP3   OH2 5217   6.188   0.139   5.130
 1759TIP3    H1 5218   6.123   0.116   5.063
 1759TIP3    H2 5219   6.170   0.079   5.202
 1760TIP3   OH2 5220   3.288   2.314   4.026
 1760TIP3    H1 5221   3.271   2.274   4.111
 1760TIP3    H2 5222   3.381   2.297   4.009
 1761TIP3   OH2 5223   1.378   3.212   4.059
 1761TIP3    H1 5224   1.399   3.249   3.973
 1761TIP3    H2 5225   1.460   3.218   4.108
 1762TIP3   OH2 5226   6.022   6.022   5.839
 1762TIP3    H1 5227   5.997   5.956   5.775
 1762TIP3    H2 5228   6.088   6.075   5.793
 1763TIP3   OH2 5229   1.230   1.198   0.393
 1763TIP3    H1 5230   1.165   1.130   0.408
 1763TIP3    H2 5231   1.314   1.156   0.412
 1764TIP3   OH2 5232   7.949   4.654   3.626
 1764TIP3    H1 5233   7.869   4.689   3.665
 1764TIP3    H2 5234   7.998   4.617   3.699
 1765TIP3   OH2 5235   6.881   6.849   4.620
 1765TIP3    H1 5236   6.849   6.934   4.591
 1765TIP3    H2 5237   6.811   6.788   4.598
 1766TIP3   OH2 5238   0.508   4.066   0.266
 1766TIP3    H1 5239   0.473   3.994   0.319
 1766TIP3    H2 5240   0.530   4.134   0.330
 1767TIP3   OH2 5241   4.600   5.665   0.937
 1767TIP3    H1 5242   4.557   5.684   1.020
 1767TIP3    H2 5243   4.617   5.751   0.898
 1768TIP3   OH2 5244   5.944   3.952   4.804
 1768TIP3    H1 5245   5.861   3.935   4.848
 1768TIP3    H2 5246   5.927   4.026   4.746
 1769TIP3   OH2 5247   7.113   0.065   5.855
 1769TIP3    H1 5248   7.024   0.062   5.819
 1769TIP3    H2 5249   7.166   0.104   5.785
 1770TIP3   OH2 5250   0.923   4.236   0.159
 1770TIP3    H1 5251   0.843   4.249   0.108
 1770TIP3    H2 5252   0.991   4.283   0.110
 1771TIP3   OH2 5253   2.573   4.455   1.069
 1771TIP3    H1 5254   2.598   4.395   1.138
 1771TIP3    H2 5255   2.619   4.424   0.991
 1772TIP3   OH2 5256   2.309   2.612   6.111
 1772TIP3    H1 5257   2.301   2.567   6.027
 1772TIP3    H2 5258   2.220   2.637   6.134
 1773TIP3   OH2 5259   1.654   7.111   0.665
 1773TIP3    H1 5260   1.680   7.029   0.707
 1773TIP3    H2 5261   1.643   7.089   0.573
 1774TIP3   OH2 5262   4.824   3.682   2.942
 1774TIP3    H1 5263   4.782   3.637   2.869
 1774TIP3    H2 5264   4.793   3.637   3.020
 1775TIP3   OH2 5265   0.668   7.131   2.919
 1775TIP3    H1 5266   0.594   7.091   2.964
 1775TIP3    H2 5267   0.642   7.131   2.827
 1776TIP3   OH2 5268   2.827   1.195   3.075
 1776TIP3    H1 5269   2.801   1.276   3.031
 1776TIP3    H2 5270   2.910   1.172   3.035
 1777TIP3   OH2 5271   3.992   1.466   6.036
 1777TIP3    H1 5272   4.002   1.483   5.943
 1777TIP3    H2 5273   4.068   1.413   6.060
 1778TIP3   OH2 5274   0.516   5.807   5.693
 1778TIP3    H1 5275   0.442   5.837   5.746
 1778TIP3    H2 5276   0.589   5.863   5.720
 1779TIP3   OH2 5277   2.708   7.354   2.613
 1779TIP3    H1 5278   2.669   7.340   2.700
 1779TIP3    H2 5279   2.783   7.294   2.611
 1780TIP3   OH2 5280   4.007   3.693   2.001
 1780TIP3    H1 5281   3.912   3.695   1.995
 1780TIP3    H2 5282   4.026   3.655   2.086
 1781TIP3   OH2 5283   5.432   0.768   4.877
 1781TIP3    H1 5284   5.387   0.710   4.815
 1781TIP3    H2 5285   5.371   0.841   4.889
 1782TIP3   OH2 5286   3.966   0.347   1.670
 1782TIP3    H1 5287   3.905   0.366   1.741
 1782TIP3    H2 5288   4.053   0.366   1.706
 1783TIP3   OH2 5289   7.772   5.787   2.330
 1783TIP3    H1 5290   7.780   5.876   2.297
 1783TIP3    H2 5291   7.833   5.783   2.404
 1784TIP3   OH2 5292   1.891   6.067   2.543
 1784TIP3    H1 5293   1.799   6.095   2.538
 1784TIP3    H2 5294   1.938   6.145   2.574
 1785TIP3   OH2 5295   7.867   2.109   2.611
 1785TIP3    H1 5296   7.928   2.037   2.623
 1785TIP3    H2 5297   7.790   2.085   2.664
 1786TIP3   OH2 5298   8.104   7.865   4.522
 1786TIP3    H1 5299   8.188   7.909   4.532
 1786TIP3    H2 5300   8.049   7.928   4.475
 1787TIP3   OH2 5301   5.534   7.690   1.806
 1787TIP3    H1 5302   5.532   7.610   1.753
 1787TIP3    H2 5303   5.594   7.670   1.877
 1788TIP3   OH2 5304   4.118   5.869   6.763
 1788TIP3    H1 5305   4.204   5.895   6.797
 1788TIP3    H2 5306   4.107   5.778   6.792
 1789TIP3   OH2 5307   1.627   6.422   0.054
 1789TIP3    H1 5308   1.646   6.331   0.077
 1789TIP3    H2 5309   1.586   6.417  -0.033
 1790TIP3   OH2 5310   0.753   5.665   3.494
 1790TIP3    H1 5311   0.708   5.607   3.432
 1790TIP3    H2 5312   0.723   5.636   3.580
 1791TIP3   OH2 5313   0.955   1.773   1.779
 1791TIP3    H1 5314   1.015   1.771   1.853
 1791TIP3    H2 5315   0.976   1.853   1.732
 1792TIP3   OH2 5316   0.345   7.878   3.768
 1792TIP3    H1 5317   0.267   7.874   3.713
 1792TIP3    H2 5318   0.372   7.787   3.778
 1793TIP3   OH2 5319   6.404   4.519   5.799
 1793TIP3    H1 5320   6.388   4.556   5.712
 1793TIP3    H2 5321   6.412   4.424   5.783
 1794TIP3   OH2 5322   2.384   4.107   0.636
 1794TIP3    H1 5323   2.371   4.012   0.637
 1794TIP3    H2 5324   2.349   4.135   0.552
 1795TIP3   OH2 5325   4.055   7.140   6.690
 1795TIP3    H1 5326   3.969   7.102   6.705
 1795TIP3    H2 5327   4.113   7.094   6.751
 1796TIP3   OH2 5328   3.616   0.823   0.441
 1796TIP3    H1 5329   3.690   0.765   0.426
 1796TIP3    H2 5330   3.552   0.768   0.487
 1797TIP3   OH2 5331   3.322   3.141   0.154
 1797TIP3    H1 5332   3.364   3.221   0.121
 1797TIP3    H2 5333   3.386   3.102   0.213
 1798TIP3   OH2 5334   2.918   2.885   1.578
 1798TIP3    H1 5335   2.970   2.874   1.499
 1798TIP3    H2 5336   2.941   2.810   1.633
 1799TIP3   OH2 5337   3.766   2.297   0.546
 1799TIP3    H1 5338   3.788   2.230   0.481
 1799TIP3    H2 5339   3.696   2.257   0.598
 1800TIP3   OH2 5340   5.603   6.561   3.155
 1800TIP3    H1 5341   5.549   6.542   3.232
 1800TIP3    H2 5342   5.558   6.517   3.083
 1801TIP3   OH2 5343   0.162   0.805   6.289
 1801TIP3    H1 5344   0.118   0.796   6.204
 1801TIP3    H2 5345   0.168   0.716   6.323
 1802TIP3   OH2 5346   5.603   2.875   0.190
 1802TIP3    H1 5347   5.581   2.947   0.249
 1802TIP3    H2 5348   5.698   2.869   0.194
 1803TIP3   OH2 5349   0.644   7.310   2.494
 1803TIP3    H1 5350   0.681   7.397   2.506
 1803TIP3    H2 5351   0.653   7.293   2.400
 1804TIP3   OH2 5352   0.014   4.748   0.307
 1804TIP3    H1 5353   0.006   4.823   0.366
 1804TIP3    H2 5354  -0.045   4.682   0.344
 1805TIP3   OH2 5355   4.454   5.506   4.378
 1805TIP3    H1 5356   4.450   5.423   4.426
 1805TIP3    H2 5357   4.521   5.492   4.312
 1806TIP3   OH2 5358   3.267   4.834   4.705
 1806TIP3    H1 5359   3.307   4.818   4.790
 1806TIP3    H2 5360   3.305   4.768   4.647
 1807TIP3   OH2 5361   0.081   1.672   2.553
 1807TIP3    H1 5362   0.018   1.674   2.625
 1807TIP3    H2 5363   0.166   1.661   2.595
 1808TIP3   OH2 5364   1.362   4.120   5.646
 1808TIP3    H1 5365   1.449   4.161   5.641
 1808TIP3    H2 5366   1.372   4.037   5.601
 1809TIP3   OH2 5367   6.214   5.550   2.516
 1809TIP3    H1 5368   6.137   5.587   2.472
 1809TIP3    H2 5369   6.284   5.554   2.450
 1810TIP3   OH2 5370   0.982   2.871   1.851
 1810TIP3    H1 5371   1.031   2.817   1.789
 1810TIP3    H2 5372   0.978   2.819   1.931
 1811TIP3   OH2 5373   5.648   4.636   1.798
 1811TIP3    H1 5374   5.734   4.673   1.821
 1811TIP3    H2 5375   5.626   4.678   1.715
 1812TIP3   OH2 5376   2.927   5.304   6.758
 1812TIP3    H1 5377   2.910   5.259   6.841
 1812TIP3    H2 5378   2.888   5.391   6.771
 1813TIP3   OH2 5379   6.111   7.663   0.346
 1813TIP3    H1 5380   6.102   7.754   0.316
 1813TIP3    H2 5381   6.077   7.611   0.274
 1814TIP3   OH2 5382   5.468   0.253   2.440
 1814TIP3    H1 5383   5.375   0.279   2.434
 1814TIP3    H2 5384   5.497   0.248   2.349
 1815TIP3   OH2 5385   6.427   2.365   6.505
 1815TIP3    H1 5386   6.510   2.329   6.536
 1815TIP3    H2 5387   6.450   2.445   6.458
 1816TIP3   OH2 5388   0.923   1.780   0.177
 1816TIP3    H1 5389   0.947   1.865   0.213
 1816TIP3    H2 5390   0.902   1.727   0.254
 1817TIP3   OH2 5391   0.846   4.637   6.806
 1817TIP3    H1 5392   0.893   4.652   6.888
 1817TIP3    H2 5393   0.769   4.695   6.811
 1818TIP3   OH2 5394   7.605   2.238   5.980
 1818TIP3    H1 5395   7.618   2.144   5.989
 1818TIP3    H2 5396   7.647   2.260   5.897
 1819TIP3   OH2 5397   5.225   6.855   1.643
 1819TIP3    H1 5398   5.233   6.949   1.627
 1819TIP3    H2 5399   5.259   6.814   1.563
 1820TIP3   OH2 5400   7.332   5.132   3.023
 1820TIP3    H1 5401   7.291   5.136   3.110
 1820TIP3    H2 5402   7.327   5.221   2.990
 1821TIP3   OH2 5403   1.375   6.544   4.087
 1821TIP3    H1 5404   1.334   6.458   4.078
 1821TIP3    H2 5405   1.359   6.568   4.178
 1822TIP3   OH2 5406   7.512   6.407   0.440
 1822TIP3    H1 5407   7.479   6.485   0.486
 1822TIP3    H2 5408   7.467   6.334   0.483
 1823TIP3   OH2 5409   0.862   6.251   2.071
 1823TIP3    H1 5410   0.841   6.206   2.153
 1823TIP3    H2 5411   0.908   6.185   2.019
 1824TIP3   OH2 5412   3.068   7.887   5.116
 1824TIP3    H1 5413   3.125   7.932   5.053
 1824TIP3    H2 5414   3.091   7.795   5.108
 1825TIP3   OH2 5415   0.501   0.146   4.010
 1825TIP3    H1 5416   0.561   0.132   3.937
 1825TIP3    H2 5417   0.449   0.222   3.984
 1826TIP3   OH2 5418   2.404   2.220   4.004
 1826TIP3    H1 5419   2.449   2.136   4.001
 1826TIP3    H2 5420   2.449   2.270   4.072
 1827TIP3   OH2 5421   8.046   4.147   4.651
 1827TIP3    H1 5422   8.078   4.230   4.617
 1827TIP3    H2 5423   8.072   4.082   4.585
 1828TIP3   OH2 5424   2.866   1.905   0.714
 1828TIP3    H1 5425   2.952   1.882   0.679
 1828TIP3    H2 5426   2.885   1.935   0.803
 1829TIP3   OH2 5427   1.160   6.144   4.333
 1829TIP3    H1 5428   1.152   6.068   4.276
 1829TIP3    H2 5429   1.253   6.166   4.331
 1830TIP3   OH2 5430   1.048   6.661   0.108
 1830TIP3    H1 5431   0.977   6.725   0.102
 1830TIP3    H2 5432   1.027   6.610   0.186
 1831TIP3   OH2 5433   2.845   5.906   0.022
 1831TIP3    H1 5434   2.823   5.989   0.063
 1831TIP3    H2 5435   2.919   5.873   0.073
 1832TIP3   OH2 5436   7.208   7.698   4.502
 1832TIP3    H1 5437   7.289   7.694   4.554
 1832TIP3    H2 5438   7.188   7.792   4.498
 1833TIP3   OH2 5439   6.995   2.986   2.458
 1833TIP3    H1 5440   6.951   2.905   2.433
 1833TIP3    H2 5441   7.033   3.019   2.377
 1834TIP3   OH2 5442   3.060   4.846   5.285
 1834TIP3    H1 5443   3.127   4.838   5.218
 1834TIP3    H2 5444   2.977   4.831   5.239
 1835TIP3   OH2 5445   2.266   0.413   4.680
 1835TIP3    H1 5446   2.341   0.455   4.721
 1835TIP3    H2 5447   2.193   0.431   4.739
 1836TIP3   OH2 5448   2.026   6.977   0.838
 1836TIP3    H1 5449   2.036   7.069   0.814
 1836TIP3    H2 5450   1.932   6.960   0.831
 1837TIP3   OH2 5451   4.565   4.888   2.298
 1837TIP3    H1 5452   4.498   4.946   2.335
 1837TIP3    H2 5453   4.608   4.849   2.374
 1838TIP3   OH2 5454   5.457   4.083   5.057
 1838TIP3    H1 5455   5.452   3.992   5.088
 1838TIP3    H2 5456   5.537   4.117   5.098
 1839TIP3   OH2 5457   4.244   4.459   5.775
 1839TIP3    H1 5458   4.191   4.518   5.829
 1839TIP3    H2 5459   4.332   4.494   5.780
 1840TIP3   OH2 5460   0.490   5.431   0.307
 1840TIP3    H1 5461   0.503   5.358   0.369
 1840TIP3    H2 5462   0.397   5.452   0.314
 1841TIP3   OH2 5463   7.798   4.118   5.256
 1841TIP3    H1 5464   7.764   4.205   5.276
 1841TIP3    H2 5465   7.749   4.059   5.313
 1842TIP3   OH2 5466   4.025   0.803   0.768
 1842TIP3    H1 5467   4.030   0.723   0.716
 1842TIP3    H2 5468   4.090   0.861   0.728
 1843TIP3   OH2 5469   2.008   7.061   3.446
 1843TIP3    H1 5470   2.072   6.993   3.468
 1843TIP3    H2 5471   2.028   7.084   3.355
 1844TIP3   OH2 5472   5.081   0.910   0.220
 1844TIP3    H1 5473   5.027   0.948   0.290
 1844TIP3    H2 5474   5.022   0.903   0.145
 1845TIP3   OH2 5475   1.993   4.330   0.895
 1845TIP3    H1 5476   2.035   4.269   0.956
 1845TIP3    H2 5477   2.066   4.367   0.845
 1846TIP3   OH2 5478   7.397   2.226   2.563
 1846TIP3    H1 5479   7.358   2.295   2.617
 1846TIP3    H2 5480   7.350   2.146   2.589
 1847TIP3   OH2 5481   1.656   5.024   5.314
 1847TIP3    H1 5482   1.597   4.995   5.384
 1847TIP3    H2 5483   1.599   5.032   5.238
 1848TIP3   OH2 5484   4.013   1.169   3.983
 1848TIP3    H1 5485   4.029   1.086   3.937
 1848TIP3    H2 5486   4.096   1.189   4.026
 1849TIP3   OH2 5487   8.242   3.731   1.812
 1849TIP3    H1 5488   8.328   3.770   1.827
 1849TIP3    H2 5489   8.261   3.641   1.785
 1850TIP3   OH2 5490   6.964   1.975   2.444
 1850TIP3    H1 5491   7.012   1.962   2.362
 1850TIP3    H2 5492   6.977   2.068   2.464
 1851TIP3   OH2 5493   3.299   5.175   6.233
 1851TIP3    H1 5494   3.259   5.246   6.183
 1851TIP3    H2 5495   3.311   5.211   6.321
 1852TIP3   OH2 5496   7.896   6.468   1.338
 1852TIP3    H1 5497   7.863   6.557   1.331
 1852TIP3    H2 5498   7.889   6.433   1.249
 1853TIP3   OH2 5499   5.268   4.110   2.061
 1853TIP3    H1 5500   5.286   4.168   2.136
 1853TIP3    H2 5501   5.273   4.022   2.097
 1854TIP3   OH2 5502   2.924   5.466   6.269
 1854TIP3    H1 5503   2.970   5.529   6.324
 1854TIP3    H2 5504   2.993   5.416   6.225
 1855TIP3   OH2 5505   4.820   1.850   5.908
 1855TIP3    H1 5506   4.892   1.870   5.848
 1855TIP3    H2 5507   4.749   1.819   5.852
 1856TIP3   OH2 5508   6.198   7.308   6.828
 1856TIP3    H1 5509   6.246   7.283   6.749
 1856TIP3    H2 5510   6.130   7.368   6.797
 1857TIP3   OH2 5511   5.470   6.154   4.072
 1857TIP3    H1 5512   5.430   6.227   4.024
 1857TIP3    H2 5513   5.425   6.153   4.156
 1858TIP3   OH2 5514   8.059   6.963   2.793
 1858TIP3    H1 5515   7.988   6.969   2.730
 1858TIP3    H2 5516   8.025   6.908   2.864
 1859TIP3   OH2 5517   6.444   4.895   4.332
 1859TIP3    H1 5518   6.403   4.979   4.310
 1859TIP3    H2 5519   6.510   4.882   4.263
 1860TIP3   OH2 5520   6.751   4.004   3.357
 1860TIP3    H1 5521   6.826   4.061   3.374
 1860TIP3    H2 5522   6.786   3.934   3.302
 1861TIP3   OH2 5523   2.537   0.238   1.739
 1861TIP3    H1 5524   2.518   0.192   1.658
 1861TIP3    H2 5525   2.617   0.288   1.720
 1862TIP3   OH2 5526   2.402   5.173   4.973
 1862TIP3    H1 5527   2.427   5.261   5.001
 1862TIP3    H2 5528   2.405   5.175   4.878
 1863TIP3   OH2 5529   6.602   0.452   6.433
 1863TIP3    H1 5530   6.547   0.512   6.381
 1863TIP3    H2 5531   6.689   0.461   6.393
 1864TIP3   OH2 5532   7.532   1.202   0.877
 1864TIP3    H1 5533   7.565   1.204   0.967
 1864TIP3    H2 5534   7.517   1.293   0.855
 1865TIP3   OH2 5535   3.507   4.295   2.474
 1865TIP3    H1 5536   3.517   4.292   2.379
 1865TIP3    H2 5537   3.442   4.364   2.489
 1866TIP3   OH2 5538   4.288   5.173   0.214
 1866TIP3    H1 5539   4.230   5.207   0.146
 1866TIP3    H2 5540   4.321   5.090   0.179
 1867TIP3   OH2 5541   2.895   7.725   5.877
 1867TIP3    H1 5542   2.968   7.699   5.821
 1867TIP3    H2 5543   2.875   7.647   5.928
 1868TIP3   OH2 5544   3.442   7.499   5.571
 1868TIP3    H1 5545   3.461   7.449   5.651
 1868TIP3    H2 5546   3.349   7.484   5.555
 1869TIP3   OH2 5547   2.768   7.240   4.419
 1869TIP3    H1 5548   2.715   7.301   4.368
 1869TIP3    H2 5549   2.778   7.163   4.363
 1870TIP3   OH2 5550   0.090   7.547   6.646
 1870TIP3    H1 5551   0.113   7.481   6.581
 1870TIP3    H2 5552   0.111   7.507   6.730
 1871TIP3   OH2 5553   5.567   4.411   6.509
 1871TIP3    H1 5554   5.602   4.432   6.595
 1871TIP3    H2 5555   5.518   4.490   6.483
 1872TIP3   OH2 5556   0.568   2.648   3.439
 1872TIP3    H1 5557   0.551   2.713   3.371
 1872TIP3    H2 5558   0.521   2.570   3.411
 1873TIP3   OH2 5559   2.278   2.523   0.859
 1873TIP3    H1 5560   2.252   2.554   0.772
 1873TIP3    H2 5561   2.373   2.536   0.861
 1874TIP3   OH2 5562   3.788   1.363   3.287
 1874TIP3    H1 5563   3.729   1.292   3.262
 1874TIP3    H2 5564   3.871   1.342   3.246
 1875TIP3   OH2 5565   4.419   4.598   4.492
 1875TIP3    H1 5566   4.361   4.535   4.448
 1875TIP3    H2 5567   4.444   4.554   4.573
 1876TIP3   OH2 5568   5.254   5.308   0.965
 1876TIP3    H1 5569   5.311   5.295   0.889
 1876TIP3    H2 5570   5.314   5.337   1.035
 1877TIP3   OH2 5571   5.796   4.512   4.720
 1877TIP3    H1 5572   5.790   4.552   4.634
 1877TIP3    H2 5573   5.882   4.470   4.721
 1878TIP3   OH2 5574   7.706   0.997   5.962
 1878TIP3    H1 5575   7.763   0.988   6.038
 1878TIP3    H2 5576   7.628   1.040   5.996
 1879TIP3   OH2 5577   8.337   2.093   2.515
 1879TIP3    H1 5578   8.244   2.109   2.530
 1879TIP3    H2 5579   8.370   2.177   2.483
 1880TIP3   OH2 5580   2.642   1.331   0.193
 1880TIP3    H1 5581   2.716   1.383   0.161
 1880TIP3    H2 5582   2.613   1.282   0.116
 1881TIP3   OH2 5583   2.602   6.101   6.236
 1881TIP3    H1 5584   2.513   6.115   6.204
 1881TIP3    H2 5585   2.609   6.006   6.244
 1882TIP3   OH2 5586   2.732   2.280   1.629
 1882TIP3    H1 5587   2.793   2.247   1.695
 1882TIP3    H2 5588   2.710   2.368   1.658
 1883TIP3   OH2 5589   5.237   3.706   2.438
 1883TIP3    H1 5590   5.332   3.710   2.449
 1883TIP3    H2 5591   5.203   3.702   2.528
 1884TIP3   OH2 5592   2.780   6.298   0.743
 1884TIP3    H1 5593   2.750   6.354   0.672
 1884TIP3    H2 5594   2.872   6.322   0.755
 1885TIP3   OH2 5595   7.667   0.941   2.921
 1885TIP3    H1 5596   7.748   0.937   2.972
 1885TIP3    H2 5597   7.630   0.853   2.929
 1886TIP3   OH2 5598   0.533   6.105   4.138
 1886TIP3    H1 5599   0.439   6.103   4.120
 1886TIP3    H2 5600   0.555   6.016   4.163
 1887TIP3   OH2 5601   3.963   7.595   4.974
 1887TIP3    H1 5602   3.875   7.624   4.949
 1887TIP3    H2 5603   3.971   7.620   5.066
 1888TIP3   OH2 5604   1.896   3.288   4.079
 1888TIP3    H1 5605   1.963   3.262   4.143
 1888TIP3    H2 5606   1.942   3.288   3.995
 1889TIP3   OH2 5607   7.824   4.071   6.595
 1889TIP3    H1 5608   7.857   4.035   6.512
 1889TIP3    H2 5609   7.868   4.156   6.603
 1890TIP3   OH2 5610   1.078   1.833   6.175
 1890TIP3    H1 5611   1.004   1.827   6.235
 1890TIP3    H2 5612   1.083   1.747   6.134
 1891TIP3   OH2 5613   4.574   3.543   0.068
 1891TIP3    H1 5614   4.566   3.521   0.161
 1891TIP3    H2 5615   4.602   3.634   0.068
 1892TIP3   OH2 5616   4.965   3.654   0.498
 1892TIP3    H1 5617   4.921   3.718   0.442
 1892TIP3    H2 5618   5.037   3.703   0.538
 1893TIP3   OH2 5619   6.930   6.803   6.346
 1893TIP3    H1 5620   6.906   6.877   6.400
 1893TIP3    H2 5621   7.016   6.776   6.377
 1894TIP3   OH2 5622   2.311   0.864   3.904
 1894TIP3    H1 5623   2.255   0.841   3.830
 1894TIP3    H2 5624   2.356   0.944   3.877
 1895TIP3   OH2 5625   5.144   0.708   4.245
 1895TIP3    H1 5626   5.200   0.779   4.215
 1895TIP3    H2 5627   5.201   0.631   4.244
 1896TIP3   OH2 5628   0.772   3.811   3.625
 1896TIP3    H1 5629   0.827   3.889   3.627
 1896TIP3    H2 5630   0.768   3.786   3.533
 1897TIP3   OH2 5631   4.395   7.833   1.427
 1897TIP3    H1 5632   4.337   7.855   1.499
 1897TIP3    H2 5633   4.451   7.763   1.462
 1898TIP3   OH2 5634   2.894   1.567   3.993
 1898TIP3    H1 5635   2.888   1.648   3.942
 1898TIP3    H2 5636   2.908   1.597   4.083
 1899TIP3   OH2 5637   6.396   1.335   4.948
 1899TIP3    H1 5638   6.387   1.311   4.856
 1899TIP3    H2 5639   6.352   1.420   4.955
 1900TIP3   OH2 5640   7.585   2.028   1.091
 1900TIP3    H1 5641   7.619   2.083   1.161
 1900TIP3    H2 5642   7.664   1.994   1.047
 1901TIP3   OH2 5643   4.935   1.965   1.165
 1901TIP3    H1 5644   5.016   1.955   1.216
 1901TIP3    H2 5645   4.889   2.037   1.208
 1902TIP3   OH2 5646   1.333   6.737   4.690
 1902TIP3    H1 5647   1.408   6.765   4.637
 1902TIP3    H2 5648   1.367   6.664   4.742
 1903TIP3   OH2 5649   0.442   0.858   3.714
 1903TIP3    H1 5650   0.374   0.818   3.660
 1903TIP3    H2 5651   0.491   0.784   3.750
 1904TIP3   OH2 5652   6.802   4.489   2.619
 1904TIP3    H1 5653   6.791   4.430   2.545
 1904TIP3    H2 5654   6.714   4.497   2.657
 1905TIP3   OH2 5655   2.588   3.824   0.622
 1905TIP3    H1 5656   2.670   3.865   0.648
 1905TIP3    H2 5657   2.559   3.874   0.546
 1906TIP3   OH2 5658   4.741   7.625   3.304
 1906TIP3    H1 5659   4.827   7.640   3.342
 1906TIP3    H2 5660   4.753   7.549   3.247
 1907TIP3   OH2 5661   6.594   4.124   1.641
 1907TIP3    H1 5662   6.580   4.097   1.732
 1907TIP3    H2 5663   6.510   4.164   1.615
 1908TIP3   OH2 5664   0.457   3.102   3.106
 1908TIP3    H1 5665   0.426   3.140   3.024
 1908TIP3    H2 5666   0.390   3.125   3.170
 1909TIP3   OH2 5667   4.657   2.088   3.331
 1909TIP3    H1 5668   4.705   2.089   3.414
 1909TIP3    H2 5669   4.570   2.054   3.353
 1910TIP3   OH2 5670   6.116   5.777   4.554
 1910TIP3    H1 5671   6.168   5.714   4.504
 1910TIP3    H2 5672   6.128   5.860   4.507
 1911TIP3   OH2 5673   5.375   0.648   5.776
 1911TIP3    H1 5674   5.345   0.717   5.836
 1911TIP3    H2 5675   5.441   0.692   5.722
 1912TIP3   OH2 5676   0.596   0.189   6.135
 1912TIP3    H1 5677   0.616   0.151   6.050
 1912TIP3    H2 5678   0.658   0.148   6.195
 1913TIP3   OH2 5679   2.323   1.486   0.253
 1913TIP3    H1 5680   2.363   1.565   0.217
 1913TIP3    H2 5681   2.264   1.455   0.185
 1914TIP3   OH2 5682   6.438   3.230   4.503
 1914TIP3    H1 5683   6.349   3.206   4.477
 1914TIP3    H2 5684   6.491   3.155   4.478
 1915TIP3   OH2 5685   2.489   3.872   6.076
 1915TIP3    H1 5686   2.570   3.878   6.026
 1915TIP3    H2 5687   2.423   3.844   6.013
 1916TIP3   OH2 5688   6.917   2.658   6.592
 1916TIP3    H1 5689   6.825   2.681   6.580
 1916TIP3    H2 5690   6.958   2.680   6.509
 1917TIP3   OH2 5691   3.973   1.166   2.112
 1917TIP3    H1 5692   3.955   1.072   2.119
 1917TIP3    H2 5693   3.888   1.208   2.121
 1918TIP3   OH2 5694   7.242   7.478   3.040
 1918TIP3    H1 5695   7.179   7.405   3.044
 1918TIP3    H2 5696   7.270   7.489   3.131
 1919TIP3   OH2 5697   0.275   5.231   1.949
 1919TIP3    H1 5698   0.194   5.184   1.969
 1919TIP3    H2 5699   0.334   5.211   2.022
 1920TIP3   OH2 5700   1.602   5.681   3.475
 1920TIP3    H1 5701   1.519   5.647   3.510
 1920TIP3    H2 5702   1.665   5.611   3.489
 1921TIP3   OH2 5703   2.177   6.529   2.977
 1921TIP3    H1 5704   2.195   6.435   2.976
 1921TIP3    H2 5705   2.120   6.544   2.901
 1922TIP3   OH2 5706   1.943   3.494   4.898
 1922TIP3    H1 5707   2.025   3.520   4.857
 1922TIP3    H2 5708   1.906   3.428   4.838
 1923TIP3   OH2 5709   4.665   3.976   4.241
 1923TIP3    H1 5710   4.585   4.007   4.283
 1923TIP3    H2 5711   4.734   4.033   4.275
 1924TIP3   OH2 5712   0.569   3.998   4.484
 1924TIP3    H1 5713   0.629   4.030   4.551
 1924TIP3    H2 5714   0.626   3.967   4.414
 1925TIP3   OH2 5715   7.080   5.766   6.759
 1925TIP3    H1 5716   7.070   5.808   6.845
 1925TIP3    H2 5717   7.161   5.716   6.767
 1926TIP3   OH2 5718   7.341   3.931   6.758
 1926TIP3    H1 5719   7.411   3.928   6.693
 1926TIP3    H2 5720   7.301   4.017   6.746
 1927TIP3   OH2 5721   0.033   3.878   5.567
 1927TIP3    H1 5722   0.084   3.933   5.507
 1927TIP3    H2 5723   0.098   3.830   5.617
 1928TIP3   OH2 5724   2.955   7.656   4.336
 1928TIP3    H1 5725   3.032   7.599   4.330
 1928TIP3    H2 5726   2.949   7.679   4.429
 1929TIP3   OH2 5727   6.243   0.444   1.932
 1929TIP3    H1 5728   6.226   0.458   1.838
 1929TIP3    H2 5729   6.312   0.378   1.933
 1930TIP3   OH2 5730   3.637   2.054   0.045
 1930TIP3    H1 5731   3.712   2.008   0.082
 1930TIP3    H2 5732   3.582   1.985   0.008
 1931TIP3   OH2 5733   7.846   0.080   4.487
 1931TIP3    H1 5734   7.757   0.113   4.478
 1931TIP3    H2 5735   7.847  -0.002   4.437
 1932TIP3   OH2 5736   2.921   5.273   2.561
 1932TIP3    H1 5737   2.903   5.251   2.469
 1932TIP3    H2 5738   2.897   5.194   2.609
 1933TIP3   OH2 5739   3.273   5.730   3.480
 1933TIP3    H1 5740   3.187   5.719   3.438
 1933TIP3    H2 5741   3.334   5.740   3.406
 1934TIP3   OH2 5742   5.712   4.497   3.652
 1934TIP3    H1 5743   5.747   4.492   3.741
 1934TIP3    H2 5744   5.695   4.406   3.628
 1935TIP3   OH2 5745   0.801   5.036   1.368
 1935TIP3    H1 5746   0.768   5.078   1.288
 1935TIP3    H2 5747   0.879   5.086   1.391
 1936TIP3   OH2 5748   7.400   1.405   0.640
 1936TIP3    H1 5749   7.375   1.484   0.593
 1936TIP3    H2 5750   7.320   1.378   0.686
 1937TIP3   OH2 5751   0.057   5.591   2.238
 1937TIP3    H1 5752   0.113   5.658   2.276
 1937TIP3    H2 5753  -0.031   5.612   2.269
 1938TIP3   OH2 5754   6.061   2.835   3.431
 1938TIP3    H1 5755   5.985   2.795   3.389
 1938TIP3    H2 5756   6.116   2.866   3.359
 1939TIP3   OH2 5757   3.258   1.389   2.070
 1939TIP3    H1 5758   3.165   1.408   2.078
 1939TIP3    H2 5759   3.264   1.294   2.079
 1940TIP3   OH2 5760   8.331   5.434   2.052
 1940TIP3    H1 5761   8.412   5.484   2.065
 1940TIP3    H2 5762   8.321   5.383   2.133
 1941TIP3   OH2 5763   1.050   3.546   2.402
 1941TIP3    H1 5764   1.103   3.626   2.409
 1941TIP3    H2 5765   1.002   3.542   2.484
 1942TIP3   OH2 5766   3.511   2.292   3.019
 1942TIP3    H1 5767   3.418   2.312   3.032
 1942TIP3    H2 5768   3.543   2.366   2.967
 1943TIP3   OH2 5769   8.155   1.497   2.991
 1943TIP3    H1 5770   8.080   1.549   3.020
 1943TIP3    H2 5771   8.117   1.427   2.939
 1944TIP3   OH2 5772   7.516   5.063   5.875
 1944TIP3    H1 5773   7.462   5.067   5.795
 1944TIP3    H2 5774   7.576   5.137   5.867
 1945TIP3   OH2 5775   0.753   6.114   1.131
 1945TIP3    H1 5776   0.846   6.114   1.110
 1945TIP3    H2 5777   0.716   6.045   1.075
 1946TIP3   OH2 5778   5.446   3.449   0.521
 1946TIP3    H1 5779   5.477   3.481   0.606
 1946TIP3    H2 5780   5.464   3.355   0.522
 1947TIP3   OH2 5781   1.568   5.810   2.908
 1947TIP3    H1 5782   1.657   5.794   2.938
 1947TIP3    H2 5783   1.514   5.798   2.986
 1948TIP3   OH2 5784   6.623   2.517   2.293
 1948TIP3    H1 5785   6.530   2.508   2.275
 1948TIP3    H2 5786   6.640   2.611   2.284
 1949TIP3   OH2 5787   5.480   5.865   0.294
 1949TIP3    H1 5788   5.458   5.935   0.356
 1949TIP3    H2 5789   5.539   5.807   0.343
 1950TIP3   OH2 5790   0.625   6.940   4.948
 1950TIP3    H1 5791   0.627   6.846   4.968
 1950TIP3    H2 5792   0.651   6.983   5.029
 1951TIP3   OH2 5793   3.192   4.240   1.592
 1951TIP3    H1 5794   3.287   4.250   1.582
 1951TIP3    H2 5795   3.182   4.182   1.667
 1952TIP3   OH2 5796   6.559   4.757   1.080
 1952TIP3    H1 5797   6.568   4.828   1.144
 1952TIP3    H2 5798   6.484   4.707   1.110
 1953TIP3   OH2 5799   4.777   7.399   0.791
 1953TIP3    H1 5800   4.847   7.354   0.838
 1953TIP3    H2 5801   4.822   7.456   0.729
 1954TIP3   OH2 5802   6.575   4.958   2.317
 1954TIP3    H1 5803   6.586   4.863   2.328
 1954TIP3    H2 5804   6.511   4.982   2.384
 1955TIP3   OH2 5805   4.134   5.908   0.475
 1955TIP3    H1 5806   4.227   5.894   0.494
 1955TIP3    H2 5807   4.094   5.822   0.484
 1956TIP3   OH2 5808   4.420   0.986   1.494
 1956TIP3    H1 5809   4.333   1.024   1.507
 1956TIP3    H2 5810   4.410   0.895   1.520
 1957TIP3   OH2 5811   5.292   0.265   6.237
 1957TIP3    H1 5812   5.270   0.330   6.169
 1957TIP3    H2 5813   5.233   0.191   6.218
 1958TIP3   OH2 5814   5.647   2.310   2.949
 1958TIP3    H1 5815   5.585   2.238   2.965
 1958TIP3    H2 5816   5.729   2.266   2.926
 1959TIP3   OH2 5817   1.230   0.947   1.433
 1959TIP3    H1 5818   1.312   0.900   1.418
 1959TIP3    H2 5819   1.163   0.892   1.394
 1960TIP3   OH2 5820   1.672   1.308   6.367
 1960TIP3    H1 5821   1.654   1.324   6.459
 1960TIP3    H2 5822   1.646   1.217   6.352
 1961TIP3   OH2 5823   0.988   0.398   3.314
 1961TIP3    H1 5824   0.930   0.411   3.389
 1961TIP3    H2 5825   1.037   0.319   3.335
 1962TIP3   OH2 5826   3.135   3.679   5.419
 1962TIP3    H1 5827   3.222   3.678   5.460
 1962TIP3    H2 5828   3.143   3.618   5.346
 1963TIP3   OH2 5829   0.700   7.507   2.067
 1963TIP3    H1 5830   0.719   7.508   1.973
 1963TIP3    H2 5831   0.744   7.429   2.099
 1964TIP3   OH2 5832   1.185   1.995   1.058
 1964TIP3    H1 5833   1.115   2.058   1.038
 1964TIP3    H2 5834   1.225   2.029   1.138
 1965TIP3   OH2 5835   4.931   7.106   4.464
 1965TIP3    H1 5836   4.999   7.172   4.473
 1965TIP3    H2 5837   4.912   7.078   4.553
 1966TIP3   OH2 5838   2.949   4.681   0.144
 1966TIP3    H1 5839   2.878   4.674   0.081
 1966TIP3    H2 5840   2.995   4.597   0.137
 1967TIP3   OH2 5841   6.169   1.107   2.971
 1967TIP3    H1 5842   6.155   1.171   2.901
 1967TIP3    H2 5843   6.149   1.023   2.930
 1968TIP3   OH2 5844   8.301   3.705   2.422
 1968TIP3    H1 5845   8.384   3.701   2.376
 1968TIP3    H2 5846   8.235   3.696   2.354
 1969TIP3   OH2 5847   5.642   4.860   5.080
 1969TIP3    H1 5848   5.602   4.772   5.075
 1969TIP3    H2 5849   5.571   4.916   5.113
 1970TIP3   OH2 5850   1.063   3.383   2.200
 1970TIP3    H1 5851   1.055   3.441   2.276
 1970TIP3    H2 5852   1.154   3.393   2.172
 1971TIP3   OH2 5853   5.665   3.742   6.798
 1971TIP3    H1 5854   5.700   3.736   6.887
 1971TIP3    H2 5855   5.703   3.668   6.752
 1972TIP3   OH2 5856   7.306   2.157   0.378
 1972TIP3    H1 5857   7.277   2.099   0.448
 1972TIP3    H2 5858   7.230   2.212   0.359
 1973TIP3   OH2 5859   3.593   3.005   6.699
 1973TIP3    H1 5860   3.658   2.948   6.739
 1973TIP3    H2 5861   3.593   2.981   6.606
 1974TIP3   OH2 5862   5.461   1.656   3.980
 1974TIP3    H1 5863   5.487   1.742   4.015
 1974TIP3    H2 5864   5.442   1.673   3.888
 1975TIP3   OH2 5865   1.774   0.926   1.264
 1975TIP3    H1 5866   1.730   0.911   1.180
 1975TIP3    H2 5867   1.759   0.847   1.314
 1976TIP3   OH2 5868   3.735   2.401   1.552
 1976TIP3    H1 5869   3.678   2.440   1.618
 1976TIP3    H2 5870   3.701   2.436   1.469
 1977TIP3   OH2 5871   2.721   4.813   3.840
 1977TIP3    H1 5872   2.800   4.759   3.850
 1977TIP3    H2 5873   2.662   4.760   3.786
 1978TIP3   OH2 5874   2.698   0.430   6.782
 1978TIP3    H1 5875   2.722   0.520   6.760
 1978TIP3    H2 5876   2.779   0.391   6.815
 1979TIP3   OH2 5877   1.332   6.399   2.245
 1979TIP3    H1 5878   1.292   6.485   2.262
 1979TIP3    H2 5879   1.280   6.338   2.297
 1980TIP3   OH2 5880   5.552   0.345   0.410
 1980TIP3    H1 5881   5.518   0.291   0.481
 1980TIP3    H2 5882   5.588   0.282   0.347
 1981TIP3   OH2 5883   6.864   5.049   5.049
 1981TIP3    H1 5884   6.907   4.988   5.109
 1981TIP3    H2 5885   6.780   5.008   5.027
 1982TIP3   OH2 5886   0.269   0.820   2.458
 1982TIP3    H1 5887   0.226   0.888   2.406
 1982TIP3    H2 5888   0.302   0.758   2.393
 1983TIP3   OH2 5889   2.632   4.325   2.051
 1983TIP3    H1 5890   2.617   4.368   1.967
 1983TIP3    H2 5891   2.570   4.367   2.111
 1984TIP3   OH2 5892   0.434   4.051   3.841
 1984TIP3    H1 5893   0.397   4.023   3.925
 1984TIP3    H2 5894   0.421   3.976   3.783
 1985TIP3   OH2 5895   2.566   0.548   2.259
 1985TIP3    H1 5896   2.608   0.626   2.295
 1985TIP3    H2 5897   2.543   0.495   2.335
 1986TIP3   OH2 5898   4.815   7.402   1.454
 1986TIP3    H1 5899   4.779   7.446   1.531
 1986TIP3    H2 5900   4.776   7.315   1.456
 1987TIP3   OH2 5901   4.714   4.268   6.529
 1987TIP3    H1 5902   4.718   4.297   6.439
 1987TIP3    H2 5903   4.692   4.347   6.579
 1988TIP3   OH2 5904   6.440   1.145   5.275
 1988TIP3    H1 5905   6.497   1.092   5.331
 1988TIP3    H2 5906   6.488   1.151   5.192
 1989TIP3   OH2 5907   2.542   4.954   2.920
 1989TIP3    H1 5908   2.574   5.033   2.877
 1989TIP3    H2 5909   2.598   4.884   2.887
 1990TIP3   OH2 5910   8.107   6.302   6.327
 1990TIP3    H1 5911   8.128   6.272   6.238
 1990TIP3    H2 5912   8.154   6.241   6.384
 1991TIP3   OH2 5913   0.041   3.452   0.646
 1991TIP3    H1 5914   0.085   3.442   0.561
 1991TIP3    H2 5915  -0.023   3.522   0.631
 1992TIP3   OH2 5916   8.332   5.157   5.023
 1992TIP3    H1 5917   8.414   5.194   5.056
 1992TIP3    H2 5918   8.322   5.196   4.936
 1993TIP3   OH2 5919   0.097   1.957   4.922
 1993TIP3    H1 5920   0.060   1.870   4.905
 1993TIP3    H2 5921   0.128   1.952   5.013
 1994TIP3   OH2 5922   0.973   6.385   4.296
 1994TIP3    H1 5923   1.041   6.317   4.296
 1994TIP3    H2 5924   0.926   6.371   4.378
 1995TIP3   OH2 5925   1.429   0.634   2.323
 1995TIP3    H1 5926   1.444   0.542   2.302
 1995TIP3    H2 5927   1.409   0.675   2.238
 1996TIP3   OH2 5928   4.965   4.743   0.667
 1996TIP3    H1 5929   4.909   4.801   0.719
 1996TIP3    H2 5930   5.011   4.802   0.608
 1997TIP3   OH2 5931   6.882   6.016   2.496
 1997TIP3    H1 5932   6.805   5.967   2.525
 1997TIP3    H2 5933   6.853   6.107   2.495
 1998TIP3   OH2 5934   4.549   0.623   6.105
 1998TIP3    H1 5935   4.619   0.558   6.103
 1998TIP3    H2 5936   4.513   0.617   6.194
 1999TIP3   OH2 5937   0.085   4.605   1.857
 1999TIP3    H1 5938   0.062   4.653   1.778
 1999TIP3    H2 5939   0.157   4.654   1.896
 2000TIP3   OH2 5940   4.814   3.211   0.886
 2000TIP3    H1 5941   4.755   3.163   0.945
 2000TIP3    H2 5942   4.902   3.193   0.920
 2001TIP3   OH2 5943   3.428   6.116   3.469
 2001TIP3    H1 5944   3.513   6.077   3.489
 2001TIP3    H2 5945   3.400   6.156   3.551
 2002TIP3   OH2 5946   7.581   7.142   2.452
 2002TIP3    H1 5947   7.537   7.066   2.414
 2002TIP3    H2 5948   7.621   7.109   2.533
 2003TIP3   OH2 5949   0.076   0.463   2.358
 2003TIP3    H1 5950   0.169   0.482   2.343
 2003TIP3    H2 5951   0.035   0.549   2.369
 2004TIP3   OH2 5952   7.081   1.893   5.818
 2004TIP3    H1 5953   7.027   1.894   5.897
 2004TIP3    H2 5954   7.034   1.949   5.756
 2005TIP3   OH2 5955   1.441   5.384   2.218
 2005TIP3    H1 5956   1.411   5.473   2.236
 2005TIP3    H2 5957   1.388   5.356   2.143
 2006TIP3   OH2 5958   0.934   1.032   4.341
 2006TIP3    H1 5959   0.892   0.973   4.278
 2006TIP3    H2 5960   0.926   1.119   4.301
 2007TIP3   OH2 5961   7.329   4.717   0.076
 2007TIP3    H1 5962   7.345   4.763  -0.006
 2007TIP3    H2 5963   7.235   4.725   0.090
 2008TIP3   OH2 5964   6.568   3.318   6.644
 2008TIP3    H1 5965   6.549   3.225   6.641
 2008TIP3    H2 5966   6.627   3.334   6.570
 2009TIP3   OH2 5967   4.512   1.877   2.176
 2009TIP3    H1 5968   4.527   1.963   2.216
 2009TIP3    H2 5969   4.422   1.881   2.143
 2010TIP3   OH2 5970   2.701   1.803   3.010
 2010TIP3    H1 5971   2.766   1.805   3.081
 2010TIP3    H2 5972   2.620   1.835   3.051
 2011TIP3   OH2 5973   5.458   0.946   3.465
 2011TIP3    H1 5974   5.363   0.949   3.465
 2011TIP3    H2 5975   5.481   0.903   3.548
 2012TIP3   OH2 5976   0.362   3.277   6.801
 2012TIP3    H1 5977   0.289   3.253   6.858
 2012TIP3    H2 5978   0.440   3.270   6.856
 2013TIP3   OH2 5979   3.253   4.898   3.479
 2013TIP3    H1 5980   3.291   4.976   3.519
 2013TIP3    H2 5981   3.285   4.825   3.532
 2014TIP3   OH2 5982   2.696   6.574   6.000
 2014TIP3    H1 5983   2.712   6.614   5.914
 2014TIP3    H2 5984   2.749   6.625   6.061
 2015TIP3   OH2 5985   3.657   6.722   3.152
 2015TIP3    H1 5986   3.586   6.771   3.111
 2015TIP3    H2 5987   3.615   6.675   3.224
 2016TIP3   OH2 5988   4.397   7.707   6.748
 2016TIP3    H1 5989   4.383   7.655   6.669
 2016TIP3    H2 5990   4.388   7.798   6.720
 2017TIP3   OH2 5991   6.777   0.616   0.039
 2017TIP3    H1 5992   6.691   0.634   0.079
 2017TIP3    H2 5993   6.833   0.686   0.072
 2018TIP3   OH2 5994   6.624   6.630   6.539
 2018TIP3    H1 5995   6.687   6.571   6.497
 2018TIP3    H2 5996   6.613   6.595   6.627
 2019TIP3   OH2 5997   7.128   0.481   4.756
 2019TIP3    H1 5998   7.076   0.530   4.691
 2019TIP3    H2 5999   7.188   0.428   4.703
 2020TIP3   OH2 6000   4.488   1.333   5.150
 2020TIP3    H1 6001   4.518   1.334   5.241
 2020TIP3    H2 6002   4.393   1.345   5.157
 2021TIP3   OH2 6003   5.197   4.464   3.872
 2021TIP3    H1 6004   5.155   4.380   3.853
 2021TIP3    H2 6005   5.277   4.464   3.819
 2022TIP3   OH2 6006   1.426   3.578   3.415
 2022TIP3    H1 6007   1.451   3.491   3.384
 2022TIP3    H2 6008   1.389   3.562   3.502
 2023TIP3   OH2 6009   0.794   1.934   4.279
 2023TIP3    H1 6010   0.771   2.027   4.274
 2023TIP3    H2 6011   0.717   1.888   4.246
 2024TIP3   OH2 6012   0.849   3.245   2.313
 2024TIP3    H1 6013   0.897   3.166   2.337
 2024TIP3    H2 6014   0.910   3.295   2.259
 2025TIP3   OH2 6015   3.668   2.729   6.157
 2025TIP3    H1 6016   3.735   2.798   6.159
 2025TIP3    H2 6017   3.712   2.652   6.193
 2026TIP3   OH2 6018   4.609   2.324   2.238
 2026TIP3    H1 6019   4.575   2.406   2.201
 2026TIP3    H2 6020   4.548   2.257   2.207
 2027TIP3   OH2 6021   2.857   7.828   5.289
 2027TIP3    H1 6022   2.875   7.821   5.195
 2027TIP3    H2 6023   2.809   7.910   5.298
 2028TIP3   OH2 6024   7.412   0.839   1.225
 2028TIP3    H1 6025   7.428   0.909   1.289
 2028TIP3    H2 6026   7.499   0.815   1.194
 2029TIP3   OH2 6027   4.244   0.069   2.639
 2029TIP3    H1 6028   4.173   0.112   2.590
 2029TIP3    H2 6029   4.262  -0.011   2.590
 2030TIP3   OH2 6030   8.035   5.401   6.651
 2030TIP3    H1 6031   8.117   5.435   6.688
 2030TIP3    H2 6032   7.979   5.478   6.640
 2031TIP3   OH2 6033   3.423   3.777   4.692
 2031TIP3    H1 6034   3.435   3.722   4.615
 2031TIP3    H2 6035   3.404   3.864   4.657
 2032TIP3   OH2 6036   2.965   5.557   2.573
 2032TIP3    H1 6037   2.937   5.467   2.587
 2032TIP3    H2 6038   3.017   5.579   2.650
 2033TIP3   OH2 6039   4.125   3.212   4.390
 2033TIP3    H1 6040   4.104   3.290   4.442
 2033TIP3    H2 6041   4.209   3.181   4.425
 2034TIP3   OH2 6042   4.649   1.281   4.177
 2034TIP3    H1 6043   4.707   1.206   4.176
 2034TIP3    H2 6044   4.561   1.244   4.169
 2035TIP3   OH2 6045   7.289   1.673   1.349
 2035TIP3    H1 6046   7.311   1.765   1.364
 2035TIP3    H2 6047   7.292   1.662   1.254
 2036TIP3   OH2 6048   2.749   4.426   0.208
 2036TIP3    H1 6049   2.833   4.389   0.182
 2036TIP3    H2 6050   2.687   4.354   0.199
 2037TIP3   OH2 6051   5.073   2.794   3.682
 2037TIP3    H1 6052   5.020   2.772   3.758
 2037TIP3    H2 6053   5.128   2.717   3.668
 2038TIP3   OH2 6054   8.112   7.222   5.293
 2038TIP3    H1 6055   8.179   7.285   5.266
 2038TIP3    H2 6056   8.114   7.225   5.389
 2039TIP3   OH2 6057   4.855   0.659   2.710
 2039TIP3    H1 6058   4.884   0.605   2.783
 2039TIP3    H2 6059   4.765   0.630   2.693
 2040TIP3   OH2 6060   8.258   4.938   1.569
 2040TIP3    H1 6061   8.182   4.926   1.512
 2040TIP3    H2 6062   8.252   5.029   1.599
 2041TIP3   OH2 6063   3.597   6.609   4.453
 2041TIP3    H1 6064   3.641   6.684   4.413
 2041TIP3    H2 6065   3.646   6.592   4.533
 2042TIP3   OH2 6066   1.245   5.439   0.872
 2042TIP3    H1 6067   1.225   5.507   0.807
 2042TIP3    H2 6068   1.177   5.449   0.939
 2043TIP3   OH2 6069   5.043   1.110   3.303
 2043TIP3    H1 6070   5.028   1.081   3.213
 2043TIP3    H2 6071   5.083   1.196   3.294
 2044TIP3   OH2 6072   3.553   5.094   6.279
 2044TIP3    H1 6073   3.575   5.185   6.299
 2044TIP3    H2 6074   3.466   5.098   6.241
 2045TIP3   OH2 6075   3.345   2.762   0.903
 2045TIP3    H1 6076   3.366   2.853   0.925
 2045TIP3    H2 6077   3.416   2.711   0.941
 2046TIP3   OH2 6078   6.454   6.315   4.055
 2046TIP3    H1 6079   6.374   6.357   4.085
 2046TIP3    H2 6080   6.521   6.339   4.119
 2047TIP3   OH2 6081   7.377   6.326   1.264
 2047TIP3    H1 6082   7.364   6.399   1.325
 2047TIP3    H2 6083   7.450   6.277   1.303
 2048TIP3   OH2 6084   7.438   4.457   5.795
 2048TIP3    H1 6085   7.394   4.521   5.851
 2048TIP3    H2 6086   7.523   4.442   5.837
 2049TIP3   OH2 6087   0.939   1.738   6.754
 2049TIP3    H1 6088   0.916   1.759   6.844
 2049TIP3    H2 6089   1.029   1.708   6.758
 2050TIP3   OH2 6090   2.760   3.012   5.393
 2050TIP3    H1 6091   2.761   2.998   5.298
 2050TIP3    H2 6092   2.814   2.941   5.428
 2051TIP3   OH2 6093   0.046   7.467   2.605
 2051TIP3    H1 6094  -0.012   7.507   2.669
 2051TIP3    H2 6095   0.129   7.514   2.615
 2052TIP3   OH2 6096   5.638   1.199   2.587
 2052TIP3    H1 6097   5.709   1.147   2.625
 2052TIP3    H2 6098   5.627   1.164   2.498
 2053TIP3   OH2 6099   1.920   3.118   5.353
 2053TIP3    H1 6100   1.969   3.082   5.427
 2053TIP3    H2 6101   1.958   3.204   5.338
 2054TIP3   OH2 6102   5.969   2.312   3.996
 2054TIP3    H1 6103   6.036   2.372   4.030
 2054TIP3    H2 6104   5.942   2.351   3.913
 2055TIP3   OH2 6105   5.618   6.854   6.719
 2055TIP3    H1 6106   5.554   6.875   6.786
 2055TIP3    H2 6107   5.672   6.785   6.757
 2056TIP3   OH2 6108   5.945   6.484   5.953
 2056TIP3    H1 6109   5.960   6.548   5.883
 2056TIP3    H2 6110   6.019   6.424   5.948
 2057TIP3   OH2 6111   4.039   7.802   6.361
 2057TIP3    H1 6112   4.095   7.756   6.298
 2057TIP3    H2 6113   4.040   7.893   6.331
 2058TIP3   OH2 6114   8.264   4.436   3.095
 2058TIP3    H1 6115   8.230   4.517   3.055
 2058TIP3    H2 6116   8.234   4.441   3.186
 2059TIP3   OH2 6117   0.079   4.086   0.864
 2059TIP3    H1 6118   0.050   3.999   0.836
 2059TIP3    H2 6119   0.173   4.076   0.881
 2060TIP3   OH2 6120   0.461   4.431   3.555
 2060TIP3    H1 6121   0.522   4.369   3.596
 2060TIP3    H2 6122   0.509   4.514   3.554
 2061TIP3   OH2 6123   6.991   5.214   0.628
 2061TIP3    H1 6124   6.983   5.217   0.723
 2061TIP3    H2 6125   7.033   5.297   0.604
 2062TIP3   OH2 6126   1.060   0.617   0.146
 2062TIP3    H1 6127   1.134   0.556   0.148
 2062TIP3    H2 6128   0.983   0.561   0.142
 2063TIP3   OH2 6129   3.525   7.147   4.037
 2063TIP3    H1 6130   3.526   7.236   4.004
 2063TIP3    H2 6131   3.438   7.114   4.015
 2064TIP3   OH2 6132   6.054   1.953   2.799
 2064TIP3    H1 6133   6.027   1.932   2.710
 2064TIP3    H2 6134   6.019   2.041   2.815
 2065TIP3   OH2 6135   4.586   5.758   1.761
 2065TIP3    H1 6136   4.657   5.817   1.736
 2065TIP3    H2 6137   4.630   5.675   1.780
 2066TIP3   OH2 6138   0.581   5.502   0.995
 2066TIP3    H1 6139   0.647   5.529   1.059
 2066TIP3    H2 6140   0.609   5.543   0.913
 2067TIP3   OH2 6141   2.534   1.943   1.705
 2067TIP3    H1 6142   2.501   1.866   1.751
 2067TIP3    H2 6143   2.544   2.010   1.773
 2068TIP3   OH2 6144   1.801   4.364   5.544
 2068TIP3    H1 6145   1.811   4.459   5.536
 2068TIP3    H2 6146   1.843   4.343   5.627
 2069TIP3   OH2 6147   4.112   3.325   1.309
 2069TIP3    H1 6148   4.204   3.341   1.330
 2069TIP3    H2 6149   4.063   3.386   1.364
 2070TIP3   OH2 6150   5.112   7.336   4.488
 2070TIP3    H1 6151   5.176   7.304   4.424
 2070TIP3    H2 6152   5.165   7.382   4.554
 2071TIP3   OH2 6153   2.875   0.743   2.627
 2071TIP3    H1 6154   2.785   0.710   2.624
 2071TIP3    H2 6155   2.911   0.723   2.541
 2072TIP3   OH2 6156   5.471   6.650   2.004
 2072TIP3    H1 6157   5.391   6.631   1.955
 2072TIP3    H2 6158   5.444   6.713   2.071
 2073TIP3   OH2 6159   6.566   6.475   0.032
 2073TIP3    H1 6160   6.517   6.405   0.074
 2073TIP3    H2 6161   6.657   6.459   0.057
 2074TIP3   OH2 6162   1.623   1.281   0.402
 2074TIP3    H1 6163   1.657   1.299   0.490
 2074TIP3    H2 6164   1.568   1.203   0.414
 2075TIP3   OH2 6165   2.044   4.161   6.541
 2075TIP3    H1 6166   2.084   4.189   6.458
 2075TIP3    H2 6167   1.992   4.084   6.518
 2076TIP3   OH2 6168   2.309   5.766   4.489
 2076TIP3    H1 6169   2.392   5.775   4.536
 2076TIP3    H2 6170   2.335   5.735   4.402
 2077TIP3   OH2 6171   4.946   0.179   2.940
 2077TIP3    H1 6172   4.897   0.220   3.011
 2077TIP3    H2 6173   4.885   0.117   2.901
 2078TIP3   OH2 6174   6.511   2.623   1.393
 2078TIP3    H1 6175   6.561   2.687   1.444
 2078TIP3    H2 6176   6.556   2.620   1.309
 2079TIP3   OH2 6177   7.326   6.380   4.785
 2079TIP3    H1 6178   7.403   6.398   4.731
 2079TIP3    H2 6179   7.259   6.441   4.753
 2080TIP3   OH2 6180   2.385   7.247   3.680
 2080TIP3    H1 6181   2.344   7.166   3.710
 2080TIP3    H2 6182   2.411   7.292   3.760
 2081TIP3   OH2 6183   5.301   7.770   5.407
 2081TIP3    H1 6184   5.245   7.847   5.400
 2081TIP3    H2 6185   5.390   7.804   5.404
 2082TIP3   OH2 6186   0.486   4.029   2.817
 2082TIP3    H1 6187   0.480   4.124   2.808
 2082TIP3    H2 6188   0.426   3.996   2.751
 2083TIP3   OH2 6189   3.574   5.398   0.967
 2083TIP3    H1 6190   3.624   5.451   0.905
 2083TIP3    H2 6191   3.569   5.451   1.046
 2084TIP3   OH2 6192   0.022   5.320   4.807
 2084TIP3    H1 6193   0.096   5.374   4.835
 2084TIP3    H2 6194   0.051   5.280   4.726
 2085TIP3   OH2 6195   0.912   5.684   2.957
 2085TIP3    H1 6196   1.003   5.680   2.988
 2085TIP3    H2 6197   0.863   5.630   3.018
 2086TIP3   OH2 6198   3.167   5.905   1.049
 2086TIP3    H1 6199   3.131   5.980   1.097
 2086TIP3    H2 6200   3.213   5.944   0.974
 2087TIP3   OH2 6201   0.079   3.161   3.384
 2087TIP3    H1 6202   0.130   3.188   3.308
 2087TIP3    H2 6203   0.081   3.066   3.382
 2088TIP3   OH2 6204   3.047   4.423   2.507
 2088TIP3    H1 6205   3.037   4.463   2.593
 2088TIP3    H2 6206   2.963   4.382   2.489
 2089TIP3   OH2 6207   3.517   5.314   1.600
 2089TIP3    H1 6208   3.572   5.247   1.559
 2089TIP3    H2 6209   3.449   5.264   1.645
 2090TIP3   OH2 6210   7.452   5.118   4.974
 2090TIP3    H1 6211   7.525   5.056   4.974
 2090TIP3    H2 6212   7.390   5.084   4.910
 2091TIP3   OH2 6213   1.567   1.718   0.306
 2091TIP3    H1 6214   1.569   1.680   0.218
 2091TIP3    H2 6215   1.513   1.797   0.297
 2092TIP3   OH2 6216   2.918   2.363   5.377
 2092TIP3    H1 6217   2.976   2.395   5.445
 2092TIP3    H2 6218   2.877   2.442   5.342
 2093TIP3   OH2 6219   2.868   4.293   1.709
 2093TIP3    H1 6220   2.883   4.247   1.626
 2093TIP3    H2 6221   2.895   4.229   1.775
 2094TIP3   OH2 6222   3.686   6.670   3.887
 2094TIP3    H1 6223   3.638   6.670   3.804
 2094TIP3    H2 6224   3.735   6.753   3.887
 2095TIP3   OH2 6225   8.287   2.411   3.015
 2095TIP3    H1 6226   8.199   2.406   3.053
 2095TIP3    H2 6227   8.307   2.504   3.013
 2096TIP3   OH2 6228   7.795   5.010   2.580
 2096TIP3    H1 6229   7.889   5.028   2.588
 2096TIP3    H2 6230   7.775   5.028   2.488
 2097TIP3   OH2 6231   7.109   2.840   5.586
 2097TIP3    H1 6232   7.166   2.820   5.512
 2097TIP3    H2 6233   7.143   2.787   5.658
 2098TIP3   OH2 6234   5.740   1.240   0.243
 2098TIP3    H1 6235   5.663   1.182   0.237
 2098TIP3    H2 6236   5.720   1.312   0.184
 2099TIP3   OH2 6237   5.272   3.103   1.880
 2099TIP3    H1 6238   5.213   3.076   1.808
 2099TIP3    H2 6239   5.290   3.195   1.863
 2100TIP3   OH2 6240   5.206   2.454   6.049
 2100TIP3    H1 6241   5.268   2.382   6.041
 2100TIP3    H2 6242   5.250   2.528   6.008
 2101TIP3   OH2 6243   7.649   7.385   3.812
 2101TIP3    H1 6244   7.692   7.303   3.839
 2101TIP3    H2 6245   7.588   7.404   3.883
 2102TIP3   OH2 6246   3.086   3.539   1.448
 2102TIP3    H1 6247   3.040   3.562   1.367
 2102TIP3    H2 6248   3.019   3.503   1.505
 2103TIP3   OH2 6249   2.089   5.718   0.874
 2103TIP3    H1 6250   2.129   5.647   0.924
 2103TIP3    H2 6251   2.025   5.756   0.934
 2104TIP3   OH2 6252   1.999   3.013   2.956
 2104TIP3    H1 6253   2.052   2.991   2.878
 2104TIP3    H2 6254   1.962   2.929   2.984
 2105TIP3   OH2 6255   7.482   3.539   1.644
 2105TIP3    H1 6256   7.392   3.509   1.633
 2105TIP3    H2 6257   7.514   3.551   1.554
 2106TIP3   OH2 6258   2.311   3.963   0.083
 2106TIP3    H1 6259   2.226   3.963   0.039
 2106TIP3    H2 6260   2.356   3.885   0.050
 2107TIP3   OH2 6261   6.221   6.129   6.332
 2107TIP3    H1 6262   6.217   6.127   6.237
 2107TIP3    H2 6263   6.314   6.122   6.353
 2108TIP3   OH2 6264   4.025   3.813   6.613
 2108TIP3    H1 6265   4.085   3.824   6.687
 2108TIP3    H2 6266   4.070   3.855   6.540
 2109TIP3   OH2 6267   6.158   1.123   5.827
 2109TIP3    H1 6268   6.124   1.041   5.862
 2109TIP3    H2 6269   6.146   1.186   5.897
 2110TIP3   OH2 6270   3.421   3.768   6.642
 2110TIP3    H1 6271   3.506   3.798   6.611
 2110TIP3    H2 6272   3.378   3.846   6.676
 2111TIP3   OH2 6273   4.499   6.861   4.663
 2111TIP3    H1 6274   4.542   6.816   4.735
 2111TIP3    H2 6275   4.569   6.876   4.599
 2112TIP3   OH2 6276   5.224   5.706   1.472
 2112TIP3    H1 6277   5.162   5.771   1.504
 2112TIP3    H2 6278   5.227   5.721   1.377
 2113TIP3   OH2 6279   6.694   2.285   6.255
 2113TIP3    H1 6280   6.737   2.250   6.333
 2113TIP3    H2 6281   6.611   2.237   6.251
 2114TIP3   OH2 6282   1.191   5.639   2.579
 2114TIP3    H1 6283   1.250   5.613   2.650
 2114TIP3    H2 6284   1.176   5.732   2.593
 2115TIP3   OH2 6285   0.837   2.091   5.572
 2115TIP3    H1 6286   0.880   2.092   5.657
 2115TIP3    H2 6287   0.791   2.008   5.569
 2116TIP3   OH2 6288   2.025   0.893   5.018
 2116TIP3    H1 6289   1.984   0.873   5.102
 2116TIP3    H2 6290   2.113   0.925   5.042
 2117TIP3   OH2 6291   8.115   3.526   0.942
 2117TIP3    H1 6292   8.156   3.607   0.970
 2117TIP3    H2 6293   8.021   3.544   0.944
 2118TIP3   OH2 6294   2.791   1.395   3.755
 2118TIP3    H1 6295   2.824   1.411   3.844
 2118TIP3    H2 6296   2.817   1.305   3.736
 2119TIP3   OH2 6297   6.907   4.960   0.289
 2119TIP3    H1 6298   6.821   4.937   0.324
 2119TIP3    H2 6299   6.963   4.968   0.367
 2120TIP3   OH2 6300   5.308   5.878   4.069
 2120TIP3    H1 6301   5.349   5.939   4.129
 2120TIP3    H2 6302   5.250   5.932   4.015
 2121TIP3   OH2 6303   8.308   3.849   6.189
 2121TIP3    H1 6304   8.307   3.773   6.248
 2121TIP3    H2 6305   8.358   3.915   6.237
 2122TIP3   OH2 6306   1.671   6.940   6.350
 2122TIP3    H1 6307   1.683   7.003   6.279
 2122TIP3    H2 6308   1.676   6.993   6.430
 2123TIP3   OH2 6309   7.457   6.864   6.507
 2123TIP3    H1 6310   7.380   6.893   6.557
 2123TIP3    H2 6311   7.450   6.769   6.505
 2124TIP3   OH2 6312   4.659   0.579   3.912
 2124TIP3    H1 6313   4.656   0.674   3.899
 2124TIP3    H2 6314   4.584   0.545   3.862
 2125TIP3   OH2 6315   4.344   1.318   0.478
 2125TIP3    H1 6316   4.292   1.379   0.530
 2125TIP3    H2 6317   4.280   1.271   0.425
 2126TIP3   OH2 6318   3.657   4.455   0.380
 2126TIP3    H1 6319   3.626   4.523   0.320
 2126TIP3    H2 6320   3.732   4.494   0.424
 2127TIP3   OH2 6321   8.030   3.522   5.399
 2127TIP3    H1 6322   7.964   3.511   5.331
 2127TIP3    H2 6323   8.011   3.608   5.437
 2128TIP3   OH2 6324   2.960   7.560   2.167
 2128TIP3    H1 6325   3.042   7.607   2.179
 2128TIP3    H2 6326   2.892   7.628   2.172
 2129TIP3   OH2 6327   2.991   4.463   1.382
 2129TIP3    H1 6328   2.997   4.427   1.293
 2129TIP3    H2 6329   3.009   4.557   1.371
 2130TIP3   OH2 6330   3.707   4.196   1.309
 2130TIP3    H1 6331   3.728   4.252   1.234
 2130TIP3    H2 6332   3.749   4.238   1.384
 2131TIP3   OH2 6333   6.178   2.380   1.805
 2131TIP3    H1 6334   6.107   2.397   1.742
 2131TIP3    H2 6335   6.174   2.453   1.866
 2132TIP3   OH2 6336   1.410   1.068   5.835
 2132TIP3    H1 6337   1.406   1.044   5.742
 2132TIP3    H2 6338   1.365   1.152   5.840
 2133TIP3   OH2 6339   6.480   0.512   3.892
 2133TIP3    H1 6340   6.452   0.502   3.801
 2133TIP3    H2 6341   6.472   0.423   3.928
 2134TIP3   OH2 6342   0.692   3.265   3.177
 2134TIP3    H1 6343   0.715   3.257   3.085
 2134TIP3    H2 6344   0.608   3.220   3.185
 2135TIP3   OH2 6345   0.138   7.378   6.440
 2135TIP3    H1 6346   0.162   7.412   6.354
 2135TIP3    H2 6347   0.155   7.284   6.435
 2136TIP3   OH2 6348   4.273   2.104   5.430
 2136TIP3    H1 6349   4.338   2.034   5.427
 2136TIP3    H2 6350   4.241   2.104   5.520
 2137TIP3   OH2 6351   3.062   6.025   0.588
 2137TIP3    H1 6352   3.071   6.073   0.506
 2137TIP3    H2 6353   2.968   6.008   0.595
 2138TIP3   OH2 6354   5.166   5.536   2.691
 2138TIP3    H1 6355   5.247   5.497   2.724
 2138TIP3    H2 6356   5.153   5.614   2.746
 2139TIP3   OH2 6357   8.044   5.531   5.504
 2139TIP3    H1 6358   7.962   5.516   5.549
 2139TIP3    H2 6359   8.021   5.584   5.428
 2140TIP3   OH2 6360   1.149   4.653   5.319
 2140TIP3    H1 6361   1.138   4.589   5.248
 2140TIP3    H2 6362   1.160   4.737   5.274
 2141TIP3   OH2 6363   1.628   0.447   5.441
 2141TIP3    H1 6364   1.547   0.433   5.489
 2141TIP3    H2 6365   1.673   0.362   5.445
 2142TIP3   OH2 6366   7.434   5.039   4.119
 2142TIP3    H1 6367   7.387   5.072   4.043
 2142TIP3    H2 6368   7.501   5.105   4.137
 2143TIP3   OH2 6369   8.343   5.244   2.266
 2143TIP3    H1 6370   8.420   5.254   2.321
 2143TIP3    H2 6371   8.370   5.183   2.197
 2144TIP3   OH2 6372   3.495   3.379   0.407
 2144TIP3    H1 6373   3.458   3.324   0.475
 2144TIP3    H2 6374   3.549   3.442   0.453
 2145TIP3   OH2 6375   3.012   0.863   4.946
 2145TIP3    H1 6376   3.058   0.936   4.987
 2145TIP3    H2 6377   2.925   0.897   4.928
 2146TIP3   OH2 6378   7.954   0.921   2.937
 2146TIP3    H1 6379   7.956   0.924   2.842
 2146TIP3    H2 6380   8.035   0.964   2.964
 2147TIP3   OH2 6381   4.419   0.507   3.075
 2147TIP3    H1 6382   4.439   0.571   3.143
 2147TIP3    H2 6383   4.392   0.558   3.000
 2148TIP3   OH2 6384   7.680   2.786   3.673
 2148TIP3    H1 6385   7.686   2.865   3.727
 2148TIP3    H2 6386   7.644   2.720   3.733
 2149TIP3   OH2 6387   7.433   7.052   2.734
 2149TIP3    H1 6388   7.395   7.008   2.810
 2149TIP3    H2 6389   7.413   7.145   2.748
 2150TIP3   OH2 6390   1.441   1.506   0.407
 2150TIP3    H1 6391   1.472   1.589   0.370
 2150TIP3    H2 6392   1.508   1.442   0.381
 2151TIP3   OH2 6393   0.750   6.104   1.408
 2151TIP3    H1 6394   0.750   6.105   1.313
 2151TIP3    H2 6395   0.831   6.061   1.433
 2152TIP3   OH2 6396   3.453   0.298   1.145
 2152TIP3    H1 6397   3.519   0.358   1.180
 2152TIP3    H2 6398   3.484   0.277   1.057
 2153TIP3   OH2 6399   2.992   3.504   4.325
 2153TIP3    H1 6400   3.080   3.481   4.296
 2153TIP3    H2 6401   2.958   3.561   4.256
 2154TIP3   OH2 6402   1.077   5.569   5.920
 2154TIP3    H1 6403   1.095   5.475   5.912
 2154TIP3    H2 6404   1.161   5.607   5.945
 2155TIP3   OH2 6405   0.835   5.339   0.174
 2155TIP3    H1 6406   0.770   5.344   0.244
 2155TIP3    H2 6407   0.880   5.256   0.189
 2156TIP3   OH2 6408   0.206   6.844   2.907
 2156TIP3    H1 6409   0.278   6.827   2.968
 2156TIP3    H2 6410   0.164   6.759   2.893
 2157TIP3   OH2 6411   0.702   6.349   5.770
 2157TIP3    H1 6412   0.755   6.341   5.691
 2157TIP3    H2 6413   0.730   6.432   5.810
 2158TIP3   OH2 6414   7.292   5.886   0.350
 2158TIP3    H1 6415   7.289   5.970   0.304
 2158TIP3    H2 6416   7.240   5.901   0.430
 2159TIP3   OH2 6417   8.147   3.899   5.031
 2159TIP3    H1 6418   8.172   3.807   5.038
 2159TIP3    H2 6419   8.195   3.931   4.954
 2160TIP3   OH2 6420   1.622   6.432   6.187
 2160TIP3    H1 6421   1.673   6.500   6.231
 2160TIP3    H2 6422   1.656   6.350   6.225
 2161TIP3   OH2 6423   7.019   3.507   3.022
 2161TIP3    H1 6424   6.977   3.433   3.067
 2161TIP3    H2 6425   7.103   3.472   2.992
 2162TIP3   OH2 6426   1.559   7.594   6.580
 2162TIP3    H1 6427   1.523   7.634   6.500
 2162TIP3    H2 6428   1.521   7.646   6.651
 2163TIP3   OH2 6429   1.096   6.053   6.167
 2163TIP3    H1 6430   1.084   6.134   6.215
 2163TIP3    H2 6431   1.149   5.998   6.225
 2164TIP3   OH2 6432   6.683   4.825   4.726
 2164TIP3    H1 6433   6.723   4.766   4.788
 2164TIP3    H2 6434   6.609   4.776   4.690
 2165TIP3   OH2 6435   6.820   0.369   5.767
 2165TIP3    H1 6436   6.804   0.292   5.712
 2165TIP3    H2 6437   6.810   0.443   5.708
 2166TIP3   OH2 6438   2.611   6.684   5.036
 2166TIP3    H1 6439   2.629   6.629   4.959
 2166TIP3    H2 6440   2.651   6.768   5.015
 2167TIP3   OH2 6441   0.788   1.955   3.951
 2167TIP3    H1 6442   0.849   1.895   3.994
 2167TIP3    H2 6443   0.705   1.908   3.950
 2168TIP3   OH2 6444   7.228   0.961   3.425
 2168TIP3    H1 6445   7.138   0.946   3.453
 2168TIP3    H2 6446   7.278   0.968   3.507
 2169TIP3   OH2 6447   6.946   6.422   4.872
 2169TIP3    H1 6448   6.868   6.375   4.842
 2169TIP3    H2 6449   7.008   6.412   4.800
 2170TIP3   OH2 6450   2.634   5.932   6.820
 2170TIP3    H1 6451   2.599   5.927   6.731
 2170TIP3    H2 6452   2.638   6.026   6.839
 2171TIP3   OH2 6453   6.787   2.958   0.575
 2171TIP3    H1 6454   6.793   3.050   0.548
 2171TIP3    H2 6455   6.719   2.922   0.518
 2172TIP3   OH2 6456   3.763   4.208   2.544
 2172TIP3    H1 6457   3.752   4.114   2.562
 2172TIP3    H2 6458   3.683   4.233   2.498
 2173TIP3   OH2 6459   6.467   5.065   1.542
 2173TIP3    H1 6460   6.478   5.159   1.557
 2173TIP3    H2 6461   6.373   5.050   1.551
 2174TIP3   OH2 6462   4.966   0.988   3.800
 2174TIP3    H1 6463   4.974   1.037   3.718
 2174TIP3    H2 6464   4.971   1.054   3.868
 2175TIP3   OH2 6465   5.723   3.487   0.503
 2175TIP3    H1 6466   5.749   3.508   0.593
 2175TIP3    H2 6467   5.680   3.402   0.510
 2176TIP3   OH2 6468   2.950   4.815   0.372
 2176TIP3    H1 6469   2.941   4.904   0.340
 2176TIP3    H2 6470   2.948   4.760   0.294
 2177TIP3   OH2 6471   3.706   2.227   6.424
 2177TIP3    H1 6472   3.717   2.300   6.486
 2177TIP3    H2 6473   3.783   2.172   6.439
 2178TIP3   OH2 6474   6.550   0.184   6.440
 2178TIP3    H1 6475   6.568   0.278   6.451
 2178TIP3    H2 6476   6.550   0.171   6.345
 2179TIP3   OH2 6477   4.249   2.849   0.012
 2179TIP3    H1 6478   4.211   2.766   0.039
 2179TIP3    H2 6479   4.253   2.901   0.092
 2180TIP3   OH2 6480   8.213   4.809   1.852
 2180TIP3    H1 6481   8.274   4.871   1.813
 2180TIP3    H2 6482   8.259   4.776   1.930
 2181TIP3   OH2 6483   4.747   4.695   1.546
 2181TIP3    H1 6484   4.784   4.632   1.485
 2181TIP3    H2 6485   4.656   4.669   1.556
 2182TIP3   OH2 6486   0.517   0.893   0.956
 2182TIP3    H1 6487   0.478   0.809   0.932
 2182TIP3    H2 6488   0.555   0.925   0.874
 2183TIP3   OH2 6489   0.113   4.314   0.314
 2183TIP3    H1 6490   0.204   4.345   0.307
 2183TIP3    H2 6491   0.100   4.260   0.237
 2184TIP3   OH2 6492   2.766   2.818   3.025
 2184TIP3    H1 6493   2.816   2.870   2.961
 2184TIP3    H2 6494   2.799   2.729   3.015
 2185TIP3   OH2 6495   3.861   6.703   2.064
 2185TIP3    H1 6496   3.934   6.644   2.082
 2185TIP3    H2 6497   3.901   6.777   2.018
 2186TIP3   OH2 6498   4.654   0.804   0.069
 2186TIP3    H1 6499   4.611   0.828   0.151
 2186TIP3    H2 6500   4.599   0.734   0.033
 2187TIP3   OH2 6501   2.572   4.408   3.344
 2187TIP3    H1 6502   2.477   4.402   3.353
 2187TIP3    H2 6503   2.594   4.495   3.377
 2188TIP3   OH2 6504   0.445   7.853   5.805
 2188TIP3    H1 6505   0.411   7.767   5.780
 2188TIP3    H2 6506   0.375   7.914   5.784
 2189TIP3   OH2 6507   3.851   2.349   3.209
 2189TIP3    H1 6508   3.877   2.333   3.119
 2189TIP3    H2 6509   3.800   2.429   3.206
 2190TIP3   OH2 6510   1.652   4.136   3.617
 2190TIP3    H1 6511   1.566   4.134   3.573
 2190TIP3    H2 6512   1.636   4.095   3.702
 2191TIP3   OH2 6513   1.496   4.817   1.049
 2191TIP3    H1 6514   1.424   4.843   0.992
 2191TIP3    H2 6515   1.566   4.791   0.989
 2192TIP3   OH2 6516   3.220   0.995   2.483
 2192TIP3    H1 6517   3.207   0.960   2.571
 2192TIP3    H2 6518   3.135   1.032   2.459
 2193TIP3   OH2 6519   4.355   4.992   6.315
 2193TIP3    H1 6520   4.278   5.048   6.320
 2193TIP3    H2 6521   4.420   5.034   6.371
 2194TIP3   OH2 6522   6.620   2.383   4.723
 2194TIP3    H1 6523   6.675   2.352   4.795
 2194TIP3    H2 6524   6.539   2.334   4.732
 2195TIP3   OH2 6525   5.503   4.577   0.706
 2195TIP3    H1 6526   5.516   4.615   0.619
 2195TIP3    H2 6527   5.590   4.547   0.733
 2196TIP3   OH2 6528   5.929   2.972   4.347
 2196TIP3    H1 6529   5.934   2.889   4.301
 2196TIP3    H2 6530   5.908   3.036   4.279
 2197TIP3   OH2 6531   4.695   1.197   1.533
 2197TIP3    H1 6532   4.690   1.292   1.539
 2197TIP3    H2 6533   4.675   1.177   1.442
 2198TIP3   OH2 6534   4.150   1.224   1.345
 2198TIP3    H1 6535   4.175   1.299   1.399
 2198TIP3    H2 6536   4.232   1.195   1.306
 2199TIP3   OH2 6537   0.418   0.868   5.424
 2199TIP3    H1 6538   0.402   0.941   5.363
 2199TIP3    H2 6539   0.481   0.813   5.378
 2200TIP3   OH2 6540   3.295   6.472   6.156
 2200TIP3    H1 6541   3.325   6.556   6.123
 2200TIP3    H2 6542   3.349   6.456   6.234
 2201TIP3   OH2 6543   7.215   0.245   1.321
 2201TIP3    H1 6544   7.310   0.231   1.321
 2201TIP3    H2 6545   7.189   0.237   1.229
 2202TIP3   OH2 6546   8.027   6.226   3.161
 2202TIP3    H1 6547   8.111   6.271   3.148
 2202TIP3    H2 6548   8.051   6.135   3.179
 2203TIP3   OH2 6549   7.532   6.024   0.549
 2203TIP3    H1 6550   7.453   5.983   0.585
 2203TIP3    H2 6551   7.597   5.954   0.546
 2204TIP3   OH2 6552   7.383   6.538   6.460
 2204TIP3    H1 6553   7.470   6.507   6.439
 2204TIP3    H2 6554   7.357   6.487   6.537
 2205TIP3   OH2 6555   6.950   6.158   0.668
 2205TIP3    H1 6556   6.999   6.211   0.731
 2205TIP3    H2 6557   6.925   6.080   0.718
 2206TIP3   OH2 6558   6.409   6.518   2.750
 2206TIP3    H1 6559   6.397   6.507   2.844
 2206TIP3    H2 6560   6.321   6.512   2.713
 2207TIP3   OH2 6561   6.121   7.091   0.783
 2207TIP3    H1 6562   6.215   7.076   0.796
 2207TIP3    H2 6563   6.107   7.181   0.813
 2208TIP3   OH2 6564   0.981   4.546   4.777
 2208TIP3    H1 6565   0.896   4.589   4.783
 2208TIP3    H2 6566   1.030   4.597   4.712
 2209TIP3   OH2 6567   5.173   5.062   3.938
 2209TIP3    H1 6568   5.081   5.085   3.947
 2209TIP3    H2 6569   5.216   5.144   3.912
 2210TIP3   OH2 6570   1.385   4.216   0.160
 2210TIP3    H1 6571   1.464   4.182   0.119
 2210TIP3    H2 6572   1.355   4.145   0.217
 2211TIP3   OH2 6573   0.564   5.983   5.975
 2211TIP3    H1 6574   0.500   6.043   5.938
 2211TIP3    H2 6575   0.640   6.037   5.993
 2212TIP3   OH2 6576   2.708   2.676   6.491
 2212TIP3    H1 6577   2.635   2.722   6.448
 2212TIP3    H2 6578   2.785   2.730   6.471
 2213TIP3   OH2 6579   5.038   7.595   0.825
 2213TIP3    H1 6580   5.100   7.542   0.775
 2213TIP3    H2 6581   5.009   7.661   0.763
 2214TIP3   OH2 6582   2.700   6.147   4.787
 2214TIP3    H1 6583   2.738   6.141   4.699
 2214TIP3    H2 6584   2.664   6.235   4.792
 2215TIP3   OH2 6585   1.006   6.702   4.701
 2215TIP3    H1 6586   0.973   6.782   4.742
 2215TIP3    H2 6587   1.047   6.654   4.774
 2216TIP3   OH2 6588   4.928   3.000   1.574
 2216TIP3    H1 6589   4.947   2.907   1.568
 2216TIP3    H2 6590   4.958   3.037   1.491
 2217TIP3   OH2 6591   4.783   7.139   3.341
 2217TIP3    H1 6592   4.728   7.152   3.418
 2217TIP3    H2 6593   4.841   7.067   3.365
 2218TIP3   OH2 6594   4.204   5.519   5.960
 2218TIP3    H1 6595   4.241   5.594   6.007
 2218TIP3    H2 6596   4.110   5.523   5.980
 2219TIP3   OH2 6597   0.630   4.140   1.030
 2219TIP3    H1 6598   0.725   4.126   1.033
 2219TIP3    H2 6599   0.601   4.127   1.121
 2220TIP3   OH2 6600   1.613   0.360   3.176
 2220TIP3    H1 6601   1.546   0.426   3.158
 2220TIP3    H2 6602   1.687   0.410   3.212
 2221TIP3   OH2 6603   5.979   4.396   3.759
 2221TIP3    H1 6604   5.911   4.368   3.820
 2221TIP3    H2 6605   5.960   4.488   3.741
 2222TIP3   OH2 6606   0.815   6.067   4.405
 2222TIP3    H1 6607   0.765   5.994   4.445
 2222TIP3    H2 6608   0.886   6.024   4.358
 2223TIP3   OH2 6609   2.216   6.663   5.879
 2223TIP3    H1 6610   2.288   6.641   5.939
 2223TIP3    H2 6611   2.179   6.743   5.916
 2224TIP3   OH2 6612   0.344   6.908   0.643
 2224TIP3    H1 6613   0.332   6.816   0.618
 2224TIP3    H2 6614   0.385   6.905   0.729
 2225TIP3   OH2 6615   7.114   3.794   5.035
 2225TIP3    H1 6616   7.193   3.746   5.059
 2225TIP3    H2 6617   7.104   3.779   4.941
 2226TIP3   OH2 6618   0.343   5.511   3.598
 2226TIP3    H1 6619   0.323   5.523   3.505
 2226TIP3    H2 6620   0.425   5.559   3.612
 2227TIP3   OH2 6621   0.258   0.613   6.631
 2227TIP3    H1 6622   0.179   0.645   6.674
 2227TIP3    H2 6623   0.295   0.550   6.693
 2228TIP3   OH2 6624   5.196   2.100   0.938
 2228TIP3    H1 6625   5.289   2.084   0.957
 2228TIP3    H2 6626   5.177   2.040   0.865
 2229TIP3   OH2 6627   4.134   2.680   2.773
 2229TIP3    H1 6628   4.055   2.631   2.751
 2229TIP3    H2 6629   4.177   2.628   2.841
 2230TIP3   OH2 6630   7.277   4.591   5.001
 2230TIP3    H1 6631   7.351   4.596   4.941
 2230TIP3    H2 6632   7.310   4.627   5.084
 2231TIP3   OH2 6633   0.751   6.188   5.977
 2231TIP3    H1 6634   0.719   6.239   5.902
 2231TIP3    H2 6635   0.822   6.135   5.941
 2232TIP3   OH2 6636   5.923   2.206   1.507
 2232TIP3    H1 6637   5.925   2.216   1.603
 2232TIP3    H2 6638   6.006   2.165   1.486
 2233TIP3   OH2 6639   6.553   3.234   4.978
 2233TIP3    H1 6640   6.496   3.164   5.011
 2233TIP3    H2 6641   6.587   3.200   4.895
 2234TIP3   OH2 6642   6.472   1.275   1.105
 2234TIP3    H1 6643   6.565   1.269   1.126
 2234TIP3    H2 6644   6.438   1.341   1.164
 2235TIP3   OH2 6645   6.884   5.231   0.888
 2235TIP3    H1 6646   6.809   5.179   0.919
 2235TIP3    H2 6647   6.944   5.233   0.962
 2236TIP3   OH2 6648   2.562   7.020   1.897
 2236TIP3    H1 6649   2.494   7.080   1.925
 2236TIP3    H2 6650   2.543   7.003   1.805
 2237TIP3   OH2 6651   2.999   5.364   2.001
 2237TIP3    H1 6652   3.006   5.372   2.096
 2237TIP3    H2 6653   2.945   5.439   1.975
 2238TIP3   OH2 6654   6.944   2.237   2.950
 2238TIP3    H1 6655   6.864   2.232   3.001
 2238TIP3    H2 6656   6.915   2.238   2.859
 2239TIP3   OH2 6657   5.884   6.384   1.446
 2239TIP3    H1 6658   5.881   6.289   1.453
 2239TIP3    H2 6659   5.839   6.404   1.364
 2240TIP3   OH2 6660   2.938   3.745   4.114
 2240TIP3    H1 6661   2.984   3.705   4.041
 2240TIP3    H2 6662   2.983   3.828   4.128
 2241TIP3   OH2 6663   6.488   4.343   1.430
 2241TIP3    H1 6664   6.539   4.306   1.358
 2241TIP3    H2 6665   6.546   4.408   1.469
 2242TIP3   OH2 6666   7.615   3.051   0.587
 2242TIP3    H1 6667   7.538   3.015   0.542
 2242TIP3    H2 6668   7.689   3.006   0.547
 2243TIP3   OH2 6669   5.887   3.246   2.025
 2243TIP3    H1 6670   5.851   3.157   2.024
 2243TIP3    H2 6671   5.812   3.302   2.006
 2244TIP3   OH2 6672   1.210   1.154   4.595
 2244TIP3    H1 6673   1.273   1.107   4.540
 2244TIP3    H2 6674   1.125   1.133   4.557
 2245TIP3   OH2 6675   4.808   4.484   1.381
 2245TIP3    H1 6676   4.820   4.412   1.443
 2245TIP3    H2 6677   4.738   4.454   1.323
 2246TIP3   OH2 6678   3.635   1.289   2.731
 2246TIP3    H1 6679   3.601   1.296   2.820
 2246TIP3    H2 6680   3.558   1.280   2.676
 2247TIP3   OH2 6681   5.980   3.824   3.878
 2247TIP3    H1 6682   5.885   3.818   3.885
 2247TIP3    H2 6683   5.997   3.838   3.785
 2248TIP3   OH2 6684   2.593   6.833   2.306
 2248TIP3    H1 6685   2.612   6.746   2.271
 2248TIP3    H2 6686   2.636   6.894   2.247
 2249TIP3   OH2 6687   5.876   1.960   3.486
 2249TIP3    H1 6688   5.934   1.978   3.560
 2249TIP3    H2 6689   5.882   2.039   3.432
 2250TIP3   OH2 6690   6.873   5.626   5.657
 2250TIP3    H1 6691   6.944   5.688   5.640
 2250TIP3    H2 6692   6.887   5.598   5.748
 2251TIP3   OH2 6693   2.387   0.963   2.781
 2251TIP3    H1 6694   2.443   0.892   2.813
 2251TIP3    H2 6695   2.341   0.994   2.859
 2252TIP3   OH2 6696   1.443   1.321   0.792
 2252TIP3    H1 6697   1.386   1.388   0.753
 2252TIP3    H2 6698   1.518   1.316   0.733
 2253TIP3   OH2 6699   3.707   0.634   2.432
 2253TIP3    H1 6700   3.712   0.684   2.514
 2253TIP3    H2 6701   3.623   0.588   2.437
 2254TIP3   OH2 6702   7.672   0.953   0.468
 2254TIP3    H1 6703   7.750   0.924   0.515
 2254TIP3    H2 6704   7.620   0.999   0.533
 2255TIP3   OH2 6705   2.067   7.156   5.274
 2255TIP3    H1 6706   2.079   7.062   5.290
 2255TIP3    H2 6707   2.147   7.196   5.308
 2256TIP3   OH2 6708   8.196   0.370   2.215
 2256TIP3    H1 6709   8.267   0.421   2.253
 2256TIP3    H2 6710   8.190   0.292   2.271
 2257TIP3   OH2 6711   1.484   7.028   3.916
 2257TIP3    H1 6712   1.438   6.945   3.915
 2257TIP3    H2 6713   1.434   7.084   3.857
 2258TIP3   OH2 6714   1.229   2.060   5.507
 2258TIP3    H1 6715   1.178   1.983   5.484
 2258TIP3    H2 6716   1.185   2.097   5.584
 2259TIP3   OH2 6717   6.460   2.209   1.032
 2259TIP3    H1 6718   6.377   2.164   1.020
 2259TIP3    H2 6719   6.443   2.274   1.100
 2260TIP3   OH2 6720   0.683   0.356   0.261
 2260TIP3    H1 6721   0.594   0.373   0.231
 2260TIP3    H2 6722   0.739   0.406   0.203
 2261TIP3   OH2 6723   8.273   2.964   1.121
 2261TIP3    H1 6724   8.202   3.018   1.154
 2261TIP3    H2 6725   8.338   3.027   1.088
 2262TIP3   OH2 6726   3.950   6.500   4.806
 2262TIP3    H1 6727   3.960   6.518   4.900
 2262TIP3    H2 6728   4.018   6.552   4.764
 2263TIP3   OH2 6729   7.606   6.881   4.033
 2263TIP3    H1 6730   7.670   6.897   3.964
 2263TIP3    H2 6731   7.631   6.943   4.103
 2264TIP3   OH2 6732   5.627   2.449   6.333
 2264TIP3    H1 6733   5.719   2.434   6.351
 2264TIP3    H2 6734   5.583   2.371   6.366
 2265TIP3   OH2 6735   5.334   0.300   3.763
 2265TIP3    H1 6736   5.267   0.241   3.798
 2265TIP3    H2 6737   5.322   0.297   3.668
 2266TIP3   OH2 6738   0.669   5.133   5.115
 2266TIP3    H1 6739   0.602   5.111   5.049
 2266TIP3    H2 6740   0.686   5.050   5.161
 2267TIP3   OH2 6741   4.090   7.844   3.505
 2267TIP3    H1 6742   3.998   7.849   3.533
 2267TIP3    H2 6743   4.134   7.801   3.578
 2268TIP3   OH2 6744   5.840   7.248   0.813
 2268TIP3    H1 6745   5.771   7.309   0.786
 2268TIP3    H2 6746   5.921   7.289   0.784
 2269TIP3   OH2 6747   3.254   3.116   3.798
 2269TIP3    H1 6748   3.245   3.043   3.860
 2269TIP3    H2 6749   3.177   3.170   3.815
 2270TIP3   OH2 6750   1.035   4.981   4.383
 2270TIP3    H1 6751   0.988   4.906   4.348
 2270TIP3    H2 6752   1.084   4.946   4.458
 2271TIP3   OH2 6753   6.472   3.398   5.865
 2271TIP3    H1 6754   6.517   3.316   5.883
 2271TIP3    H2 6755   6.416   3.411   5.942
 2272TIP3   OH2 6756   7.920   6.039   1.987
 2272TIP3    H1 6757   7.991   5.980   2.007
 2272TIP3    H2 6758   7.846   6.008   2.040
 2273TIP3   OH2 6759   6.068   0.715   4.928
 2273TIP3    H1 6760   6.128   0.642   4.915
 2273TIP3    H2 6761   6.107   0.788   4.880
 2274TIP3   OH2 6762   6.329   7.186   0.952
 2274TIP3    H1 6763   6.287   7.272   0.955
 2274TIP3    H2 6764   6.422   7.206   0.939
 2275TIP3   OH2 6765   5.180   3.719   3.332
 2275TIP3    H1 6766   5.240   3.687   3.265
 2275TIP3    H2 6767   5.149   3.803   3.299
 2276TIP3   OH2 6768   2.816   6.200   4.475
 2276TIP3    H1 6769   2.781   6.114   4.450
 2276TIP3    H2 6770   2.901   6.204   4.432
 2277TIP3   OH2 6771   4.060   5.187   2.383
 2277TIP3    H1 6772   4.127   5.236   2.336
 2277TIP3    H2 6773   3.985   5.185   2.324
 2278TIP3   OH2 6774   4.141   4.116   6.649
 2278TIP3    H1 6775   4.225   4.107   6.694
 2278TIP3    H2 6776   4.159   4.086   6.559
 2279TIP3   OH2 6777   2.649   6.158   2.911
 2279TIP3    H1 6778   2.664   6.141   2.818
 2279TIP3    H2 6779   2.635   6.071   2.949
 2280TIP3   OH2 6780   6.245   2.565   2.534
 2280TIP3    H1 6781   6.230   2.521   2.450
 2280TIP3    H2 6782   6.255   2.493   2.597
 2281TIP3   OH2 6783   4.058   5.683   6.560
 2281TIP3    H1 6784   4.031   5.774   6.575
 2281TIP3    H2 6785   4.075   5.679   6.466
 2282TIP3   OH2 6786   0.448   0.323   2.781
 2282TIP3    H1 6787   0.482   0.286   2.862
 2282TIP3    H2 6788   0.476   0.415   2.783
 2283TIP3   OH2 6789   0.053   0.123   6.116
 2283TIP3    H1 6790   0.109   0.200   6.123
 2283TIP3    H2 6791   0.026   0.121   6.024
 2284TIP3   OH2 6792   6.555   2.061   2.078
 2284TIP3    H1 6793   6.634   2.020   2.043
 2284TIP3    H2 6794   6.573   2.155   2.073
 2285TIP3   OH2 6795   0.835   6.948   3.022
 2285TIP3    H1 6796   0.927   6.968   3.041
 2285TIP3    H2 6797   0.798   7.031   2.992
 2286TIP3   OH2 6798   1.831   1.039   6.119
 2286TIP3    H1 6799   1.749   1.035   6.069
 2286TIP3    H2 6800   1.889   0.977   6.074
 2287TIP3   OH2 6801   2.001   6.821   3.669
 2287TIP3    H1 6802   2.066   6.752   3.685
 2287TIP3    H2 6803   2.017   6.847   3.578
 2288TIP3   OH2 6804   2.174   7.143   2.525
 2288TIP3    H1 6805   2.106   7.109   2.583
 2288TIP3    H2 6806   2.179   7.079   2.454
 2289TIP3   OH2 6807   5.860   0.363   5.934
 2289TIP3    H1 6808   5.789   0.321   5.982
 2289TIP3    H2 6809   5.875   0.445   5.980
 2290TIP3   OH2 6810   3.152   2.483   5.512
 2290TIP3    H1 6811   3.111   2.557   5.558
 2290TIP3    H2 6812   3.201   2.523   5.440
 2291TIP3   OH2 6813   5.439   3.138   3.824
 2291TIP3    H1 6814   5.382   3.205   3.786
 2291TIP3    H2 6815   5.523   3.149   3.780
 2292TIP3   OH2 6816   0.851   0.993   6.521
 2292TIP3    H1 6817   0.815   0.911   6.556
 2292TIP3    H2 6818   0.916   0.965   6.457
 2293TIP3   OH2 6819   0.053   3.903   5.157
 2293TIP3    H1 6820   0.056   3.836   5.089
 2293TIP3    H2 6821  -0.029   3.887   5.204
 2294TIP3   OH2 6822   5.927   4.073   4.006
 2294TIP3    H1 6823   5.834   4.094   4.013
 2294TIP3    H2 6824   5.930   3.996   3.949
 2295TIP3   OH2 6825   3.292   6.040   2.583
 2295TIP3    H1 6826   3.328   6.101   2.519
 2295TIP3    H2 6827   3.367   6.016   2.638
 2296TIP3   OH2 6828   7.132   1.904   1.640
 2296TIP3    H1 6829   7.125   1.835   1.574
 2296TIP3    H2 6830   7.149   1.858   1.722
 2297TIP3   OH2 6831   3.666   0.318   6.370
 2297TIP3    H1 6832   3.660   0.413   6.372
 2297TIP3    H2 6833   3.655   0.295   6.278
 2298TIP3   OH2 6834   8.295   6.216   5.184
 2298TIP3    H1 6835   8.309   6.286   5.248
 2298TIP3    H2 6836   8.289   6.262   5.100
 2299TIP3   OH2 6837   5.307   0.594   4.688
 2299TIP3    H1 6838   5.327   0.639   4.606
 2299TIP3    H2 6839   5.215   0.571   4.681
 2300TIP3   OH2 6840   4.645   4.584   0.595
 2300TIP3    H1 6841   4.657   4.496   0.631
 2300TIP3    H2 6842   4.616   4.637   0.669
 2301TIP3   OH2 6843   3.448   5.247   0.570
 2301TIP3    H1 6844   3.494   5.168   0.601
 2301TIP3    H2 6845   3.365   5.214   0.535
 2302TIP3   OH2 6846   4.331   1.078   6.080
 2302TIP3    H1 6847   4.360   0.988   6.086
 2302TIP3    H2 6848   4.258   1.076   6.017
 2303TIP3   OH2 6849   1.803   7.800   1.609
 2303TIP3    H1 6850   1.781   7.743   1.684
 2303TIP3    H2 6851   1.752   7.764   1.537
 2304TIP3   OH2 6852   5.571   5.958   3.568
 2304TIP3    H1 6853   5.573   5.943   3.662
 2304TIP3    H2 6854   5.529   5.880   3.532
 2305TIP3   OH2 6855   2.390   6.071   1.944
 2305TIP3    H1 6856   2.464   6.049   1.888
 2305TIP3    H2 6857   2.313   6.038   1.897
 2306TIP3   OH2 6858   5.435   4.588   4.635
 2306TIP3    H1 6859   5.385   4.613   4.557
 2306TIP3    H2 6860   5.514   4.643   4.632
 2307TIP3   OH2 6861   7.736   6.507   1.942
 2307TIP3    H1 6862   7.777   6.439   1.889
 2307TIP3    H2 6863   7.721   6.465   2.027
 2308TIP3   OH2 6864   0.058   7.735   0.719
 2308TIP3    H1 6865  -0.028   7.777   0.726
 2308TIP3    H2 6866   0.120   7.807   0.728
 2309TIP3   OH2 6867   5.876   6.728   2.283
 2309TIP3    H1 6868   5.971   6.738   2.273
 2309TIP3    H2 6869   5.852   6.794   2.348
 2310TIP3   OH2 6870   4.798   1.477   2.553
 2310TIP3    H1 6871   4.703   1.473   2.561
 2310TIP3    H2 6872   4.824   1.551   2.607
 2311TIP3   OH2 6873   5.301   3.239   4.189
 2311TIP3    H1 6874   5.392   3.210   4.192
 2311TIP3    H2 6875   5.252   3.162   4.160
 2312TIP3   OH2 6876   5.732   7.034   4.204
 2312TIP3    H1 6877   5.683   7.114   4.222
 2312TIP3    H2 6878   5.762   7.003   4.289
 2313TIP3   OH2 6879   0.453   2.689   6.686
 2313TIP3    H1 6880   0.492   2.612   6.728
 2313TIP3    H2 6881   0.425   2.658   6.600
 2314TIP3   OH2 6882   4.757   4.612   3.179
 2314TIP3    H1 6883   4.694   4.599   3.107
 2314TIP3    H2 6884   4.816   4.537   3.173
 2315TIP3   OH2 6885   1.929   4.475   3.212
 2315TIP3    H1 6886   1.880   4.425   3.147
 2315TIP3    H2 6887   1.990   4.529   3.161
 2316TIP3   OH2 6888   5.307   1.068   3.079
 2316TIP3    H1 6889   5.312   1.084   2.985
 2316TIP3    H2 6890   5.303   0.973   3.087
 2317TIP3   OH2 6891   2.409   4.979   5.167
 2317TIP3    H1 6892   2.497   4.941   5.164
 2317TIP3    H2 6893   2.414   5.054   5.108
 2318TIP3   OH2 6894   7.314   3.482   0.937
 2318TIP3    H1 6895   7.274   3.426   0.871
 2318TIP3    H2 6896   7.254   3.556   0.945
 2319TIP3   OH2 6897   6.953   3.624   1.276
 2319TIP3    H1 6898   6.868   3.667   1.279
 2319TIP3    H2 6899   6.947   3.564   1.202
 2320TIP3   OH2 6900   1.213   5.001   2.314
 2320TIP3    H1 6901   1.141   4.938   2.315
 2320TIP3    H2 6902   1.282   4.959   2.366
 2321TIP3   OH2 6903   0.875   0.703   1.506
 2321TIP3    H1 6904   0.781   0.716   1.493
 2321TIP3    H2 6905   0.881   0.626   1.564
 2322TIP3   OH2 6906   5.133   3.252   5.139
 2322TIP3    H1 6907   5.038   3.247   5.123
 2322TIP3    H2 6908   5.155   3.343   5.119
 2323TIP3   OH2 6909   2.021   0.153   2.628
 2323TIP3    H1 6910   2.059   0.100   2.698
 2323TIP3    H2 6911   2.064   0.239   2.637
 2324TIP3   OH2 6912   2.859   7.749   3.901
 2324TIP3    H1 6913   2.839   7.799   3.981
 2324TIP3    H2 6914   2.859   7.658   3.929
 2325TIP3   OH2 6915   4.886   3.345   5.924
 2325TIP3    H1 6916   4.852   3.270   5.973
 2325TIP3    H2 6917   4.911   3.408   5.991
 2326TIP3   OH2 6918   7.291   4.798   5.470
 2326TIP3    H1 6919   7.359   4.789   5.536
 2326TIP3    H2 6920   7.260   4.708   5.454
 2327TIP3   OH2 6921   6.922   2.804   4.282
 2327TIP3    H1 6922   6.897   2.712   4.281
 2327TIP3    H2 6923   6.886   2.840   4.200
 2328TIP3   OH2 6924   1.929   7.779   0.454
 2328TIP3    H1 6925   1.931   7.690   0.417
 2328TIP3    H2 6926   2.001   7.824   0.410
 2329TIP3   OH2 6927   4.647   4.972   5.582
 2329TIP3    H1 6928   4.642   4.940   5.491
 2329TIP3    H2 6929   4.565   5.019   5.595
 2330TIP3   OH2 6930   0.566   2.074   2.497
 2330TIP3    H1 6931   0.475   2.083   2.470
 2330TIP3    H2 6932   0.616   2.074   2.415
 2331TIP3   OH2 6933   0.927   4.355   1.818
 2331TIP3    H1 6934   0.853   4.293   1.820
 2331TIP3    H2 6935   0.977   4.329   1.740
 2332TIP3   OH2 6936   6.698   4.782   2.056
 2332TIP3    H1 6937   6.695   4.875   2.077
 2332TIP3    H2 6938   6.615   4.764   2.013
 2333TIP3   OH2 6939   4.026   4.722   0.981
 2333TIP3    H1 6940   3.983   4.673   0.911
 2333TIP3    H2 6941   3.959   4.781   1.014
 2334TIP3   OH2 6942   6.094   0.783   2.849
 2334TIP3    H1 6943   6.035   0.839   2.798
 2334TIP3    H2 6944   6.053   0.697   2.845
 2335TIP3   OH2 6945   6.150   4.718   4.234
 2335TIP3    H1 6946   6.167   4.778   4.307
 2335TIP3    H2 6947   6.224   4.657   4.235
 2336TIP3   OH2 6948   0.540   0.714   2.311
 2336TIP3    H1 6949   0.553   0.783   2.246
 2336TIP3    H2 6950   0.538   0.759   2.395
 2337TIP3   OH2 6951   7.134   0.033   4.548
 2337TIP3    H1 6952   7.094   0.119   4.536
 2337TIP3    H2 6953   7.096   0.000   4.629
 2338TIP3   OH2 6954   7.464   1.269   4.652
 2338TIP3    H1 6955   7.549   1.227   4.668
 2338TIP3    H2 6956   7.485   1.362   4.644
 2339TIP3   OH2 6957   4.796   0.156   2.344
 2339TIP3    H1 6958   4.857   0.147   2.271
 2339TIP3    H2 6959   4.845   0.203   2.411
 2340TIP3   OH2 6960   5.817   1.423   6.759
 2340TIP3    H1 6961   5.823   1.371   6.680
 2340TIP3    H2 6962   5.904   1.417   6.799
 2341TIP3   OH2 6963   6.885   6.499   0.449
 2341TIP3    H1 6964   6.879   6.543   0.364
 2341TIP3    H2 6965   6.795   6.474   0.470
 2342TIP3   OH2 6966   4.237   2.667   5.491
 2342TIP3    H1 6967   4.319   2.692   5.450
 2342TIP3    H2 6968   4.183   2.746   5.487
 2343TIP3   OH2 6969   6.301   6.389   1.968
 2343TIP3    H1 6970   6.261   6.475   1.979
 2343TIP3    H2 6971   6.229   6.327   1.976
 2344TIP3   OH2 6972   1.417   5.643   6.803
 2344TIP3    H1 6973   1.399   5.677   6.890
 2344TIP3    H2 6974   1.334   5.652   6.756
 2345TIP3   OH2 6975   8.174   6.890   6.494
 2345TIP3    H1 6976   8.209   6.947   6.426
 2345TIP3    H2 6977   8.133   6.950   6.557
 2346TIP3   OH2 6978   7.553   4.564   0.099
 2346TIP3    H1 6979   7.587   4.568   0.189
 2346TIP3    H2 6980   7.481   4.627   0.098
 2347TIP3   OH2 6981   7.525   2.010   4.637
 2347TIP3    H1 6982   7.441   2.027   4.594
 2347TIP3    H2 6983   7.551   2.095   4.672
 2348TIP3   OH2 6984   7.263   1.501   4.455
 2348TIP3    H1 6985   7.280   1.588   4.490
 2348TIP3    H2 6986   7.344   1.452   4.469
 2349TIP3   OH2 6987   1.378   0.362   1.718
 2349TIP3    H1 6988   1.380   0.281   1.770
 2349TIP3    H2 6989   1.470   0.383   1.702
 2350TIP3   OH2 6990   4.816   7.509   3.644
 2350TIP3    H1 6991   4.732   7.527   3.684
 2350TIP3    H2 6992   4.833   7.416   3.664
 2351TIP3   OH2 6993   1.749   3.700   1.367
 2351TIP3    H1 6994   1.753   3.619   1.316
 2351TIP3    H2 6995   1.674   3.688   1.425
 2352TIP3   OH2 6996   4.914   5.244   0.013
 2352TIP3    H1 6997   4.988   5.284   0.058
 2352TIP3    H2 6998   4.922   5.151   0.031
 2353TIP3   OH2 6999   4.032   5.399   1.808
 2353TIP3    H1 7000   3.944   5.367   1.827
 2353TIP3    H2 7001   4.018   5.470   1.745
 2354TIP3   OH2 7002   5.243   0.962   3.801
 2354TIP3    H1 7003   5.297   0.903   3.854
 2354TIP3    H2 7004   5.154   0.929   3.813
 2355TIP3   OH2 7005   3.935   1.458   5.597
 2355TIP3    H1 7006   3.841   1.474   5.603
 2355TIP3    H2 7007   3.964   1.514   5.524
 2356TIP3   OH2 7008   2.607   1.502   0.881
 2356TIP3    H1 7009   2.583   1.518   0.790
 2356TIP3    H2 7010   2.656   1.419   0.879
 2357TIP3   OH2 7011   1.587   1.395   5.575
 2357TIP3    H1 7012   1.580   1.449   5.496
 2357TIP3    H2 7013   1.634   1.317   5.546
 2358TIP3   OH2 7014   4.286   7.455   5.598
 2358TIP3    H1 7015   4.274   7.505   5.679
 2358TIP3    H2 7016   4.209   7.476   5.546
 2359TIP3   OH2 7017   0.485   7.667   0.057
 2359TIP3    H1 7018   0.477   7.757   0.026
 2359TIP3    H2 7019   0.504   7.675   0.151
 2360TIP3   OH2 7020   2.277   1.874   4.562
 2360TIP3    H1 7021   2.290   1.907   4.651
 2360TIP3    H2 7022   2.305   1.946   4.505
 2361TIP3   OH2 7023   2.601   3.074   4.973
 2361TIP3    H1 7024   2.607   3.145   4.909
 2361TIP3    H2 7025   2.630   2.997   4.924
 2362TIP3   OH2 7026   2.375   0.561   3.192
 2362TIP3    H1 7027   2.440   0.598   3.134
 2362TIP3    H2 7028   2.418   0.555   3.277
 2363TIP3   OH2 7029   0.281   2.047   4.203
 2363TIP3    H1 7030   0.226   2.037   4.125
 2363TIP3    H2 7031   0.349   2.109   4.176
 2364TIP3   OH2 7032   7.742   1.175   3.506
 2364TIP3    H1 7033   7.716   1.263   3.534
 2364TIP3    H2 7034   7.683   1.117   3.554
 2365TIP3   OH2 7035   1.995   6.501   5.729
 2365TIP3    H1 7036   1.926   6.567   5.718
 2365TIP3    H2 7037   2.061   6.545   5.782
 2366TIP3   OH2 7038   1.476   3.295   3.825
 2366TIP3    H1 7039   1.502   3.220   3.773
 2366TIP3    H2 7040   1.550   3.356   3.819
 2367TIP3   OH2 7041   0.156   1.089   6.239
 2367TIP3    H1 7042   0.165   0.997   6.267
 2367TIP3    H2 7043   0.244   1.125   6.245
 2368TIP3   OH2 7044   5.485   6.486   1.415
 2368TIP3    H1 7045   5.485   6.532   1.498
 2368TIP3    H2 7046   5.577   6.483   1.388
 2369TIP3   OH2 7047   5.817   3.990   6.462
 2369TIP3    H1 7048   5.790   4.082   6.465
 2369TIP3    H2 7049   5.795   3.960   6.374
 2370TIP3   OH2 7050   5.039   4.758   1.444
 2370TIP3    H1 7051   5.090   4.826   1.399
 2370TIP3    H2 7052   4.949   4.773   1.416
 2371TIP3   OH2 7053   7.256   0.181   6.053
 2371TIP3    H1 7054   7.202   0.132   5.991
 2371TIP3    H2 7055   7.302   0.245   6.000
 2372TIP3   OH2 7056   3.799   2.060   4.383
 2372TIP3    H1 7057   3.843   1.996   4.328
 2372TIP3    H2 7058   3.736   2.009   4.435
 2373TIP3   OH2 7059   1.741   6.030   1.252
 2373TIP3    H1 7060   1.766   6.111   1.208
 2373TIP3    H2 7061   1.648   6.040   1.269
 2374TIP3   OH2 7062   4.407   1.707   4.554
 2374TIP3    H1 7063   4.488   1.656   4.546
 2374TIP3    H2 7064   4.355   1.661   4.620
 2375TIP3   OH2 7065   5.282   2.093   4.713
 2375TIP3    H1 7066   5.362   2.138   4.688
 2375TIP3    H2 7067   5.234   2.156   4.766
 2376TIP3   OH2 7068   2.895   5.996   3.282
 2376TIP3    H1 7069   2.886   6.003   3.377
 2376TIP3    H2 7070   2.947   5.917   3.268
 2377TIP3   OH2 7071   4.360   2.523   3.973
 2377TIP3    H1 7072   4.279   2.548   4.018
 2377TIP3    H2 7073   4.430   2.563   4.024
 2378TIP3   OH2 7074   2.762   1.161   0.414
 2378TIP3    H1 7075   2.733   1.078   0.375
 2378TIP3    H2 7076   2.704   1.227   0.376
 2379TIP3   OH2 7077   6.637   0.904   0.748
 2379TIP3    H1 7078   6.579   0.898   0.672
 2379TIP3    H2 7079   6.647   0.998   0.763
 2380TIP3   OH2 7080   5.244   4.290   0.654
 2380TIP3    H1 7081   5.227   4.384   0.665
 2380TIP3    H2 7082   5.310   4.270   0.720
 2381TIP3   OH2 7083   1.924   6.178   0.266
 2381TIP3    H1 7084   1.872   6.138   0.196
 2381TIP3    H2 7085   1.941   6.105   0.326
 2382TIP3   OH2 7086   4.827   4.889   1.313
 2382TIP3    H1 7087   4.871   4.894   1.228
 2382TIP3    H2 7088   4.782   4.804   1.312
 2383TIP3   OH2 7089   6.404   5.094   0.809
 2383TIP3    H1 7090   6.331   5.065   0.863
 2383TIP3    H2 7091   6.363   5.140   0.735
 2384TIP3   OH2 7092   1.037   0.499   2.903
 2384TIP3    H1 7093   1.038   0.442   2.826
 2384TIP3    H2 7094   1.006   0.583   2.869
 2385TIP3   OH2 7095   0.850   5.102   6.521
 2385TIP3    H1 7096   0.774   5.052   6.494
 2385TIP3    H2 7097   0.916   5.084   6.455
 2386TIP3   OH2 7098   1.442   4.504   6.132
 2386TIP3    H1 7099   1.454   4.411   6.149
 2386TIP3    H2 7100   1.432   4.509   6.037
 2387TIP3   OH2 7101   6.011   5.433   1.682
 2387TIP3    H1 7102   5.944   5.485   1.726
 2387TIP3    H2 7103   6.008   5.463   1.591
 2388TIP3   OH2 7104   2.770   3.961   2.070
 2388TIP3    H1 7105   2.795   3.873   2.042
 2388TIP3    H2 7106   2.722   3.947   2.151
 2389TIP3   OH2 7107   0.951   3.375   6.102
 2389TIP3    H1 7108   0.886   3.314   6.136
 2389TIP3    H2 7109   0.905   3.458   6.093
 2390TIP3   OH2 7110   0.870   1.417   4.931
 2390TIP3    H1 7111   0.836   1.444   5.016
 2390TIP3    H2 7112   0.944   1.359   4.951
 2391TIP3   OH2 7113   6.271   2.585   0.623
 2391TIP3    H1 7114   6.235   2.540   0.699
 2391TIP3    H2 7115   6.243   2.676   0.632
 2392TIP3   OH2 7116   7.413   1.621   5.540
 2392TIP3    H1 7117   7.402   1.600   5.447
 2392TIP3    H2 7118   7.380   1.711   5.548
 2393TIP3   OH2 7119   8.354   1.744   5.021
 2393TIP3    H1 7120   8.318   1.668   4.976
 2393TIP3    H2 7121   8.277   1.799   5.039
 2394TIP3   OH2 7122   6.035   6.306   2.933
 2394TIP3    H1 7123   6.016   6.279   3.023
 2394TIP3    H2 7124   6.119   6.352   2.940
 2395TIP3   OH2 7125   0.222   0.550   6.364
 2395TIP3    H1 7126   0.308   0.514   6.340
 2395TIP3    H2 7127   0.232   0.575   6.456
 2396TIP3   OH2 7128   3.627   1.524   2.410
 2396TIP3    H1 7129   3.664   1.612   2.397
 2396TIP3    H2 7130   3.687   1.482   2.471
 2397TIP3   OH2 7131   5.174   2.869   6.579
 2397TIP3    H1 7132   5.206   2.820   6.655
 2397TIP3    H2 7133   5.246   2.928   6.557
 2398TIP3   OH2 7134   0.660   6.267   4.306
 2398TIP3    H1 7135   0.606   6.222   4.240
 2398TIP3    H2 7136   0.729   6.204   4.326
 2399TIP3   OH2 7137   6.247   6.303   5.718
 2399TIP3    H1 7138   6.155   6.322   5.705
 2399TIP3    H2 7139   6.261   6.313   5.813
 2400TIP3   OH2 7140   4.424   4.681   2.820
 2400TIP3    H1 7141   4.428   4.729   2.903
 2400TIP3    H2 7142   4.340   4.706   2.782
 2401TIP3   OH2 7143   7.415   6.847   1.454
 2401TIP3    H1 7144   7.387   6.818   1.541
 2401TIP3    H2 7145   7.369   6.930   1.441
 2402TIP3   OH2 7146   3.297   1.738   3.109
 2402TIP3    H1 7147   3.337   1.673   3.052
 2402TIP3    H2 7148   3.265   1.688   3.184
 2403TIP3   OH2 7149   4.636   7.059   6.830
 2403TIP3    H1 7150   4.710   7.116   6.853
 2403TIP3    H2 7151   4.677   6.985   6.785
 2404TIP3   OH2 7152   5.659   1.258   2.993
 2404TIP3    H1 7153   5.741   1.235   3.037
 2404TIP3    H2 7154   5.641   1.183   2.935
 2405TIP3   OH2 7155   4.886   7.752   4.483
 2405TIP3    H1 7156   4.890   7.657   4.473
 2405TIP3    H2 7157   4.843   7.782   4.403
 2406TIP3   OH2 7158   0.696   3.038   3.501
 2406TIP3    H1 7159   0.705   2.960   3.555
 2406TIP3    H2 7160   0.617   3.081   3.534
 2407TIP3   OH2 7161   7.676   1.660   5.170
 2407TIP3    H1 7162   7.682   1.720   5.244
 2407TIP3    H2 7163   7.586   1.627   5.173
 2408TIP3   OH2 7164   1.976   4.725   2.797
 2408TIP3    H1 7165   2.009   4.699   2.883
 2408TIP3    H2 7166   2.045   4.781   2.761
 2409TIP3   OH2 7167   6.463   0.116   4.159
 2409TIP3    H1 7168   6.369   0.127   4.177
 2409TIP3    H2 7169   6.507   0.152   4.236
 2410TIP3   OH2 7170   6.133   6.034   3.215
 2410TIP3    H1 7171   6.213   6.073   3.252
 2410TIP3    H2 7172   6.070   6.106   3.214
 2411TIP3   OH2 7173   5.753   6.098   1.710
 2411TIP3    H1 7174   5.794   6.119   1.794
 2411TIP3    H2 7175   5.709   6.179   1.684
 2412TIP3   OH2 7176   3.047   6.491   6.401
 2412TIP3    H1 7177   2.954   6.470   6.398
 2412TIP3    H2 7178   3.086   6.438   6.331
 2413TIP3   OH2 7179   4.023   0.642   2.893
 2413TIP3    H1 7180   4.112   0.658   2.924
 2413TIP3    H2 7181   3.998   0.560   2.934
 2414TIP3   OH2 7182   8.127   5.978   2.286
 2414TIP3    H1 7183   8.100   6.070   2.277
 2414TIP3    H2 7184   8.075   5.945   2.359
 2415TIP3   OH2 7185   3.783   7.469   6.392
 2415TIP3    H1 7186   3.737   7.552   6.384
 2415TIP3    H2 7187   3.810   7.448   6.303
 2416TIP3   OH2 7188   1.785   6.383   2.583
 2416TIP3    H1 7189   1.748   6.365   2.669
 2416TIP3    H2 7190   1.719   6.437   2.539
 2417TIP3   OH2 7191   7.986   4.543   6.806
 2417TIP3    H1 7192   7.892   4.559   6.817
 2417TIP3    H2 7193   8.023   4.629   6.788
 2418TIP3   OH2 7194   3.474   5.240   3.071
 2418TIP3    H1 7195   3.452   5.157   3.030
 2418TIP3    H2 7196   3.399   5.261   3.126
 2419TIP3   OH2 7197   4.479   1.424   5.987
 2419TIP3    H1 7198   4.459   1.486   5.917
 2419TIP3    H2 7199   4.574   1.428   5.997
 2420TIP3   OH2 7200   3.428   5.542   2.895
 2420TIP3    H1 7201   3.500   5.479   2.902
 2420TIP3    H2 7202   3.452   5.598   2.821
 2421TIP3   OH2 7203   6.311   3.054   0.125
 2421TIP3    H1 7204   6.390   3.088   0.083
 2421TIP3    H2 7205   6.325   2.960   0.129
 2422TIP3   OH2 7206   5.088   6.115   2.278
 2422TIP3    H1 7207   5.050   6.192   2.321
 2422TIP3    H2 7208   5.037   6.103   2.199
 2423TIP3   OH2 7209   5.425   5.784   2.220
 2423TIP3    H1 7210   5.454   5.874   2.203
 2423TIP3    H2 7211   5.374   5.760   2.143
 2424TIP3   OH2 7212   1.958   5.836   0.222
 2424TIP3    H1 7213   2.016   5.867   0.291
 2424TIP3    H2 7214   1.914   5.760   0.261
 2425TIP3   OH2 7215   7.042   5.035   6.813
 2425TIP3    H1 7216   7.118   5.067   6.863
 2425TIP3    H2 7217   6.974   5.100   6.829
 2426TIP3   OH2 7218   6.239   1.491   4.061
 2426TIP3    H1 7219   6.159   1.487   4.114
 2426TIP3    H2 7220   6.269   1.400   4.057
 2427TIP3   OH2 7221   3.378   1.706   6.032
 2427TIP3    H1 7222   3.462   1.751   6.044
 2427TIP3    H2 7223   3.313   1.766   6.068
 2428TIP3   OH2 7224   5.599   3.873   1.152
 2428TIP3    H1 7225   5.540   3.932   1.104
 2428TIP3    H2 7226   5.670   3.855   1.090
 2429TIP3   OH2 7227   6.103   7.610   4.911
 2429TIP3    H1 7228   6.121   7.703   4.927
 2429TIP3    H2 7229   6.181   7.578   4.866
 2430TIP3   OH2 7230   6.270   3.206   6.728
 2430TIP3    H1 7231   6.196   3.145   6.732
 2430TIP3    H2 7232   6.268   3.241   6.640
 2431TIP3   OH2 7233   0.200   7.224   0.632
 2431TIP3    H1 7234   0.217   7.237   0.539
 2431TIP3    H2 7235   0.137   7.151   0.635
 2432TIP3   OH2 7236   3.629   4.607   4.277
 2432TIP3    H1 7237   3.603   4.516   4.290
 2432TIP3    H2 7238   3.675   4.631   4.358
 2433TIP3   OH2 7239   1.182   0.365   0.262
 2433TIP3    H1 7240   1.231   0.313   0.198
 2433TIP3    H2 7241   1.181   0.311   0.341
 2434TIP3   OH2 7242   4.325   1.896   6.356
 2434TIP3    H1 7243   4.335   1.991   6.367
 2434TIP3    H2 7244   4.248   1.873   6.408
 2435TIP3   OH2 7245   6.635   5.284   3.351
 2435TIP3    H1 7246   6.637   5.291   3.255
 2435TIP3    H2 7247   6.642   5.374   3.382
 2436TIP3   OH2 7248   0.210   1.814   3.462
 2436TIP3    H1 7249   0.236   1.834   3.372
 2436TIP3    H2 7250   0.172   1.726   3.458
 2437TIP3   OH2 7251   1.720   0.299   4.430
 2437TIP3    H1 7252   1.640   0.335   4.393
 2437TIP3    H2 7253   1.790   0.338   4.377
 2438TIP3   OH2 7254   6.103   3.384   2.880
 2438TIP3    H1 7255   6.191   3.420   2.889
 2438TIP3    H2 7256   6.046   3.461   2.884
 2439TIP3   OH2 7257   6.339   1.638   0.699
 2439TIP3    H1 7258   6.361   1.695   0.773
 2439TIP3    H2 7259   6.345   1.550   0.734
 2440TIP3   OH2 7260  -0.039   1.309   5.338
 2440TIP3    H1 7261  -0.035   1.290   5.244
 2440TIP3    H2 7262   0.049   1.337   5.361
 2441TIP3   OH2 7263   0.366   6.798   1.138
 2441TIP3    H1 7264   0.443   6.741   1.137
 2441TIP3    H2 7265   0.389   6.870   1.079
 2442TIP3   OH2 7266   2.080   3.333   5.304
 2442TIP3    H1 7267   2.116   3.393   5.369
 2442TIP3    H2 7268   2.151   3.272   5.284
 2443TIP3   OH2 7269   4.678   1.484   3.585
 2443TIP3    H1 7270   4.620   1.431   3.530
 2443TIP3    H2 7271   4.734   1.421   3.629
 2444TIP3   OH2 7272   4.106   2.594   4.001
 2444TIP3    H1 7273   4.091   2.624   3.911
 2444TIP3    H2 7274   4.069   2.663   4.056
 2445TIP3   OH2 7275   7.180   4.753   6.350
 2445TIP3    H1 7276   7.230   4.796   6.281
 2445TIP3    H2 7277   7.094   4.795   6.349
 2446TIP3   OH2 7278   4.717   5.116   5.113
 2446TIP3    H1 7279   4.761   5.155   5.037
 2446TIP3    H2 7280   4.782   5.056   5.150
 2447TIP3   OH2 7281   3.883   5.565   3.280
 2447TIP3    H1 7282   3.950   5.556   3.347
 2447TIP3    H2 7283   3.929   5.552   3.197
 2448TIP3   OH2 7284   6.181   5.037   0.994
 2448TIP3    H1 7285   6.109   5.086   0.954
 2448TIP3    H2 7286   6.155   4.945   0.988
 2449TIP3   OH2 7287   8.018   3.655   4.170
 2449TIP3    H1 7288   7.942   3.603   4.145
 2449TIP3    H2 7289   8.090   3.591   4.175
 2450TIP3   OH2 7290   3.113   2.215   1.644
 2450TIP3    H1 7291   3.123   2.121   1.626
 2450TIP3    H2 7292   3.185   2.256   1.596
 2451TIP3   OH2 7293   4.189   3.119   2.380
 2451TIP3    H1 7294   4.244   3.068   2.320
 2451TIP3    H2 7295   4.125   3.057   2.413
 2452TIP3   OH2 7296   5.962   3.722   2.132
 2452TIP3    H1 7297   6.027   3.767   2.186
 2452TIP3    H2 7298   6.010   3.693   2.055
 2453TIP3   OH2 7299   0.438   6.116   1.166
 2453TIP3    H1 7300   0.460   6.132   1.258
 2453TIP3    H2 7301   0.510   6.157   1.117
 2454TIP3   OH2 7302   5.988   7.433   1.143
 2454TIP3    H1 7303   6.007   7.341   1.123
 2454TIP3    H2 7304   5.893   7.436   1.151
 2455TIP3   OH2 7305   0.853   0.433   5.423
 2455TIP3    H1 7306   0.765   0.464   5.445
 2455TIP3    H2 7307   0.838   0.353   5.373
 2456TIP3   OH2 7308   3.052   7.190   5.362
 2456TIP3    H1 7309   3.072   7.097   5.373
 2456TIP3    H2 7310   3.045   7.203   5.268
 2457TIP3   OH2 7311   3.249   2.464   1.362
 2457TIP3    H1 7312   3.269   2.491   1.273
 2457TIP3    H2 7313   3.156   2.482   1.372
 2458TIP3   OH2 7314   3.964   6.935   3.862
 2458TIP3    H1 7315   3.888   6.927   3.805
 2458TIP3    H2 7316   4.018   6.859   3.841
 2459TIP3   OH2 7317   5.399   5.973   6.087
 2459TIP3    H1 7318   5.336   5.938   6.150
 2459TIP3    H2 7319   5.440   5.896   6.049
 2460TIP3   OH2 7320   2.501   2.784   6.188
 2460TIP3    H1 7321   2.441   2.730   6.137
 2460TIP3    H2 7322   2.480   2.874   6.163
 2461TIP3   OH2 7323   7.385   3.644   0.416
 2461TIP3    H1 7324   7.389   3.731   0.377
 2461TIP3    H2 7325   7.336   3.656   0.498
 2462TIP3   OH2 7326   5.853   6.260   1.927
 2462TIP3    H1 7327   5.914   6.231   1.996
 2462TIP3    H2 7328   5.899   6.332   1.883
 2463TIP3   OH2 7329   1.907   4.704   0.367
 2463TIP3    H1 7330   1.831   4.739   0.322
 2463TIP3    H2 7331   1.872   4.656   0.442
 2464TIP3   OH2 7332   6.615   7.034   5.527
 2464TIP3    H1 7333   6.693   7.046   5.474
 2464TIP3    H2 7334   6.579   7.122   5.539
 2465TIP3   OH2 7335   6.348   4.588   2.331
 2465TIP3    H1 7336   6.339   4.671   2.282
 2465TIP3    H2 7337   6.324   4.521   2.267
 2466TIP3   OH2 7338   7.514   2.402   0.661
 2466TIP3    H1 7339   7.573   2.445   0.723
 2466TIP3    H2 7340   7.498   2.316   0.700
 2467TIP3   OH2 7341   5.137   1.180   1.111
 2467TIP3    H1 7342   5.064   1.147   1.163
 2467TIP3    H2 7343   5.173   1.251   1.164
 2468TIP3   OH2 7344   5.181   4.764   4.993
 2468TIP3    H1 7345   5.213   4.684   4.951
 2468TIP3    H2 7346   5.237   4.833   4.959
 2469TIP3   OH2 7347   5.609   4.849   1.289
 2469TIP3    H1 7348   5.601   4.756   1.269
 2469TIP3    H2 7349   5.673   4.882   1.226
 2470TIP3   OH2 7350   2.923   4.096   1.878
 2470TIP3    H1 7351   2.957   4.009   1.897
 2470TIP3    H2 7352   2.831   4.093   1.907
 2471TIP3   OH2 7353   5.125   5.245   4.300
 2471TIP3    H1 7354   5.176   5.313   4.345
 2471TIP3    H2 7355   5.184   5.171   4.293
 2472TIP3   OH2 7356   6.875   1.638   2.724
 2472TIP3    H1 7357   6.933   1.594   2.661
 2472TIP3    H2 7358   6.840   1.712   2.675
 2473TIP3   OH2 7359   8.401   6.695   1.504
 2473TIP3    H1 7360   8.322   6.708   1.451
 2473TIP3    H2 7361   8.469   6.673   1.441
 2474TIP3   OH2 7362   2.941   7.652   1.147
 2474TIP3    H1 7363   2.848   7.650   1.124
 2474TIP3    H2 7364   2.948   7.597   1.225
 2475TIP3   OH2 7365   3.842   4.539   1.329
 2475TIP3    H1 7366   3.780   4.522   1.258
 2475TIP3    H2 7367   3.823   4.473   1.395
 2476TIP3   OH2 7368   7.318   2.682   4.075
 2476TIP3    H1 7369   7.298   2.611   4.014
 2476TIP3    H2 7370   7.266   2.756   4.043
 2477TIP3   OH2 7371   2.690   2.582   6.135
 2477TIP3    H1 7372   2.631   2.657   6.147
 2477TIP3    H2 7373   2.635   2.505   6.153
 2478TIP3   OH2 7374   1.296   2.575   6.830
 2478TIP3    H1 7375   1.257   2.651   6.787
 2478TIP3    H2 7376   1.289   2.505   6.765
 2479TIP3   OH2 7377   2.996   7.457   3.214
 2479TIP3    H1 7378   3.036   7.397   3.151
 2479TIP3    H2 7379   3.046   7.446   3.294
 2480TIP3   OH2 7380   5.281   3.319   3.688
 2480TIP3    H1 7381   5.276   3.341   3.595
 2480TIP3    H2 7382   5.283   3.404   3.732
 2481TIP3   OH2 7383   8.179   0.134   6.476
 2481TIP3    H1 7384   8.239   0.185   6.531
 2481TIP3    H2 7385   8.164   0.188   6.399
 2482TIP3   OH2 7386   0.700   7.401   2.853
 2482TIP3    H1 7387   0.738   7.322   2.890
 2482TIP3    H2 7388   0.656   7.443   2.927
 2483TIP3   OH2 7389   0.550   3.656   6.276
 2483TIP3    H1 7390   0.601   3.712   6.334
 2483TIP3    H2 7391   0.499   3.716   6.223
 2484TIP3   OH2 7392   6.437   6.166   2.123
 2484TIP3    H1 7393   6.480   6.221   2.058
 2484TIP3    H2 7394   6.421   6.224   2.198
 2485TIP3   OH2 7395   7.606   3.912   1.473
 2485TIP3    H1 7396   7.547   3.909   1.398
 2485TIP3    H2 7397   7.576   3.987   1.524
 2486TIP3   OH2 7398   5.300   0.137   1.072
 2486TIP3    H1 7399   5.244   0.171   1.142
 2486TIP3    H2 7400   5.389   0.149   1.104
 2487TIP3   OH2 7401   4.108   2.922   4.596
 2487TIP3    H1 7402   4.184   2.960   4.642
 2487TIP3    H2 7403   4.083   2.847   4.649
 2488TIP3   OH2 7404   3.430   7.303   1.937
 2488TIP3    H1 7405   3.515   7.303   1.980
 2488TIP3    H2 7406   3.402   7.211   1.940
 2489TIP3   OH2 7407   1.764   7.187   2.373
 2489TIP3    H1 7408   1.742   7.186   2.280
 2489TIP3    H2 7409   1.680   7.182   2.418
 2490TIP3   OH2 7410   3.478   7.835   6.208
 2490TIP3    H1 7411   3.420   7.783   6.152
 2490TIP3    H2 7412   3.427   7.913   6.230
 2491TIP3   OH2 7413   7.608   0.154   2.708
 2491TIP3    H1 7414   7.521   0.185   2.732
 2491TIP3    H2 7415   7.647   0.125   2.791
 2492TIP3   OH2 7416   7.773   0.430   3.970
 2492TIP3    H1 7417   7.845   0.493   3.968
 2492TIP3    H2 7418   7.799   0.366   4.036
 2493TIP3   OH2 7419   5.132   2.301   4.833
 2493TIP3    H1 7420   5.059   2.363   4.839
 2493TIP3    H2 7421   5.210   2.355   4.823
 2494TIP3   OH2 7422   7.148   6.751   2.899
 2494TIP3    H1 7423   7.064   6.763   2.853
 2494TIP3    H2 7424   7.163   6.657   2.897
 2495TIP3   OH2 7425   5.057   5.770   5.713
 2495TIP3    H1 7426   5.127   5.726   5.666
 2495TIP3    H2 7427   5.085   5.768   5.805
 2496TIP3   OH2 7428   8.324   1.413   0.708
 2496TIP3    H1 7429   8.405   1.366   0.686
 2496TIP3    H2 7430   8.338   1.502   0.675
 2497TIP3   OH2 7431   5.830   6.095   4.251
 2497TIP3    H1 7432   5.777   6.066   4.326
 2497TIP3    H2 7433   5.820   6.190   4.250
 2498TIP3   OH2 7434   4.907   6.915   6.794
 2498TIP3    H1 7435   4.982   6.957   6.835
 2498TIP3    H2 7436   4.923   6.821   6.806
 2499TIP3   OH2 7437   5.891   2.420   1.233
 2499TIP3    H1 7438   5.835   2.457   1.164
 2499TIP3    H2 7439   5.915   2.334   1.200
 2500TIP3   OH2 7440   4.588   7.228   2.001
 2500TIP3    H1 7441   4.560   7.319   2.010
 2500TIP3    H2 7442   4.559   7.203   1.913
 2501TIP3   OH2 7443   1.887   0.482   4.292
 2501TIP3    H1 7444   1.972   0.486   4.249
 2501TIP3    H2 7445   1.881   0.564   4.342
 2502TIP3   OH2 7446   3.118   0.034   5.173
 2502TIP3    H1 7447   3.177  -0.016   5.117
 2502TIP3    H2 7448   3.166   0.115   5.192
 2503TIP3   OH2 7449   8.339   5.366   3.370
 2503TIP3    H1 7450   8.306   5.299   3.430
 2503TIP3    H2 7451   8.398   5.318   3.312
 2504TIP3   OH2 7452   5.067   5.404   0.462
 2504TIP3    H1 7453   5.040   5.492   0.436
 2504TIP3    H2 7454   5.054   5.402   0.557
 2505TIP3   OH2 7455   3.079   0.983   5.999
 2505TIP3    H1 7456   2.998   0.978   5.947
 2505TIP3    H2 7457   3.124   1.060   5.965
 2506TIP3   OH2 7458   1.205   6.735   3.676
 2506TIP3    H1 7459   1.242   6.755   3.762
 2506TIP3    H2 7460   1.280   6.705   3.625
 2507TIP3   OH2 7461   4.808   3.865   0.942
 2507TIP3    H1 7462   4.834   3.786   0.989
 2507TIP3    H2 7463   4.784   3.927   1.011
 2508TIP3   OH2 7464   3.844   4.693   4.779
 2508TIP3    H1 7465   3.829   4.671   4.687
 2508TIP3    H2 7466   3.849   4.609   4.824
 2509TIP3   OH2 7467   3.777   4.422   2.791
 2509TIP3    H1 7468   3.849   4.381   2.838
 2509TIP3    H2 7469   3.766   4.369   2.712
 2510TIP3   OH2 7470   6.109   7.190   2.881
 2510TIP3    H1 7471   6.084   7.228   2.966
 2510TIP3    H2 7472   6.152   7.262   2.834
 2511TIP3   OH2 7473   7.395   1.866   0.464
 2511TIP3    H1 7474   7.395   1.896   0.373
 2511TIP3    H2 7475   7.487   1.851   0.484
 2512TIP3   OH2 7476   6.638   7.587   4.485
 2512TIP3    H1 7477   6.656   7.645   4.558
 2512TIP3    H2 7478   6.569   7.631   4.436
 2513TIP3   OH2 7479   3.392   7.442   5.128
 2513TIP3    H1 7480   3.485   7.454   5.148
 2513TIP3    H2 7481   3.377   7.348   5.142
 2514TIP3   OH2 7482   6.789   2.720   3.832
 2514TIP3    H1 7483   6.734   2.745   3.758
 2514TIP3    H2 7484   6.740   2.650   3.876
 2515TIP3   OH2 7485   7.372   7.279   6.280
 2515TIP3    H1 7486   7.383   7.266   6.186
 2515TIP3    H2 7487   7.284   7.317   6.289
 2516TIP3   OH2 7488   7.631   7.336   4.344
 2516TIP3    H1 7489   7.583   7.353   4.425
 2516TIP3    H2 7490   7.592   7.395   4.280
 2517TIP3   OH2 7491   2.152   5.898   3.921
 2517TIP3    H1 7492   2.198   5.846   3.987
 2517TIP3    H2 7493   2.223   5.937   3.869
 2518TIP3   OH2 7494   6.923   2.053   5.640
 2518TIP3    H1 7495   6.909   2.135   5.594
 2518TIP3    H2 7496   6.836   2.014   5.648
 2519TIP3   OH2 7497   0.688   0.219   2.577
 2519TIP3    H1 7498   0.775   0.238   2.542
 2519TIP3    H2 7499   0.701   0.213   2.672
 2520TIP3   OH2 7500   2.534   6.377   3.029
 2520TIP3    H1 7501   2.605   6.435   3.000
 2520TIP3    H2 7502   2.543   6.299   2.976
 2521TIP3   OH2 7503   0.119   4.928   4.141
 2521TIP3    H1 7504   0.104   4.918   4.047
 2521TIP3    H2 7505   0.178   4.855   4.164
 2522TIP3   OH2 7506   3.737   3.870   4.791
 2522TIP3    H1 7507   3.669   3.935   4.810
 2522TIP3    H2 7508   3.815   3.903   4.835
 2523TIP3   OH2 7509   4.657   6.625   1.888
 2523TIP3    H1 7510   4.581   6.580   1.851
 2523TIP3    H2 7511   4.647   6.716   1.861
 2524TIP3   OH2 7512   3.612   5.060   6.816
 2524TIP3    H1 7513   3.547   4.995   6.842
 2524TIP3    H2 7514   3.580   5.142   6.852
 2525TIP3   OH2 7515   4.420   3.526   5.255
 2525TIP3    H1 7516   4.420   3.435   5.286
 2525TIP3    H2 7517   4.333   3.559   5.275
 2526TIP3   OH2 7518   4.512   3.232   2.646
 2526TIP3    H1 7519   4.445   3.294   2.619
 2526TIP3    H2 7520   4.527   3.178   2.569
 2527TIP3   OH2 7521   0.751   1.000   0.355
 2527TIP3    H1 7522   0.828   0.970   0.307
 2527TIP3    H2 7523   0.714   0.920   0.393
 2528TIP3   OH2 7524   0.950   5.789   2.476
 2528TIP3    H1 7525   0.994   5.835   2.404
 2528TIP3    H2 7526   1.008   5.717   2.498
 2529TIP3   OH2 7527   4.630   5.598   4.578
 2529TIP3    H1 7528   4.565   5.566   4.516
 2529TIP3    H2 7529   4.584   5.666   4.627
 2530TIP3   OH2 7530   1.734   4.405   2.010
 2530TIP3    H1 7531   1.742   4.499   1.992
 2530TIP3    H2 7532   1.815   4.367   1.975
 2531TIP3   OH2 7533   2.339   4.826   3.806
 2531TIP3    H1 7534   2.265   4.878   3.839
 2531TIP3    H2 7535   2.352   4.759   3.872
 2532TIP3   OH2 7536   2.044   5.892   4.430
 2532TIP3    H1 7537   2.010   5.901   4.341
 2532TIP3    H2 7538   2.084   5.806   4.432
 2533TIP3   OH2 7539   1.890   3.465   2.416
 2533TIP3    H1 7540   1.816   3.404   2.419
 2533TIP3    H2 7541   1.957   3.425   2.471
 2534TIP3   OH2 7542   4.098   5.098   4.417
 2534TIP3    H1 7543   4.129   5.137   4.500
 2534TIP3    H2 7544   4.075   5.174   4.363
 2535TIP3   OH2 7545   0.273   5.494   5.879
 2535TIP3    H1 7546   0.252   5.466   5.969
 2535TIP3    H2 7547   0.188   5.493   5.834
 2536TIP3   OH2 7548   3.583   7.216   2.771
 2536TIP3    H1 7549   3.652   7.281   2.762
 2536TIP3    H2 7550   3.511   7.250   2.718
 2537TIP3   OH2 7551   4.881   7.356   5.223
 2537TIP3    H1 7552   4.925   7.348   5.308
 2537TIP3    H2 7553   4.934   7.302   5.164
 2538TIP3   OH2 7554   1.618   0.855   1.671
 2538TIP3    H1 7555   1.690   0.862   1.733
 2538TIP3    H2 7556   1.539   0.861   1.725
 2539TIP3   OH2 7557   5.559   1.460   4.450
 2539TIP3    H1 7558   5.590   1.424   4.534
 2539TIP3    H2 7559   5.580   1.554   4.456
 2540TIP3   OH2 7560   1.544   2.259   2.287
 2540TIP3    H1 7561   1.563   2.312   2.210
 2540TIP3    H2 7562   1.619   2.272   2.345
 2541TIP3   OH2 7563   1.294   6.625   1.559
 2541TIP3    H1 7564   1.330   6.558   1.617
 2541TIP3    H2 7565   1.276   6.700   1.616
 2542TIP3   OH2 7566   7.185   7.377   5.122
 2542TIP3    H1 7567   7.156   7.465   5.095
 2542TIP3    H2 7568   7.151   7.319   5.054
 2543TIP3   OH2 7569   8.050   0.561   3.653
 2543TIP3    H1 7570   8.022   0.619   3.582
 2543TIP3    H2 7571   8.015   0.475   3.630
 2544TIP3   OH2 7572   4.948   4.053   0.398
 2544TIP3    H1 7573   5.009   3.980   0.409
 2544TIP3    H2 7574   5.003   4.131   0.396
 2545TIP3   OH2 7575   1.052   1.192   1.690
 2545TIP3    H1 7576   1.098   1.238   1.619
 2545TIP3    H2 7577   1.096   1.221   1.770
 2546TIP3   OH2 7578   6.801   1.780   1.782
 2546TIP3    H1 7579   6.850   1.828   1.849
 2546TIP3    H2 7580   6.820   1.827   1.700
 2547TIP3   OH2 7581   3.157   0.379   5.596
 2547TIP3    H1 7582   3.074   0.404   5.637
 2547TIP3    H2 7583   3.149   0.285   5.582
 2548TIP3   OH2 7584   5.925   1.336   6.335
 2548TIP3    H1 7585   5.942   1.363   6.245
 2548TIP3    H2 7586   5.894   1.415   6.379
 2549TIP3   OH2 7587   6.609   0.880   0.118
 2549TIP3    H1 7588   6.607   0.949   0.052
 2549TIP3    H2 7589   6.657   0.917   0.192
 2550TIP3   OH2 7590   2.508   1.782   2.557
 2550TIP3    H1 7591   2.492   1.857   2.500
 2550TIP3    H2 7592   2.524   1.821   2.643
 2551TIP3   OH2 7593   2.522   4.766   6.759
 2551TIP3    H1 7594   2.465   4.785   6.684
 2551TIP3    H2 7595   2.478   4.695   6.805
 2552TIP3   OH2 7596   1.501   4.218   2.960
 2552TIP3    H1 7597   1.446   4.264   2.897
 2552TIP3    H2 7598   1.440   4.181   3.024
 2553TIP3   OH2 7599   2.659   4.968   5.494
 2553TIP3    H1 7600   2.650   5.058   5.462
 2553TIP3    H2 7601   2.614   4.968   5.579
 2554TIP3   OH2 7602   7.522   4.761   4.374
 2554TIP3    H1 7603   7.539   4.743   4.466
 2554TIP3    H2 7604   7.461   4.834   4.374
 2555TIP3   OH2 7605   2.356   7.306   0.386
 2555TIP3    H1 7606   2.412   7.290   0.462
 2555TIP3    H2 7607   2.415   7.296   0.311
 2556TIP3   OH2 7608   2.210   5.213   6.509
 2556TIP3    H1 7609   2.223   5.130   6.464
 2556TIP3    H2 7610   2.266   5.208   6.586
 2557TIP3   OH2 7611   0.457   3.478   5.792
 2557TIP3    H1 7612   0.531   3.463   5.852
 2557TIP3    H2 7613   0.493   3.536   5.725
 2558TIP3   OH2 7614   1.859   2.895   1.705
 2558TIP3    H1 7615   1.828   2.873   1.618
 2558TIP3    H2 7616   1.824   2.827   1.762
 2559TIP3   OH2 7617   7.712   3.738   0.320
 2559TIP3    H1 7618   7.722   3.647   0.292
 2559TIP3    H2 7619   7.800   3.775   0.316
 2560TIP3   OH2 7620   0.122   7.436   0.164
 2560TIP3    H1 7621   0.038   7.450   0.208
 2560TIP3    H2 7622   0.174   7.513   0.186
 2561TIP3   OH2 7623   6.747   2.592   5.359
 2561TIP3    H1 7624   6.690   2.578   5.284
 2561TIP3    H2 7625   6.836   2.589   5.323
 2562TIP3   OH2 7626   2.738   2.237   0.675
 2562TIP3    H1 7627   2.658   2.279   0.707
 2562TIP3    H2 7628   2.772   2.189   0.751
 2563TIP3   OH2 7629   3.889   1.800   3.449
 2563TIP3    H1 7630   3.881   1.712   3.411
 2563TIP3    H2 7631   3.809   1.845   3.421
 2564TIP3   OH2 7632   0.430   1.241   1.728
 2564TIP3    H1 7633   0.472   1.250   1.813
 2564TIP3    H2 7634   0.407   1.331   1.703
 2565TIP3   OH2 7635   3.706   3.418   3.222
 2565TIP3    H1 7636   3.675   3.408   3.132
 2565TIP3    H2 7637   3.787   3.367   3.225
 2566TIP3   OH2 7638   4.891   2.919   2.049
 2566TIP3    H1 7639   4.863   2.989   2.108
 2566TIP3    H2 7640   4.909   2.964   1.966
 2567TIP3   OH2 7641   4.572   5.164   3.610
 2567TIP3    H1 7642   4.636   5.181   3.679
 2567TIP3    H2 7643   4.528   5.084   3.637
 2568TIP3   OH2 7644   2.626   2.873   0.943
 2568TIP3    H1 7645   2.696   2.825   0.897
 2568TIP3    H2 7646   2.672   2.929   1.004
 2569TIP3   OH2 7647   3.251   4.858   1.591
 2569TIP3    H1 7648   3.194   4.811   1.531
 2569TIP3    H2 7649   3.195   4.881   1.665
 2570TIP3   OH2 7650   1.693   3.179   1.187
 2570TIP3    H1 7651   1.628   3.117   1.154
 2570TIP3    H2 7652   1.774   3.129   1.191
 2571TIP3   OH2 7653   4.267   0.536   2.667
 2571TIP3    H1 7654   4.232   0.471   2.728
 2571TIP3    H2 7655   4.190   0.579   2.630
 2572TIP3   OH2 7656   6.611   4.287   2.017
 2572TIP3    H1 7657   6.612   4.263   2.110
 2572TIP3    H2 7658   6.699   4.267   1.986
 2573TIP3   OH2 7659   0.992   1.368   2.592
 2573TIP3    H1 7660   1.068   1.373   2.651
 2573TIP3    H2 7661   0.958   1.458   2.590
 2574TIP3   OH2 7662   1.553   5.500   2.545
 2574TIP3    H1 7663   1.522   5.411   2.530
 2574TIP3    H2 7664   1.497   5.555   2.490
 2575TIP3   OH2 7665   6.368   2.430   3.761
 2575TIP3    H1 7666   6.437   2.421   3.695
 2575TIP3    H2 7667   6.411   2.474   3.834
 2576TIP3   OH2 7668   8.381   3.192   5.180
 2576TIP3    H1 7669   8.316   3.137   5.135
 2576TIP3    H2 7670   8.342   3.211   5.265
 2577TIP3   OH2 7671   1.240   3.025   3.913
 2577TIP3    H1 7672   1.295   3.088   3.960
 2577TIP3    H2 7673   1.173   3.000   3.977
 2578TIP3   OH2 7674   0.723   3.701   1.919
 2578TIP3    H1 7675   0.713   3.684   1.825
 2578TIP3    H2 7676   0.774   3.782   1.923
 2579TIP3   OH2 7677   1.913   4.397   5.779
 2579TIP3    H1 7678   2.006   4.402   5.801
 2579TIP3    H2 7679   1.894   4.481   5.737
 2580TIP3   OH2 7680   8.254   7.334   6.572
 2580TIP3    H1 7681   8.319   7.321   6.642
 2580TIP3    H2 7682   8.249   7.429   6.561
 2581TIP3   OH2 7683   2.647   2.158   0.416
 2581TIP3    H1 7684   2.670   2.224   0.481
 2581TIP3    H2 7685   2.623   2.081   0.467
 2582TIP3   OH2 7686   3.644   4.998   2.479
 2582TIP3    H1 7687   3.679   4.945   2.551
 2582TIP3    H2 7688   3.550   5.004   2.497
 2583TIP3   OH2 7689   0.670   5.016   5.648
 2583TIP3    H1 7690   0.586   4.999   5.606
 2583TIP3    H2 7691   0.647   5.054   5.733
 2584TIP3   OH2 7692   5.872   0.591   2.832
 2584TIP3    H1 7693   5.838   0.508   2.797
 2584TIP3    H2 7694   5.841   0.594   2.922
 2585TIP3   OH2 7695   4.526   5.108   0.600
 2585TIP3    H1 7696   4.525   5.175   0.669
 2585TIP3    H2 7697   4.496   5.154   0.522
 2586TIP3   OH2 7698   6.217   4.216   6.370
 2586TIP3    H1 7699   6.210   4.151   6.300
 2586TIP3    H2 7700   6.188   4.297   6.330
 2587TIP3   OH2 7701   4.428   1.279   1.561
 2587TIP3    H1 7702   4.452   1.213   1.497
 2587TIP3    H2 7703   4.371   1.234   1.622
 2588TIP3   OH2 7704   2.509   5.178   2.113
 2588TIP3    H1 7705   2.438   5.191   2.177
 2588TIP3    H2 7706   2.544   5.266   2.098
 2589TIP3   OH2 7707   5.812   2.279   5.520
 2589TIP3    H1 7708   5.747   2.210   5.535
 2589TIP3    H2 7709   5.832   2.311   5.608
 2590TIP3   OH2 7710   4.138   5.581   5.305
 2590TIP3    H1 7711   4.149   5.608   5.396
 2590TIP3    H2 7712   4.175   5.493   5.301
 2591TIP3   OH2 7713   5.945   4.800   4.075
 2591TIP3    H1 7714   6.002   4.759   4.139
 2591TIP3    H2 7715   5.857   4.771   4.099
 2592TIP3   OH2 7716   1.726   1.466   0.214
 2592TIP3    H1 7717   1.687   1.429   0.293
 2592TIP3    H2 7718   1.751   1.390   0.161
 2593TIP3   OH2 7719   7.401   4.705   2.043
 2593TIP3    H1 7720   7.477   4.756   2.017
 2593TIP3    H2 7721   7.326   4.757   2.015
 2594TIP3   OH2 7722   3.995   1.563   3.368
 2594TIP3    H1 7723   3.980   1.616   3.290
 2594TIP3    H2 7724   3.977   1.473   3.340
 2595TIP3   OH2 7725   8.228   3.671   5.121
 2595TIP3    H1 7726   8.207   3.687   5.213
 2595TIP3    H2 7727   8.187   3.588   5.100
 2596TIP3   OH2 7728   5.663   7.438   0.159
 2596TIP3    H1 7729   5.688   7.370   0.097
 2596TIP3    H2 7730   5.620   7.505   0.106
 2597TIP3   OH2 7731   2.115   4.567   6.804
 2597TIP3    H1 7732   2.074   4.598   6.885
 2597TIP3    H2 7733   2.056   4.597   6.735
 2598TIP3   OH2 7734   2.149   2.909   3.511
 2598TIP3    H1 7735   2.137   3.003   3.524
 2598TIP3    H2 7736   2.071   2.870   3.550
 2599TIP3   OH2 7737   2.037   3.891   3.302
 2599TIP3    H1 7738   1.945   3.868   3.315
 2599TIP3    H2 7739   2.069   3.913   3.389
 2600TIP3   OH2 7740   5.959   6.378   4.121
 2600TIP3    H1 7741   5.877   6.367   4.169
 2600TIP3    H2 7742   5.988   6.467   4.144
 2601TIP3   OH2 7743   6.886   4.822   2.247
 2601TIP3    H1 7744   6.820   4.795   2.184
 2601TIP3    H2 7745   6.969   4.810   2.202
 2602TIP3   OH2 7746   7.239   0.465   2.701
 2602TIP3    H1 7747   7.170   0.526   2.729
 2602TIP3    H2 7748   7.298   0.459   2.776
 2603TIP3   OH2 7749   3.952   3.173   3.674
 2603TIP3    H1 7750   4.032   3.203   3.716
 2603TIP3    H2 7751   3.971   3.083   3.646
 2604TIP3   OH2 7752   7.840   6.416   4.174
 2604TIP3    H1 7753   7.903   6.428   4.245
 2604TIP3    H2 7754   7.755   6.408   4.217
 2605TIP3   OH2 7755   2.653   1.869   0.512
 2605TIP3    H1 7756   2.699   1.888   0.594
 2605TIP3    H2 7757   2.722   1.844   0.451
 2606TIP3   OH2 7758   0.461   6.411   2.851
 2606TIP3    H1 7759   0.501   6.395   2.765
 2606TIP3    H2 7760   0.397   6.340   2.861
 2607TIP3   OH2 7761   7.761   6.089   4.879
 2607TIP3    H1 7762   7.740   6.064   4.969
 2607TIP3    H2 7763   7.828   6.026   4.851
 2608TIP3   OH2 7764   0.182   6.116   1.062
 2608TIP3    H1 7765   0.276   6.122   1.079
 2608TIP3    H2 7766   0.141   6.141   1.145
 2609TIP3   OH2 7767   5.524   2.247   0.109
 2609TIP3    H1 7768   5.548   2.245   0.202
 2609TIP3    H2 7769   5.447   2.304   0.106
 2610TIP3   OH2 7770   1.996   4.936   0.485
 2610TIP3    H1 7771   2.036   4.926   0.571
 2610TIP3    H2 7772   1.988   4.847   0.451
 2611TIP3   OH2 7773   7.647   7.176   3.242
 2611TIP3    H1 7774   7.590   7.251   3.261
 2611TIP3    H2 7775   7.588   7.109   3.207
 2612TIP3   OH2 7776   2.418   3.179   2.312
 2612TIP3    H1 7777   2.368   3.239   2.257
 2612TIP3    H2 7778   2.476   3.236   2.363
 2613TIP3   OH2 7779   7.990   7.474   0.497
 2613TIP3    H1 7780   8.073   7.522   0.498
 2613TIP3    H2 7781   7.954   7.492   0.410
 2614TIP3   OH2 7782   5.364   1.445   1.750
 2614TIP3    H1 7783   5.331   1.403   1.829
 2614TIP3    H2 7784   5.457   1.459   1.768
 2615TIP3   OH2 7785   6.463   3.661   3.346
 2615TIP3    H1 7786   6.490   3.727   3.409
 2615TIP3    H2 7787   6.510   3.582   3.373
 2616TIP3   OH2 7788   2.278   2.343   3.556
 2616TIP3    H1 7789   2.316   2.431   3.554
 2616TIP3    H2 7790   2.337   2.291   3.501
 2617TIP3   OH2 7791   1.288   1.252   1.032
 2617TIP3    H1 7792   1.336   1.279   0.954
 2617TIP3    H2 7793   1.343   1.279   1.105
 2618TIP3   OH2 7794   2.796   0.186   6.158
 2618TIP3    H1 7795   2.782   0.227   6.244
 2618TIP3    H2 7796   2.803   0.259   6.097
 2619TIP3   OH2 7797   1.655   3.324   0.920
 2619TIP3    H1 7798   1.583   3.275   0.879
 2619TIP3    H2 7799   1.627   3.335   1.010
 2620TIP3   OH2 7800   4.788   5.548   5.172
 2620TIP3    H1 7801   4.861   5.514   5.120
 2620TIP3    H2 7802   4.805   5.518   5.261
 2621TIP3   OH2 7803   6.462   7.468   5.820
 2621TIP3    H1 7804   6.415   7.473   5.903
 2621TIP3    H2 7805   6.534   7.408   5.837
 2622TIP3   OH2 7806   4.009   6.995   5.703
 2622TIP3    H1 7807   4.021   6.980   5.797
 2622TIP3    H2 7808   4.074   7.061   5.681
 2623TIP3   OH2 7809   1.775   0.259   3.459
 2623TIP3    H1 7810   1.763   0.345   3.419
 2623TIP3    H2 7811   1.868   0.255   3.480
 2624TIP3   OH2 7812   1.115   5.828   6.351
 2624TIP3    H1 7813   1.027   5.819   6.315
 2624TIP3    H2 7814   1.104   5.887   6.426
 2625TIP3   OH2 7815   8.240   0.623   5.492
 2625TIP3    H1 7816   8.211   0.642   5.403
 2625TIP3    H2 7817   8.231   0.707   5.538
 2626TIP3   OH2 7818   3.830   5.317   3.731
 2626TIP3    H1 7819   3.785   5.353   3.807
 2626TIP3    H2 7820   3.820   5.222   3.738
 2627TIP3   OH2 7821   0.803   7.629   3.577
 2627TIP3    H1 7822   0.893   7.638   3.544
 2627TIP3    H2 7823   0.777   7.718   3.601
 2628TIP3   OH2 7824   7.986   6.289   2.890
 2628TIP3    H1 7825   7.975   6.285   2.985
 2628TIP3    H2 7826   7.980   6.198   2.862
 2629TIP3   OH2 7827   3.047   2.706   4.305
 2629TIP3    H1 7828   3.002   2.768   4.362
 2629TIP3    H2 7829   3.052   2.626   4.356
 2630TIP3   OH2 7830   8.051   2.919   2.768
 2630TIP3    H1 7831   7.989   2.885   2.704
 2630TIP3    H2 7832   8.014   2.893   2.853
 2631TIP3   OH2 7833   6.211   1.761   2.141
 2631TIP3    H1 7834   6.235   1.718   2.223
 2631TIP3    H2 7835   6.142   1.706   2.104
 2632TIP3   OH2 7836   7.183   3.971   2.541
 2632TIP3    H1 7837   7.185   3.875   2.538
 2632TIP3    H2 7838   7.234   3.998   2.464
 2633TIP3   OH2 7839   4.485   3.812   3.961
 2633TIP3    H1 7840   4.474   3.844   4.051
 2633TIP3    H2 7841   4.451   3.723   3.963
 2634TIP3   OH2 7842   5.917   2.457   1.672
 2634TIP3    H1 7843   5.836   2.458   1.621
 2634TIP3    H2 7844   5.902   2.392   1.740
 2635TIP3   OH2 7845   3.318   4.513   6.458
 2635TIP3    H1 7846   3.326   4.511   6.553
 2635TIP3    H2 7847   3.333   4.605   6.435
 2636TIP3   OH2 7848   3.436   2.901   5.398
 2636TIP3    H1 7849   3.493   2.973   5.422
 2636TIP3    H2 7850   3.452   2.834   5.464
 2637TIP3   OH2 7851   2.297   6.949   6.255
 2637TIP3    H1 7852   2.209   6.986   6.266
 2637TIP3    H2 7853   2.280   6.859   6.227
 2638TIP3   OH2 7854   5.642   5.669   1.514
 2638TIP3    H1 7855   5.654   5.676   1.609
 2638TIP3    H2 7856   5.554   5.632   1.504
 2639TIP3   OH2 7857   1.772   7.337   3.527
 2639TIP3    H1 7858   1.693   7.391   3.527
 2639TIP3    H2 7859   1.830   7.379   3.590
 2640TIP3   OH2 7860   0.833   0.521   3.098
 2640TIP3    H1 7861   0.873   0.478   3.174
 2640TIP3    H2 7862   0.904   0.527   3.034
 2641TIP3   OH2 7863   4.209   2.713   4.921
 2641TIP3    H1 7864   4.152   2.657   4.973
 2641TIP3    H2 7865   4.285   2.729   4.978
 2642TIP3   OH2 7866   5.771   7.894   4.551
 2642TIP3    H1 7867   5.794   7.908   4.642
 2642TIP3    H2 7868   5.780   7.799   4.538
 2643TIP3   OH2 7869   2.992   0.849   4.349
 2643TIP3    H1 7870   3.039   0.768   4.328
 2643TIP3    H2 7871   2.914   0.847   4.294
 2644TIP3   OH2 7872   4.969   7.757   6.611
 2644TIP3    H1 7873   4.886   7.805   6.610
 2644TIP3    H2 7874   5.037   7.824   6.611
 2645TIP3   OH2 7875   5.501   6.303   2.212
 2645TIP3    H1 7876   5.498   6.279   2.119
 2645TIP3    H2 7877   5.557   6.381   2.214
 2646TIP3   OH2 7878   0.703   6.431   5.192
 2646TIP3    H1 7879   0.785   6.425   5.143
 2646TIP3    H2 7880   0.711   6.366   5.261
 2647TIP3   OH2 7881   2.468   3.532   6.091
 2647TIP3    H1 7882   2.420   3.454   6.063
 2647TIP3    H2 7883   2.400   3.591   6.123
 2648TIP3   OH2 7884   0.285   7.592   3.825
 2648TIP3    H1 7885   0.212   7.530   3.825
 2648TIP3    H2 7886   0.304   7.606   3.918
 2649TIP3   OH2 7887   5.268   7.020   6.386
 2649TIP3    H1 7888   5.230   7.087   6.442
 2649TIP3    H2 7889   5.192   6.972   6.351
 2650TIP3   OH2 7890   3.217   2.281   2.245
 2650TIP3    H1 7891   3.260   2.222   2.183
 2650TIP3    H2 7892   3.289   2.322   2.292
 2651TIP3   OH2 7893   2.481   7.050   4.022
 2651TIP3    H1 7894   2.529   7.028   3.943
 2651TIP3    H2 7895   2.483   6.970   4.075
 2652TIP3   OH2 7896   3.492   6.611   2.767
 2652TIP3    H1 7897   3.504   6.519   2.743
 2652TIP3    H2 7898   3.398   6.619   2.785
 2653TIP3   OH2 7899   8.009   5.753   3.250
 2653TIP3    H1 7900   7.915   5.768   3.260
 2653TIP3    H2 7901   8.015   5.671   3.201
 2654TIP3   OH2 7902   3.174   1.104   0.320
 2654TIP3    H1 7903   3.215   1.024   0.353
 2654TIP3    H2 7904   3.235   1.174   0.343
 2655TIP3   OH2 7905   0.570   1.511   1.016
 2655TIP3    H1 7906   0.659   1.544   1.007
 2655TIP3    H2 7907   0.572   1.424   0.977
 2656TIP3   OH2 7908   6.580   3.125   3.224
 2656TIP3    H1 7909   6.604   3.197   3.282
 2656TIP3    H2 7910   6.597   3.046   3.275
 2657TIP3   OH2 7911   0.172   7.116   2.681
 2657TIP3    H1 7912   0.224   7.049   2.726
 2657TIP3    H2 7913   0.226   7.143   2.607
 2658TIP3   OH2 7914   1.182   0.297   2.133
 2658TIP3    H1 7915   1.101   0.263   2.094
 2658TIP3    H2 7916   1.155   0.374   2.182
 2659TIP3   OH2 7917   2.741  -0.014   0.438
 2659TIP3    H1 7918   2.679   0.008   0.508
 2659TIP3    H2 7919   2.788   0.068   0.421
 2660TIP3   OH2 7920   8.013   3.144   5.112
 2660TIP3    H1 7921   8.009   3.072   5.175
 2660TIP3    H2 7922   7.930   3.140   5.065
 2661TIP3   OH2 7923   6.201   5.419   4.671
 2661TIP3    H1 7924   6.222   5.342   4.619
 2661TIP3    H2 7925   6.283   5.470   4.672
 2662TIP3   OH2 7926   7.701   3.030   3.793
 2662TIP3    H1 7927   7.684   3.057   3.884
 2662TIP3    H2 7928   7.762   3.096   3.760
 2663TIP3   OH2 7929   3.743   4.656   3.225
 2663TIP3    H1 7930   3.793   4.588   3.270
 2663TIP3    H2 7931   3.668   4.610   3.187
 2664TIP3   OH2 7932   0.681   6.395   0.058
 2664TIP3    H1 7933   0.634   6.346  -0.010
 2664TIP3    H2 7934   0.761   6.345   0.073
 2665TIP3   OH2 7935   4.568   5.700   5.259
 2665TIP3    H1 7936   4.656   5.717   5.224
 2665TIP3    H2 7937   4.540   5.620   5.214
 2666TIP3   OH2 7938   4.103   4.777   0.653
 2666TIP3    H1 7939   4.137   4.736   0.573
 2666TIP3    H2 7940   4.165   4.847   0.672
 2667TIP3   OH2 7941   0.637   6.390   1.980
 2667TIP3    H1 7942   0.663   6.371   1.891
 2667TIP3    H2 7943   0.703   6.347   2.035
 2668TIP3   OH2 7944   4.527   7.312   0.726
 2668TIP3    H1 7945   4.487   7.394   0.695
 2668TIP3    H2 7946   4.610   7.340   0.766
 2669TIP3   OH2 7947   7.520   2.330   0.363
 2669TIP3    H1 7948   7.438   2.281   0.362
 2669TIP3    H2 7949   7.527   2.363   0.453
 2670TIP3   OH2 7950   6.337   6.185   3.331
 2670TIP3    H1 7951   6.430   6.175   3.307
 2670TIP3    H2 7952   6.337   6.191   3.426
 2671TIP3   OH2 7953   4.633   4.977   1.920
 2671TIP3    H1 7954   4.595   4.977   1.832
 2671TIP3    H2 7955   4.727   4.983   1.906
 2672TIP3   OH2 7956   6.540   1.941   6.244
 2672TIP3    H1 7957   6.518   2.034   6.239
 2672TIP3    H2 7958   6.613   1.937   6.306
 2673TIP3   OH2 7959   5.697   0.868   6.430
 2673TIP3    H1 7960   5.625   0.929   6.412
 2673TIP3    H2 7961   5.743   0.908   6.504
 2674TIP3   OH2 7962   6.271   7.722   1.959
 2674TIP3    H1 7963   6.297   7.684   1.875
 2674TIP3    H2 7964   6.354   7.737   2.005
 2675TIP3   OH2 7965   2.965   6.703   3.625
 2675TIP3    H1 7966   2.961   6.719   3.530
 2675TIP3    H2 7967   2.927   6.616   3.636
 2676TIP3   OH2 7968   2.312   0.956   1.222
 2676TIP3    H1 7969   2.292   0.923   1.310
 2676TIP3    H2 7970   2.350   0.881   1.176
 2677TIP3   OH2 7971   0.357   1.675   1.333
 2677TIP3    H1 7972   0.419   1.681   1.406
 2677TIP3    H2 7973   0.336   1.766   1.312
 2678TIP3   OH2 7974   3.461   3.002   5.685
 2678TIP3    H1 7975   3.494   3.091   5.697
 2678TIP3    H2 7976   3.383   2.998   5.739
 2679TIP3   OH2 7977   4.237   0.039   5.485
 2679TIP3    H1 7978   4.143   0.021   5.492
 2679TIP3    H2 7979   4.250   0.058   5.392
 2680TIP3   OH2 7980   0.177   3.749   3.036
 2680TIP3    H1 7981   0.256   3.769   2.986
 2680TIP3    H2 7982   0.137   3.676   2.989
 2681TIP3   OH2 7983   2.324   2.310   4.775
 2681TIP3    H1 7984   2.333   2.400   4.743
 2681TIP3    H2 7985   2.238   2.282   4.744
 2682TIP3   OH2 7986   2.807   5.401   2.820
 2682TIP3    H1 7987   2.826   5.429   2.730
 2682TIP3    H2 7988   2.770   5.313   2.810
 2683TIP3   OH2 7989   4.635   4.426   1.728
 2683TIP3    H1 7990   4.586   4.390   1.802
 2683TIP3    H2 7991   4.568   4.467   1.673
 2684TIP3   OH2 7992   6.615   3.206   6.361
 2684TIP3    H1 7993   6.658   3.158   6.290
 2684TIP3    H2 7994   6.668   3.285   6.372
 2685TIP3   OH2 7995   6.292   4.386   0.583
 2685TIP3    H1 7996   6.280   4.413   0.674
 2685TIP3    H2 7997   6.387   4.394   0.569
 2686TIP3   OH2 7998   4.195   0.499   6.220
 2686TIP3    H1 7999   4.256   0.512   6.292
 2686TIP3    H2 8000   4.110   0.529   6.253
 2687TIP3   OH2 8001   6.374   7.750   2.574
 2687TIP3    H1 8002   6.324   7.770   2.653
 2687TIP3    H2 8003   6.351   7.820   2.513
 2688TIP3   OH2 8004   5.873   4.736   1.219
 2688TIP3    H1 8005   5.886   4.687   1.138
 2688TIP3    H2 8006   5.793   4.700   1.257
 2689TIP3   OH2 8007  -0.017   6.618   6.067
 2689TIP3    H1 8008   0.074   6.621   6.098
 2689TIP3    H2 8009  -0.048   6.708   6.077
 2690TIP3   OH2 8010   4.677   4.101   6.174
 2690TIP3    H1 8011   4.717   4.135   6.095
 2690TIP3    H2 8012   4.747   4.052   6.218
 2691TIP3   OH2 8013   1.472   5.907   1.272
 2691TIP3    H1 8014   1.492   5.827   1.321
 2691TIP3    H2 8015   1.487   5.884   1.181
 2692TIP3   OH2 8016   7.409   4.311   0.394
 2692TIP3    H1 8017   7.459   4.325   0.314
 2692TIP3    H2 8018   7.453   4.238   0.437
 2693TIP3   OH2 8019   8.158   3.238   2.841
 2693TIP3    H1 8020   8.148   3.288   2.760
 2693TIP3    H2 8021   8.101   3.162   2.829
 2694TIP3   OH2 8022   1.862   6.254   1.854
 2694TIP3    H1 8023   1.862   6.167   1.814
 2694TIP3    H2 8024   1.784   6.297   1.820
 2695TIP3   OH2 8025   6.029   2.225   3.107
 2695TIP3    H1 8026   6.112   2.181   3.089
 2695TIP3    H2 8027   5.964   2.176   3.058
 2696TIP3   OH2 8028   2.427   0.241   6.469
 2696TIP3    H1 8029   2.375   0.162   6.456
 2696TIP3    H2 8030   2.482   0.221   6.544
 2697TIP3   OH2 8031   7.402   2.923   6.204
 2697TIP3    H1 8032   7.380   2.896   6.293
 2697TIP3    H2 8033   7.364   2.854   6.148
 2698TIP3   OH2 8034   6.839   7.488   6.101
 2698TIP3    H1 8035   6.847   7.452   6.013
 2698TIP3    H2 8036   6.914   7.453   6.149
 2699TIP3   OH2 8037   5.713   5.749   6.645
 2699TIP3    H1 8038   5.702   5.692   6.570
 2699TIP3    H2 8039   5.659   5.826   6.625
 2700TIP3   OH2 8040   8.330   0.642   3.664
 2700TIP3    H1 8041   8.240   0.611   3.669
 2700TIP3    H2 8042   8.372   0.583   3.602
 2701TIP3   OH2 8043   1.024   4.392   5.496
 2701TIP3    H1 8044   1.024   4.488   5.487
 2701TIP3    H2 8045   0.977   4.361   5.418
 2702TIP3   OH2 8046   2.742   6.304   3.808
 2702TIP3    H1 8047   2.674   6.368   3.789
 2702TIP3    H2 8048   2.698   6.236   3.859
 2703TIP3   OH2 8049   5.692   4.222   2.365
 2703TIP3    H1 8050   5.736   4.137   2.366
 2703TIP3    H2 8051   5.730   4.270   2.439
 2704TIP3   OH2 8052   7.858   0.762   4.060
 2704TIP3    H1 8053   7.912   0.755   3.981
 2704TIP3    H2 8054   7.896   0.699   4.121
 2705TIP3   OH2 8055   1.581   3.995   3.884
 2705TIP3    H1 8056   1.510   3.958   3.936
 2705TIP3    H2 8057   1.659   3.948   3.915
 2706TIP3   OH2 8058   6.830   3.871   1.605
 2706TIP3    H1 8059   6.914   3.895   1.565
 2706TIP3    H2 8060   6.769   3.936   1.570
 2707TIP3   OH2 8061   3.964   4.776   0.353
 2707TIP3    H1 8062   3.906   4.808   0.422
 2707TIP3    H2 8063   3.999   4.855   0.312
 2708TIP3   OH2 8064   5.169   2.243   2.087
 2708TIP3    H1 8065   5.074   2.243   2.099
 2708TIP3    H2 8066   5.186   2.317   2.028
 2709TIP3   OH2 8067   5.323   7.799   3.026
 2709TIP3    H1 8068   5.261   7.861   2.988
 2709TIP3    H2 8069   5.362   7.755   2.951
 2710TIP3   OH2 8070   0.433   2.650   1.627
 2710TIP3    H1 8071   0.472   2.701   1.555
 2710TIP3    H2 8072   0.339   2.656   1.611
 2711TIP3   OH2 8073   5.480   7.509   1.599
 2711TIP3    H1 8074   5.501   7.421   1.630
 2711TIP3    H2 8075   5.435   7.494   1.516
 2712TIP3   OH2 8076   4.381   4.388   0.448
 2712TIP3    H1 8077   4.329   4.321   0.492
 2712TIP3    H2 8078   4.384   4.461   0.511
 2713TIP3   OH2 8079   3.502   2.026   1.820
 2713TIP3    H1 8080   3.595   2.001   1.820
 2713TIP3    H2 8081   3.455   1.945   1.800
 2714TIP3   OH2 8082   0.525   7.296   4.490
 2714TIP3    H1 8083   0.608   7.322   4.528
 2714TIP3    H2 8084   0.537   7.304   4.396
 2715TIP3   OH2 8085   1.104   4.140   4.223
 2715TIP3    H1 8086   1.091   4.049   4.196
 2715TIP3    H2 8087   1.117   4.135   4.318
 2716TIP3   OH2 8088   8.129   0.984   1.441
 2716TIP3    H1 8089   8.073   0.974   1.518
 2716TIP3    H2 8090   8.118   1.075   1.415
 2717TIP3   OH2 8091   7.290   7.611   1.749
 2717TIP3    H1 8092   7.363   7.673   1.753
 2717TIP3    H2 8093   7.287   7.573   1.837
 2718TIP3   OH2 8094   7.607   1.035   6.805
 2718TIP3    H1 8095   7.664   1.022   6.881
 2718TIP3    H2 8096   7.546   1.103   6.832
 2719TIP3   OH2 8097   8.385   1.003   6.707
 2719TIP3    H1 8098   8.294   1.021   6.685
 2719TIP3    H2 8099   8.394   1.027   6.799
 2720TIP3   OH2 8100   4.393   1.152   1.201
 2720TIP3    H1 8101   4.436   1.131   1.119
 2720TIP3    H2 8102   4.461   1.193   1.254
 2721TIP3   OH2 8103   0.920   6.507   2.131
 2721TIP3    H1 8104   0.880   6.520   2.217
 2721TIP3    H2 8105   0.902   6.415   2.110
 2722TIP3   OH2 8106   7.054   3.743   5.873
 2722TIP3    H1 8107   7.011   3.658   5.865
 2722TIP3    H2 8108   6.983   3.805   5.890
 2723TIP3   OH2 8109   3.788   5.166   6.610
 2723TIP3    H1 8110   3.737   5.135   6.685
 2723TIP3    H2 8111   3.811   5.256   6.633
 2724TIP3   OH2 8112   3.630   7.687   6.395
 2724TIP3    H1 8113   3.582   7.738   6.330
 2724TIP3    H2 8114   3.622   7.737   6.476
 2725TIP3   OH2 8115   1.999   3.014   0.600
 2725TIP3    H1 8116   1.994   3.106   0.575
 2725TIP3    H2 8117   1.934   2.970   0.544
 2726TIP3   OH2 8118   5.178   2.278   5.502
 2726TIP3    H1 8119   5.115   2.314   5.440
 2726TIP3    H2 8120   5.162   2.326   5.584
 2727TIP3   OH2 8121   4.095   2.927   6.660
 2727TIP3    H1 8122   4.035   2.868   6.614
 2727TIP3    H2 8123   4.057   3.014   6.648
 2728TIP3   OH2 8124   4.630   4.126   4.800
 2728TIP3    H1 8125   4.635   4.039   4.840
 2728TIP3    H2 8126   4.578   4.177   4.863
 2729TIP3   OH2 8127   0.426   5.114   1.320
 2729TIP3    H1 8128   0.419   5.198   1.274
 2729TIP3    H2 8129   0.474   5.057   1.260
 2730TIP3   OH2 8130   0.367   2.242   1.718
 2730TIP3    H1 8131   0.273   2.222   1.721
 2730TIP3    H2 8132   0.380   2.283   1.632
 2731TIP3   OH2 8133   7.797   2.877   1.182
 2731TIP3    H1 8134   7.708   2.893   1.214
 2731TIP3    H2 8135   7.786   2.863   1.087
 2732TIP3   OH2 8136   2.963   0.132   4.347
 2732TIP3    H1 8137   2.968   0.189   4.271
 2732TIP3    H2 8138   2.934   0.047   4.312
 2733TIP3   OH2 8139   1.255   6.267   5.092
 2733TIP3    H1 8140   1.297   6.210   5.156
 2733TIP3    H2 8141   1.266   6.221   5.008
 2734TIP3   OH2 8142   7.589   5.041   2.133
 2734TIP3    H1 8143   7.520   5.049   2.199
 2734TIP3    H2 8144   7.565   5.105   2.065
 2735TIP3   OH2 8145   4.737   2.742   4.767
 2735TIP3    H1 8146   4.700   2.688   4.836
 2735TIP3    H2 8147   4.713   2.698   4.686
 2736TIP3   OH2 8148   3.953   7.172   2.640
 2736TIP3    H1 8149   3.987   7.186   2.729
 2736TIP3    H2 8150   3.914   7.084   2.643
 2737TIP3   OH2 8151   2.144   7.344   1.147
 2737TIP3    H1 8152   2.213   7.315   1.087
 2737TIP3    H2 8153   2.090   7.404   1.096
 2738TIP3   OH2 8154   4.592   2.659   4.540
 2738TIP3    H1 8155   4.526   2.610   4.589
 2738TIP3    H2 8156   4.636   2.593   4.486
 2739TIP3   OH2 8157   5.141   4.171   0.930
 2739TIP3    H1 8158   5.112   4.127   0.850
 2739TIP3    H2 8159   5.060   4.204   0.969
 2740TIP3   OH2 8160   4.810   7.183   3.969
 2740TIP3    H1 8161   4.715   7.176   3.960
 2740TIP3    H2 8162   4.844   7.160   3.882
 2741TIP3   OH2 8163   4.043   4.116   3.379
 2741TIP3    H1 8164   4.122   4.087   3.424
 2741TIP3    H2 8165   3.974   4.111   3.446
 2742TIP3   OH2 8166   3.453   0.054   6.290
 2742TIP3    H1 8167   3.532   0.005   6.311
 2742TIP3    H2 8168   3.485   0.140   6.263
 2743TIP3   OH2 8169   4.576   6.830   6.653
 2743TIP3    H1 8170   4.589   6.752   6.707
 2743TIP3    H2 8171   4.483   6.851   6.663
 2744TIP3   OH2 8172   5.832   4.217   3.326
 2744TIP3    H1 8173   5.815   4.311   3.319
 2744TIP3    H2 8174   5.891   4.209   3.401
 2745TIP3   OH2 8175   6.990   1.508   1.148
 2745TIP3    H1 8176   6.996   1.412   1.150
 2745TIP3    H2 8177   6.896   1.526   1.138
 2746TIP3   OH2 8178   5.152   4.241   0.365
 2746TIP3    H1 8179   5.224   4.193   0.325
 2746TIP3    H2 8180   5.180   4.256   0.455
 2747TIP3   OH2 8181   8.268   1.724   5.498
 2747TIP3    H1 8182   8.222   1.697   5.577
 2747TIP3    H2 8183   8.260   1.649   5.439
 2748TIP3   OH2 8184   8.295   6.314   0.980
 2748TIP3    H1 8185   8.220   6.320   1.039
 2748TIP3    H2 8186   8.302   6.221   0.959
 2749TIP3   OH2 8187   2.711   1.509   3.331
 2749TIP3    H1 8188   2.789   1.559   3.307
 2749TIP3    H2 8189   2.738   1.418   3.325
 2750TIP3   OH2 8190   2.520   2.831   2.296
 2750TIP3    H1 8191   2.493   2.748   2.259
 2750TIP3    H2 8192   2.614   2.822   2.311
 2751TIP3   OH2 8193   3.825   0.456   3.746
 2751TIP3    H1 8194   3.853   0.480   3.834
 2751TIP3    H2 8195   3.733   0.484   3.741
 2752TIP3   OH2 8196   6.820   6.150   1.890
 2752TIP3    H1 8197   6.798   6.216   1.956
 2752TIP3    H2 8198   6.739   6.101   1.878
 2753TIP3   OH2 8199   3.198   1.372   4.182
 2753TIP3    H1 8200   3.205   1.450   4.236
 2753TIP3    H2 8201   3.145   1.312   4.234
 2754TIP3   OH2 8202   1.640   3.519   2.764
 2754TIP3    H1 8203   1.719   3.570   2.780
 2754TIP3    H2 8204   1.577   3.552   2.828
 2755TIP3   OH2 8205   3.585   7.369   5.329
 2755TIP3    H1 8206   3.605   7.275   5.335
 2755TIP3    H2 8207   3.526   7.386   5.402
 2756TIP3   OH2 8208   8.295   3.885   3.843
 2756TIP3    H1 8209   8.241   3.896   3.921
 2756TIP3    H2 8210   8.328   3.973   3.825
 2757TIP3   OH2 8211   0.314   6.428   0.740
 2757TIP3    H1 8212   0.258   6.441   0.816
 2757TIP3    H2 8213   0.345   6.338   0.747
 2758TIP3   OH2 8214   0.230   1.047   3.913
 2758TIP3    H1 8215   0.218   1.114   3.845
 2758TIP3    H2 8216   0.142   1.012   3.928
 2759TIP3   OH2 8217   4.628   1.757   3.150
 2759TIP3    H1 8218   4.661   1.743   3.240
 2759TIP3    H2 8219   4.559   1.822   3.160
 2760TIP3   OH2 8220   7.065   0.942   1.432
 2760TIP3    H1 8221   7.074   0.902   1.345
 2760TIP3    H2 8222   7.154   0.945   1.467
 2761TIP3   OH2 8223   2.080   2.976   3.893
 2761TIP3    H1 8224   2.121   2.893   3.871
 2761TIP3    H2 8225   2.148   3.042   3.881
 2762TIP3   OH2 8226   0.379   7.453   1.733
 2762TIP3    H1 8227   0.431   7.441   1.812
 2762TIP3    H2 8228   0.434   7.417   1.663
 2763TIP3   OH2 8229   3.988   2.914   4.906
 2763TIP3    H1 8230   4.052   2.843   4.893
 2763TIP3    H2 8231   3.903   2.872   4.893
 2764TIP3   OH2 8232   0.687   7.394   3.494
 2764TIP3    H1 8233   0.749   7.321   3.492
 2764TIP3    H2 8234   0.738   7.467   3.528
 2765TIP3   OH2 8235   4.833   2.138   5.798
 2765TIP3    H1 8236   4.801   2.135   5.708
 2765TIP3    H2 8237   4.761   2.101   5.850
 2766TIP3   OH2 8238   0.181   5.898   1.372
 2766TIP3    H1 8239   0.086   5.891   1.384
 2766TIP3    H2 8240   0.207   5.967   1.433
 2767TIP3   OH2 8241   4.059   1.927   3.713
 2767TIP3    H1 8242   4.023   2.014   3.694
 2767TIP3    H2 8243   4.113   1.907   3.637
 2768TIP3   OH2 8244   5.205   1.959   6.620
 2768TIP3    H1 8245   5.264   2.018   6.573
 2768TIP3    H2 8246   5.210   1.988   6.712
 2769TIP3   OH2 8247   0.783   6.025   1.908
 2769TIP3    H1 8248   0.734   6.051   1.987
 2769TIP3    H2 8249   0.797   5.931   1.919
 2770TIP3   OH2 8250   2.849   5.590   4.116
 2770TIP3    H1 8251   2.869   5.528   4.045
 2770TIP3    H2 8252   2.792   5.655   4.075
 2771TIP3   OH2 8253   2.137   2.635   5.172
 2771TIP3    H1 8254   2.193   2.705   5.205
 2771TIP3    H2 8255   2.185   2.555   5.189
 2772TIP3   OH2 8256   7.578   5.162   1.417
 2772TIP3    H1 8257   7.518   5.160   1.343
 2772TIP3    H2 8258   7.579   5.253   1.445
 2773TIP3   OH2 8259   0.130   7.654   4.352
 2773TIP3    H1 8260   0.154   7.717   4.285
 2773TIP3    H2 8261   0.172   7.572   4.324
 2774TIP3   OH2 8262   3.000   1.686   3.313
 2774TIP3    H1 8263   2.987   1.607   3.261
 2774TIP3    H2 8264   2.934   1.747   3.281
 2775TIP3   OH2 8265   1.149   7.404   1.423
 2775TIP3    H1 8266   1.060   7.371   1.408
 2775TIP3    H2 8267   1.142   7.498   1.408
 2776TIP3   OH2 8268   2.400   3.381   5.733
 2776TIP3    H1 8269   2.431   3.303   5.780
 2776TIP3    H2 8270   2.307   3.387   5.754
 2777TIP3   OH2 8271   3.851   3.829   4.527
 2777TIP3    H1 8272   3.820   3.863   4.611
 2777TIP3    H2 8273   3.935   3.874   4.513
 2778TIP3   OH2 8274   4.137   3.026   5.862
 2778TIP3    H1 8275   4.060   3.080   5.880
 2778TIP3    H2 8276   4.103   2.951   5.814
 2779TIP3   OH2 8277   2.167   0.506  -0.040
 2779TIP3    H1 8278   2.149   0.597  -0.019
 2779TIP3    H2 8279   2.197   0.468   0.043
 2780TIP3   OH2 8280   6.953   5.367  -0.019
 2780TIP3    H1 8281   7.048   5.366  -0.008
 2780TIP3    H2 8282   6.919   5.336   0.065
 2781TIP3   OH2 8283   6.239   3.426   1.134
 2781TIP3    H1 8284   6.244   3.433   1.039
 2781TIP3    H2 8285   6.196   3.342   1.149
 2782TIP3   OH2 8286   0.757   2.217   2.651
 2782TIP3    H1 8287   0.692   2.181   2.592
 2782TIP3    H2 8288   0.719   2.207   2.738
 2783TIP3   OH2 8289   8.071   7.386   2.720
 2783TIP3    H1 8290   8.008   7.371   2.791
 2783TIP3    H2 8291   8.142   7.324   2.738
 2784TIP3   OH2 8292   6.816   4.297   1.014
 2784TIP3    H1 8293   6.748   4.349   0.970
 2784TIP3    H2 8294   6.877   4.274   0.944
 2785TIP3   OH2 8295   5.971   2.673   6.191
 2785TIP3    H1 8296   5.959   2.584   6.159
 2785TIP3    H2 8297   5.924   2.728   6.128
 2786TIP3   OH2 8298   6.991   6.851   1.739
 2786TIP3    H1 8299   6.957   6.883   1.656
 2786TIP3    H2 8300   7.064   6.794   1.715
 2787TIP3   OH2 8301   7.240   1.196   4.478
 2787TIP3    H1 8302   7.258   1.255   4.551
 2787TIP3    H2 8303   7.308   1.128   4.485
 2788TIP3   OH2 8304   0.348   1.358   1.364
 2788TIP3    H1 8305   0.393   1.380   1.445
 2788TIP3    H2 8306   0.339   1.442   1.318
 2789TIP3   OH2 8307   0.794   4.519   1.998
 2789TIP3    H1 8308   0.718   4.543   1.944
 2789TIP3    H2 8309   0.849   4.466   1.940
 2790TIP3   OH2 8310   2.243   4.899   5.391
 2790TIP3    H1 8311   2.285   4.905   5.305
 2790TIP3    H2 8312   2.233   4.990   5.419
 2791TIP3   OH2 8313   5.552   3.675   0.407
 2791TIP3    H1 8314   5.635   3.637   0.436
 2791TIP3    H2 8315   5.485   3.619   0.446
 2792TIP3   OH2 8316   8.310   3.839   4.268
 2792TIP3    H1 8317   8.261   3.895   4.208
 2792TIP3    H2 8318   8.317   3.755   4.223
 2793TIP3   OH2 8319   2.117   0.341   5.100
 2793TIP3    H1 8320   2.141   0.287   5.176
 2793TIP3    H2 8321   2.197   0.387   5.077
 2794TIP3   OH2 8322   6.692   1.390   1.967
 2794TIP3    H1 8323   6.678   1.295   1.967
 2794TIP3    H2 8324   6.772   1.402   2.019
 2795TIP3   OH2 8325   6.313   4.847   3.452
 2795TIP3    H1 8326   6.398   4.886   3.431
 2795TIP3    H2 8327   6.274   4.907   3.516
 2796TIP3   OH2 8328   0.338   1.173   3.705
 2796TIP3    H1 8329   0.340   1.087   3.747
 2796TIP3    H2 8330   0.425   1.184   3.668
 2797TIP3   OH2 8331   0.564   6.747   4.211
 2797TIP3    H1 8332   0.625   6.820   4.207
 2797TIP3    H2 8333   0.620   6.670   4.220
 2798TIP3   OH2 8334   2.541   7.418   6.802
 2798TIP3    H1 8335   2.529   7.470   6.882
 2798TIP3    H2 8336   2.626   7.446   6.768
 2799TIP3   OH2 8337   3.291   4.442   1.854
 2799TIP3    H1 8338   3.245   4.456   1.772
 2799TIP3    H2 8339   3.228   4.395   1.909
 2800TIP3   OH2 8340   8.027   3.084   1.158
 2800TIP3    H1 8341   7.946   3.115   1.199
 2800TIP3    H2 8342   8.000   3.054   1.071
 2801TIP3   OH2 8343   8.120   6.225  -0.013
 2801TIP3    H1 8344   8.093   6.135   0.003
 2801TIP3    H2 8345   8.081   6.275   0.059
 2802TIP3   OH2 8346   4.608   5.063   1.468
 2802TIP3    H1 8347   4.611   5.159   1.467
 2802TIP3    H2 8348   4.555   5.042   1.545
 2803TIP3   OH2 8349   1.696   3.804   0.267
 2803TIP3    H1 8350   1.691   3.708   0.274
 2803TIP3    H2 8351   1.623   3.836   0.321
 2804TIP3   OH2 8352   1.356   4.660   3.987
 2804TIP3    H1 8353   1.383   4.644   4.077
 2804TIP3    H2 8354   1.382   4.580   3.940
 2805TIP3   OH2 8355   7.066   0.078   2.032
 2805TIP3    H1 8356   6.979   0.119   2.034
 2805TIP3    H2 8357   7.098   0.096   1.944
 2806TIP3   OH2 8358   6.689   4.053   0.928
 2806TIP3    H1 8359   6.627   4.098   0.985
 2806TIP3    H2 8360   6.693   4.107   0.849
 2807TIP3   OH2 8361   4.757   4.336   4.606
 2807TIP3    H1 8362   4.669   4.371   4.604
 2807TIP3    H2 8363   4.746   4.243   4.629
 2808TIP3   OH2 8364   7.963   4.863   3.157
 2808TIP3    H1 8365   7.939   4.792   3.216
 2808TIP3    H2 8366   7.938   4.832   3.070
 2809TIP3   OH2 8367   7.752   1.002   3.290
 2809TIP3    H1 8368   7.800   1.051   3.223
 2809TIP3    H2 8369   7.764   1.054   3.370
 2810TIP3   OH2 8370   1.149   4.965   5.204
 2810TIP3    H1 8371   1.113   5.052   5.220
 2810TIP3    H2 8372   1.141   4.952   5.110
 2811TIP3   OH2 8373   2.795   7.078   1.678
 2811TIP3    H1 8374   2.745   7.154   1.709
 2811TIP3    H2 8375   2.797   7.088   1.583
 2812TIP3   OH2 8376   6.966   2.736   3.220
 2812TIP3    H1 8377   6.897   2.704   3.279
 2812TIP3    H2 8378   6.929   2.816   3.182
 2813TIP3   OH2 8379   8.265   4.127   1.076
 2813TIP3    H1 8380   8.256   4.064   1.148
 2813TIP3    H2 8381   8.344   4.098   1.029
 2814TIP3   OH2 8382   5.855   6.576   2.549
 2814TIP3    H1 8383   5.864   6.514   2.477
 2814TIP3    H2 8384   5.840   6.522   2.626
 2815TIP3   OH2 8385   3.059   2.088   2.042
 2815TIP3    H1 8386   3.090   2.179   2.040
 2815TIP3    H2 8387   2.966   2.094   2.019
 2816TIP3   OH2 8388   5.827   7.162   6.200
 2816TIP3    H1 8389   5.772   7.169   6.121
 2816TIP3    H2 8390   5.835   7.068   6.215
 2817TIP3   OH2 8391   2.522   6.769  -0.010
 2817TIP3    H1 8392   2.524   6.835   0.059
 2817TIP3    H2 8393   2.606   6.724  -0.003
 2818TIP3   OH2 8394   2.455   2.186   5.411
 2818TIP3    H1 8395   2.366   2.211   5.433
 2818TIP3    H2 8396   2.471   2.107   5.462
 2819TIP3   OH2 8397   6.458   5.100   3.969
 2819TIP3    H1 8398   6.505   5.175   4.004
 2819TIP3    H2 8399   6.376   5.097   4.019
 2820TIP3   OH2 8400   4.957   3.129   4.093
 2820TIP3    H1 8401   4.957   3.089   4.180
 2820TIP3    H2 8402   5.039   3.100   4.053
 2821TIP3   OH2 8403   3.749   0.235   5.364
 2821TIP3    H1 8404   3.728   0.253   5.273
 2821TIP3    H2 8405   3.775   0.320   5.400
 2822TIP3   OH2 8406   6.244   7.150   6.036
 2822TIP3    H1 8407   6.300   7.084   6.077
 2822TIP3    H2 8408   6.163   7.103   6.018
 2823TIP3   OH2 8409   3.056   4.493   6.784
 2823TIP3    H1 8410   2.965   4.490   6.755
 2823TIP3    H2 8411   3.104   4.444   6.718
 2824TIP3   OH2 8412   7.384   2.152   2.263
 2824TIP3    H1 8413   7.396   2.206   2.185
 2824TIP3    H2 8414   7.365   2.215   2.333
 2825TIP3   OH2 8415   6.199   3.482   4.732
 2825TIP3    H1 8416   6.170   3.566   4.766
 2825TIP3    H2 8417   6.293   3.481   4.749
 2826TIP3   OH2 8418   0.137   0.642   4.819
 2826TIP3    H1 8419   0.210   0.604   4.869
 2826TIP3    H2 8420   0.112   0.574   4.757
 2827TIP3   OH2 8421   2.795   2.775   2.256
 2827TIP3    H1 8422   2.829   2.692   2.290
 2827TIP3    H2 8423   2.777   2.757   2.164
 2828TIP3   OH2 8424   4.073   3.982   5.232
 2828TIP3    H1 8425   4.043   4.069   5.258
 2828TIP3    H2 8426   4.032   3.923   5.296
 2829TIP3   OH2 8427   7.571   0.187   2.169
 2829TIP3    H1 8428   7.633   0.179   2.096
 2829TIP3    H2 8429   7.614   0.248   2.229
 2830TIP3   OH2 8430   5.724   5.832   2.609
 2830TIP3    H1 8431   5.665   5.776   2.660
 2830TIP3    H2 8432   5.803   5.838   2.663
 2831TIP3   OH2 8433   0.781   7.550   6.302
 2831TIP3    H1 8434   0.761   7.538   6.395
 2831TIP3    H2 8435   0.703   7.591   6.266
 2832TIP3   OH2 8436   8.094   2.010   6.807
 2832TIP3    H1 8437   8.130   2.039   6.723
 2832TIP3    H2 8438   8.149   2.052   6.873
 2833TIP3   OH2 8439   6.386   6.116   1.233
 2833TIP3    H1 8440   6.420   6.198   1.268
 2833TIP3    H2 8441   6.438   6.100   1.154
 2834TIP3   OH2 8442   1.346   4.860   1.679
 2834TIP3    H1 8443   1.302   4.801   1.618
 2834TIP3    H2 8444   1.277   4.921   1.707
 2835TIP3   OH2 8445   3.680   3.823   0.814
 2835TIP3    H1 8446   3.749   3.778   0.864
 2835TIP3    H2 8447   3.724   3.851   0.733
 2836TIP3   OH2 8448   8.004   5.199   0.709
 2836TIP3    H1 8449   8.006   5.109   0.676
 2836TIP3    H2 8450   7.953   5.193   0.790
 2837TIP3   OH2 8451   4.485   5.638   3.428
 2837TIP3    H1 8452   4.425   5.615   3.356
 2837TIP3    H2 8453   4.465   5.574   3.496
 2838TIP3   OH2 8454   5.211   5.366   4.823
 2838TIP3    H1 8455   5.182   5.276   4.813
 2838TIP3    H2 8456   5.307   5.361   4.822
 2839TIP3   OH2 8457   7.205   6.087   2.241
 2839TIP3    H1 8458   7.162   6.107   2.158
 2839TIP3    H2 8459   7.186   6.163   2.296
 2840TIP3   OH2 8460   1.846   5.112   4.108
 2840TIP3    H1 8461   1.812   5.107   4.018
 2840TIP3    H2 8462   1.792   5.178   4.150
 2841TIP3   OH2 8463   2.916   4.216   0.889
 2841TIP3    H1 8464   2.876   4.146   0.941
 2841TIP3    H2 8465   3.011   4.203   0.900
 2842TIP3   OH2 8466   0.892   0.889   1.767
 2842TIP3    H1 8467   0.982   0.920   1.757
 2842TIP3    H2 8468   0.896   0.796   1.748
 2843TIP3   OH2 8469   5.223   3.810   2.112
 2843TIP3    H1 8470   5.186   3.789   2.197
 2843TIP3    H2 8471   5.291   3.744   2.098
 2844TIP3   OH2 8472   3.540   3.117   1.330
 2844TIP3    H1 8473   3.566   3.142   1.418
 2844TIP3    H2 8474   3.607   3.155   1.273
 2845TIP3   OH2 8475   5.308   5.820   3.120
 2845TIP3    H1 8476   5.385   5.875   3.128
 2845TIP3    H2 8477   5.260   5.832   3.202
 2846TIP3   OH2 8478   3.189   4.211   0.625
 2846TIP3    H1 8479   3.094   4.202   0.629
 2846TIP3    H2 8480   3.215   4.231   0.715
 2847TIP3   OH2 8481   5.104   2.329   1.830
 2847TIP3    H1 8482   5.078   2.245   1.793
 2847TIP3    H2 8483   5.041   2.392   1.794
 2848TIP3   OH2 8484   5.179   7.483   5.627
 2848TIP3    H1 8485   5.147   7.400   5.663
 2848TIP3    H2 8486   5.116   7.548   5.658
 2849TIP3   OH2 8487   4.919   0.794   2.456
 2849TIP3    H1 8488   4.871   0.800   2.539
 2849TIP3    H2 8489   4.867   0.846   2.394
 2850TIP3   OH2 8490   0.144   7.732   1.421
 2850TIP3    H1 8491   0.237   7.707   1.426
 2850TIP3    H2 8492   0.098   7.649   1.409
 2851TIP3   OH2 8493   1.108   7.672   0.874
 2851TIP3    H1 8494   1.140   7.759   0.898
 2851TIP3    H2 8495   1.185   7.627   0.840
 2852TIP3   OH2 8496   3.167   5.412   5.685
 2852TIP3    H1 8497   3.161   5.473   5.612
 2852TIP3    H2 8498   3.077   5.389   5.706
 2853TIP3   OH2 8499   1.697   6.796   2.205
 2853TIP3    H1 8500   1.653   6.796   2.120
 2853TIP3    H2 8501   1.735   6.883   2.212
 2854TIP3   OH2 8502   1.554   0.829   5.330
 2854TIP3    H1 8503   1.512   0.828   5.244
 2854TIP3    H2 8504   1.511   0.759   5.379
 2855TIP3   OH2 8505   0.214   6.344   5.435
 2855TIP3    H1 8506   0.275   6.417   5.450
 2855TIP3    H2 8507   0.269   6.266   5.437
 2856TIP3   OH2 8508   7.229   0.561   6.328
 2856TIP3    H1 8509   7.155   0.508   6.298
 2856TIP3    H2 8510   7.194   0.611   6.401
 2857TIP3   OH2 8511   7.564   6.578   6.784
 2857TIP3    H1 8512   7.629   6.626   6.733
 2857TIP3    H2 8513   7.510   6.645   6.825
 2858TIP3   OH2 8514   6.522   3.081   4.262
 2858TIP3    H1 8515   6.431   3.053   4.248
 2858TIP3    H2 8516   6.530   3.161   4.210
 2859TIP3   OH2 8517   0.289   6.424   1.166
 2859TIP3    H1 8518   0.296   6.333   1.135
 2859TIP3    H2 8519   0.373   6.464   1.144
 2860TIP3   OH2 8520   1.642   0.719   1.434
 2860TIP3    H1 8521   1.595   0.636   1.441
 2860TIP3    H2 8522   1.633   0.759   1.521
 2861TIP3   OH2 8523   6.862   1.532   0.585
 2861TIP3    H1 8524   6.774   1.493   0.582
 2861TIP3    H2 8525   6.893   1.514   0.674
 2862TIP3   OH2 8526   4.695   2.635   6.324
 2862TIP3    H1 8527   4.778   2.681   6.314
 2862TIP3    H2 8528   4.656   2.636   6.237
 2863TIP3   OH2 8529   6.196   5.798   1.739
 2863TIP3    H1 8530   6.111   5.772   1.705
 2863TIP3    H2 8531   6.195   5.770   1.830
 2864TIP3   OH2 8532   4.564   6.555   1.542
 2864TIP3    H1 8533   4.621   6.491   1.584
 2864TIP3    H2 8534   4.615   6.588   1.468
 2865TIP3   OH2 8535   3.678   2.079   5.955
 2865TIP3    H1 8536   3.758   2.077   6.008
 2865TIP3    H2 8537   3.702   2.132   5.879
 2866TIP3   OH2 8538   6.507   0.500   0.849
 2866TIP3    H1 8539   6.566   0.561   0.804
 2866TIP3    H2 8540   6.551   0.480   0.931
 2867TIP3   OH2 8541   7.262   6.349   3.306
 2867TIP3    H1 8542   7.346   6.316   3.337
 2867TIP3    H2 8543   7.281   6.438   3.274
 2868TIP3   OH2 8544   1.055   2.086   2.450
 2868TIP3    H1 8545   1.084   2.170   2.486
 2868TIP3    H2 8546   1.102   2.077   2.368
 2869TIP3   OH2 8547   6.787   0.128   2.304
 2869TIP3    H1 8548   6.876   0.105   2.331
 2869TIP3    H2 8549   6.798   0.182   2.226
 2870TIP3   OH2 8550   3.508   5.762   4.907
 2870TIP3    H1 8551   3.475   5.675   4.931
 2870TIP3    H2 8552   3.430   5.816   4.900
 2871TIP3   OH2 8553   7.584   4.694   3.505
 2871TIP3    H1 8554   7.544   4.759   3.446
 2871TIP3    H2 8555   7.595   4.741   3.588
 2872TIP3   OH2 8556   3.085   4.004   0.870
 2872TIP3    H1 8557   3.152   4.058   0.911
 2872TIP3    H2 8558   3.031   3.974   0.943
 2873TIP3   OH2 8559   6.354   3.888   2.446
 2873TIP3    H1 8560   6.286   3.837   2.489
 2873TIP3    H2 8561   6.346   3.866   2.353
 2874TIP3   OH2 8562   6.265   5.770   5.184
 2874TIP3    H1 8563   6.274   5.864   5.168
 2874TIP3    H2 8564   6.316   5.729   5.115
 2875TIP3   OH2 8565   5.331   1.008   2.401
 2875TIP3    H1 8566   5.386   0.950   2.349
 2875TIP3    H2 8567   5.287   1.064   2.336
 2876TIP3   OH2 8568   2.563   0.661   5.509
 2876TIP3    H1 8569   2.543   0.682   5.601
 2876TIP3    H2 8570   2.652   0.626   5.511
 2877TIP3   OH2 8571   7.851   4.684   1.821
 2877TIP3    H1 8572   7.874   4.595   1.849
 2877TIP3    H2 8573   7.857   4.681   1.725
 2878TIP3   OH2 8574   5.953   1.380   1.848
 2878TIP3    H1 8575   5.859   1.377   1.833
 2878TIP3    H2 8576   5.989   1.425   1.771
 2879TIP3   OH2 8577   8.263   7.342   1.913
 2879TIP3    H1 8578   8.343   7.336   1.860
 2879TIP3    H2 8579   8.279   7.285   1.988
 2880TIP3   OH2 8580   5.053   0.271   5.965
 2880TIP3    H1 8581   5.085   0.219   5.891
 2880TIP3    H2 8582   5.113   0.345   5.970
 2881TIP3   OH2 8583   3.768   2.119   2.739
 2881TIP3    H1 8584   3.794   2.177   2.668
 2881TIP3    H2 8585   3.788   2.031   2.707
 2882TIP3   OH2 8586   5.503   2.244   5.025
 2882TIP3    H1 8587   5.476   2.249   5.116
 2882TIP3    H2 8588   5.486   2.331   4.989
 2883TIP3   OH2 8589   5.355   4.320   4.329
 2883TIP3    H1 8590   5.367   4.257   4.257
 2883TIP3    H2 8591   5.263   4.310   4.353
 2884TIP3   OH2 8592   5.685   3.818   3.424
 2884TIP3    H1 8593   5.751   3.874   3.465
 2884TIP3    H2 8594   5.631   3.877   3.372
 2885TIP3   OH2 8595   6.088   7.357   3.381
 2885TIP3    H1 8596   6.174   7.386   3.348
 2885TIP3    H2 8597   6.103   7.268   3.412
 2886TIP3   OH2 8598   3.114   2.124   5.692
 2886TIP3    H1 8599   3.147   2.206   5.728
 2886TIP3    H2 8600   3.115   2.064   5.767
 2887TIP3   OH2 8601   7.908   1.226   6.695
 2887TIP3    H1 8602   7.886   1.319   6.704
 2887TIP3    H2 8603   7.949   1.203   6.778
 2888TIP3   OH2 8604   6.293   2.608   5.445
 2888TIP3    H1 8605   6.302   2.520   5.410
 2888TIP3    H2 8606   6.383   2.635   5.466
 2889TIP3   OH2 8607   1.488   2.466   0.120
 2889TIP3    H1 8608   1.539   2.521   0.179
 2889TIP3    H2 8609   1.532   2.475   0.035
 2890TIP3   OH2 8610   0.216   6.370   2.312
 2890TIP3    H1 8611   0.168   6.400   2.389
 2890TIP3    H2 8612   0.183   6.424   2.240
 2891TIP3   OH2 8613   6.315   3.091   2.541
 2891TIP3    H1 8614   6.292   2.998   2.550
 2891TIP3    H2 8615   6.394   3.090   2.486
 2892TIP3   OH2 8616   7.830   4.677   4.705
 2892TIP3    H1 8617   7.821   4.593   4.750
 2892TIP3    H2 8618   7.895   4.661   4.637
 2893TIP3   OH2 8619   3.631   5.714   4.154
 2893TIP3    H1 8620   3.572   5.638   4.158
 2893TIP3    H2 8621   3.645   5.727   4.060
 2894TIP3   OH2 8622   4.112   7.499   4.142
 2894TIP3    H1 8623   4.150   7.578   4.104
 2894TIP3    H2 8624   4.029   7.528   4.181
 2895TIP3   OH2 8625   1.105   3.255   1.803
 2895TIP3    H1 8626   1.090   3.348   1.786
 2895TIP3    H2 8627   1.075   3.211   1.724
 2896TIP3   OH2 8628   0.913   0.326   5.911
 2896TIP3    H1 8629   0.967   0.378   5.971
 2896TIP3    H2 8630   0.961   0.328   5.828
 2897TIP3   OH2 8631   3.638   1.086   2.339
 2897TIP3    H1 8632   3.624   1.016   2.276
 2897TIP3    H2 8633   3.550   1.119   2.358
 2898TIP3   OH2 8634   7.968   4.724   2.511
 2898TIP3    H1 8635   7.884   4.731   2.555
 2898TIP3    H2 8636   7.948   4.735   2.418
 2899TIP3   OH2 8637   5.116   4.892   0.480
 2899TIP3    H1 8638   5.086   4.979   0.507
 2899TIP3    H2 8639   5.083   4.882   0.391
 2900TIP3   OH2 8640   2.292   0.275   1.865
 2900TIP3    H1 8641   2.306   0.329   1.943
 2900TIP3    H2 8642   2.378   0.271   1.823
 2901TIP3   OH2 8643   7.900   5.552   0.013
 2901TIP3    H1 8644   7.809   5.579   0.002
 2901TIP3    H2 8645   7.905   5.519   0.103
 2902TIP3   OH2 8646   0.492   6.948   2.440
 2902TIP3    H1 8647   0.587   6.938   2.450
 2902TIP3    H2 8648   0.461   6.965   2.528
 2903TIP3   OH2 8649   2.540   0.469   1.014
 2903TIP3    H1 8650   2.540   0.419   1.095
 2903TIP3    H2 8651   2.631   0.465   0.983
 2904TIP3   OH2 8652   4.873   3.074   3.297
 2904TIP3    H1 8653   4.923   2.993   3.297
 2904TIP3    H2 8654   4.869   3.100   3.389
 2905TIP3   OH2 8655   0.511   4.766   4.884
 2905TIP3    H1 8656   0.475   4.837   4.938
 2905TIP3    H2 8657   0.453   4.762   4.808
 2906TIP3   OH2 8658   7.622   2.902   4.751
 2906TIP3    H1 8659   7.704   2.940   4.782
 2906TIP3    H2 8660   7.580   2.971   4.700
 2907TIP3   OH2 8661   7.924   1.224   0.947
 2907TIP3    H1 8662   8.006   1.197   0.989
 2907TIP3    H2 8663   7.947   1.238   0.856
 2908TIP3   OH2 8664   1.230   3.804   2.078
 2908TIP3    H1 8665   1.206   3.782   2.168
 2908TIP3    H2 8666   1.152   3.848   2.043
 2909TIP3   OH2 8667   0.315   4.877   0.922
 2909TIP3    H1 8668   0.280   4.960   0.889
 2909TIP3    H2 8669   0.407   4.879   0.896
 2910TIP3   OH2 8670   3.628   3.437   2.969
 2910TIP3    H1 8671   3.537   3.411   2.966
 2910TIP3    H2 8672   3.660   3.423   2.880
 2911TIP3   OH2 8673   5.634   5.024   1.628
 2911TIP3    H1 8674   5.617   5.015   1.722
 2911TIP3    H2 8675   5.672   5.111   1.619
 2912TIP3   OH2 8676   1.502   4.338   1.091
 2912TIP3    H1 8677   1.447   4.393   1.146
 2912TIP3    H2 8678   1.585   4.386   1.084
 2913TIP3   OH2 8679   1.973   0.358   1.292
 2913TIP3    H1 8680   1.982   0.264   1.282
 2913TIP3    H2 8681   1.979   0.373   1.386
 2914TIP3   OH2 8682   2.012   1.178   2.821
 2914TIP3    H1 8683   2.084   1.127   2.785
 2914TIP3    H2 8684   2.002   1.147   2.911
 2915TIP3   OH2 8685   6.625   2.798   2.038
 2915TIP3    H1 8686   6.718   2.814   2.024
 2915TIP3    H2 8687   6.614   2.803   2.133
 2916TIP3   OH2 8688   6.436   2.603   0.376
 2916TIP3    H1 8689   6.489   2.524   0.387
 2916TIP3    H2 8690   6.372   2.600   0.448
 2917TIP3   OH2 8691   0.419   4.256   5.223
 2917TIP3    H1 8692   0.438   4.164   5.208
 2917TIP3    H2 8693   0.338   4.256   5.274
 2918TIP3   OH2 8694   4.861   6.972   0.313
 2918TIP3    H1 8695   4.923   6.928   0.372
 2918TIP3    H2 8696   4.882   7.065   0.323
 2919TIP3   OH2 8697   0.219   5.535   1.989
 2919TIP3    H1 8698   0.210   5.442   1.970
 2919TIP3    H2 8699   0.246   5.538   2.081
 2920TIP3   OH2 8700   5.110   7.602   6.222
 2920TIP3    H1 8701   5.200   7.613   6.254
 2920TIP3    H2 8702   5.057   7.591   6.300
 2921TIP3   OH2 8703   3.768   3.751   3.915
 2921TIP3    H1 8704   3.818   3.670   3.905
 2921TIP3    H2 8705   3.732   3.768   3.829
 2922TIP3   OH2 8706   4.244   2.189   5.153
 2922TIP3    H1 8707   4.289   2.108   5.130
 2922TIP3    H2 8708   4.235   2.185   5.249
 2923TIP3   OH2 8709   8.034   2.930   3.396
 2923TIP3    H1 8710   8.072   2.988   3.330
 2923TIP3    H2 8711   7.973   2.985   3.445
 2924TIP3   OH2 8712   5.480   6.862   6.475
 2924TIP3    H1 8713   5.401   6.914   6.488
 2924TIP3    H2 8714   5.525   6.866   6.559
 2925TIP3   OH2 8715   5.535   7.111   3.803
 2925TIP3    H1 8716   5.625   7.109   3.836
 2925TIP3    H2 8717   5.518   7.203   3.782
 2926TIP3   OH2 8718   1.148   3.301   2.840
 2926TIP3    H1 8719   1.112   3.346   2.916
 2926TIP3    H2 8720   1.226   3.256   2.873
 2927TIP3   OH2 8721   5.017   5.289   0.856
 2927TIP3    H1 8722   5.097   5.285   0.908
 2927TIP3    H2 8723   4.976   5.372   0.881
 2928TIP3   OH2 8724   6.531   7.916   1.786
 2928TIP3    H1 8725   6.502   7.966   1.709
 2928TIP3    H2 8726   6.495   7.828   1.772
 2929TIP3   OH2 8727   3.265   4.618   5.660
 2929TIP3    H1 8728   3.318   4.696   5.677
 2929TIP3    H2 8729   3.246   4.583   5.747
 2930TIP3   OH2 8730   0.849   5.627   0.875
 2930TIP3    H1 8731   0.820   5.629   0.966
 2930TIP3    H2 8732   0.782   5.676   0.828
 2931TIP3   OH2 8733   7.430   5.072   0.562
 2931TIP3    H1 8734   7.408   5.016   0.488
 2931TIP3    H2 8735   7.513   5.113   0.538
 2932TIP3   OH2 8736   2.222   3.095   4.892
 2932TIP3    H1 8737   2.291   3.036   4.923
 2932TIP3    H2 8738   2.204   3.065   4.803
 2933TIP3   OH2 8739   1.427   2.975   4.692
 2933TIP3    H1 8740   1.443   3.068   4.707
 2933TIP3    H2 8741   1.470   2.931   4.765
 2934TIP3   OH2 8742  -0.012   3.005   6.815
 2934TIP3    H1 8743   0.044   2.935   6.781
 2934TIP3    H2 8744   0.049   3.070   6.850
 2935TIP3   OH2 8745   4.829   3.586   1.387
 2935TIP3    H1 8746   4.758   3.620   1.333
 2935TIP3    H2 8747   4.851   3.502   1.348
 2936TIP3   OH2 8748   3.091   1.041   3.132
 2936TIP3    H1 8749   3.015   0.990   3.160
 2936TIP3    H2 8750   3.166   0.987   3.156
 2937TIP3   OH2 8751   1.308   0.014   5.610
 2937TIP3    H1 8752   1.372   0.044   5.676
 2937TIP3    H2 8753   1.223   0.033   5.649
 2938TIP3   OH2 8754   3.023   5.570   1.650
 2938TIP3    H1 8755   3.076   5.608   1.719
 2938TIP3    H2 8756   3.014   5.478   1.674
 2939TIP3   OH2 8757   2.143   0.852   6.193
 2939TIP3    H1 8758   2.062   0.841   6.144
 2939TIP3    H2 8759   2.211   0.817   6.136
 2940TIP3   OH2 8760   5.067   0.250   3.267
 2940TIP3    H1 8761   4.986   0.281   3.308
 2940TIP3    H2 8762   5.075   0.301   3.187
 2941TIP3   OH2 8763   1.784   7.529   4.174
 2941TIP3    H1 8764   1.784   7.435   4.156
 2941TIP3    H2 8765   1.862   7.543   4.229
 2942TIP3   OH2 8766   5.002   5.402   6.184
 2942TIP3    H1 8767   4.935   5.467   6.204
 2942TIP3    H2 8768   5.011   5.351   6.264
 2943TIP3   OH2 8769   0.454   3.389   2.385
 2943TIP3    H1 8770   0.439   3.320   2.321
 2943TIP3    H2 8771   0.545   3.415   2.372
 2944TIP3   OH2 8772   6.153   5.482   6.203
 2944TIP3    H1 8773   6.073   5.442   6.167
 2944TIP3    H2 8774   6.156   5.569   6.164
 2945TIP3   OH2 8775   0.307   2.326   3.512
 2945TIP3    H1 8776   0.270   2.272   3.442
 2945TIP3    H2 8777   0.280   2.415   3.490
 2946TIP3   OH2 8778   5.982   5.361   2.667
 2946TIP3    H1 8779   5.960   5.401   2.583
 2946TIP3    H2 8780   6.046   5.293   2.645
 2947TIP3   OH2 8781   1.579   1.495   4.941
 2947TIP3    H1 8782   1.645   1.496   5.010
 2947TIP3    H2 8783   1.559   1.587   4.925
 2948TIP3   OH2 8784   2.077   6.764   1.692
 2948TIP3    H1 8785   2.169   6.766   1.719
 2948TIP3    H2 8786   2.034   6.714   1.761
 2949TIP3   OH2 8787   2.590   7.458   3.157
 2949TIP3    H1 8788   2.589   7.479   3.250
 2949TIP3    H2 8789   2.508   7.411   3.142
 2950TIP3   OH2 8790   0.436   3.191   2.187
 2950TIP3    H1 8791   0.382   3.184   2.108
 2950TIP3    H2 8792   0.507   3.129   2.173
 2951TIP3   OH2 8793   5.840   5.283   2.213
 2951TIP3    H1 8794   5.893   5.223   2.266
 2951TIP3    H2 8795   5.840   5.364   2.263
 2952TIP3   OH2 8796   5.494   5.988   1.277
 2952TIP3    H1 8797   5.477   6.080   1.255
 2952TIP3    H2 8798   5.538   5.991   1.362
 2953TIP3   OH2 8799   6.828   5.073   2.678
 2953TIP3    H1 8800   6.821   5.168   2.668
 2953TIP3    H2 8801   6.809   5.038   2.590
 2954TIP3   OH2 8802   7.273   0.905   3.174
 2954TIP3    H1 8803   7.361   0.940   3.171
 2954TIP3    H2 8804   7.237   0.934   3.258
 2955TIP3   OH2 8805   2.619   4.119   0.180
 2955TIP3    H1 8806   2.531   4.101   0.147
 2955TIP3    H2 8807   2.636   4.050   0.244
 2956TIP3   OH2 8808   3.342   1.320   0.436
 2956TIP3    H1 8809   3.360   1.392   0.376
 2956TIP3    H2 8810   3.352   1.358   0.524
 2957TIP3   OH2 8811   0.832   0.295   1.199
 2957TIP3    H1 8812   0.888   0.282   1.276
 2957TIP3    H2 8813   0.747   0.262   1.226
 2958TIP3   OH2 8814   1.196   6.292   3.895
 2958TIP3    H1 8815   1.119   6.268   3.947
 2958TIP3    H2 8816   1.166   6.289   3.804
 2959TIP3   OH2 8817   3.399   0.470   0.082
 2959TIP3    H1 8818   3.338   0.396   0.077
 2959TIP3    H2 8819   3.475   0.442   0.031
 2960TIP3   OH2 8820   7.462   7.703   2.040
 2960TIP3    H1 8821   7.493   7.714   2.130
 2960TIP3    H2 8822   7.524   7.643   2.000
 2961TIP3   OH2 8823   0.701   4.465   2.698
 2961TIP3    H1 8824   0.765   4.398   2.678
 2961TIP3    H2 8825   0.617   4.419   2.702
 2962TIP3   OH2 8826   4.811   2.017   6.682
 2962TIP3    H1 8827   4.871   2.063   6.740
 2962TIP3    H2 8828   4.803   1.929   6.720
 2963TIP3   OH2 8829   6.196   4.865   2.567
 2963TIP3    H1 8830   6.240   4.944   2.534
 2963TIP3    H2 8831   6.107   4.871   2.531
 2964TIP3   OH2 8832   2.973   1.100   0.118
 2964TIP3    H1 8833   3.046   1.125   0.175
 2964TIP3    H2 8834   2.928   1.031   0.166
 2965TIP3   OH2 8835   7.786   2.697   4.005
 2965TIP3    H1 8836   7.714   2.688   3.942
 2965TIP3    H2 8837   7.775   2.622   4.064
 2966TIP3   OH2 8838   5.073   6.462   3.388
 2966TIP3    H1 8839   5.158   6.419   3.379
 2966TIP3    H2 8840   5.075   6.500   3.476
 2967TIP3   OH2 8841   2.304   0.265   1.395
 2967TIP3    H1 8842   2.237   0.287   1.459
 2967TIP3    H2 8843   2.371   0.218   1.445
 2968TIP3   OH2 8844   1.189   3.531   1.959
 2968TIP3    H1 8845   1.176   3.530   1.865
 2968TIP3    H2 8846   1.104   3.555   1.996
 2969TIP3   OH2 8847   0.098   6.875   4.638
 2969TIP3    H1 8848   0.085   6.970   4.630
 2969TIP3    H2 8849   0.012   6.841   4.665
 2970TIP3   OH2 8850   2.074   5.337   2.892
 2970TIP3    H1 8851   2.118   5.266   2.938
 2970TIP3    H2 8852   2.141   5.405   2.884
 2971TIP3   OH2 8853   3.445   6.246   0.462
 2971TIP3    H1 8854   3.511   6.248   0.531
 2971TIP3    H2 8855   3.495   6.234   0.381
 2972TIP3   OH2 8856   7.785   7.871   1.551
 2972TIP3    H1 8857   7.735   7.919   1.617
 2972TIP3    H2 8858   7.866   7.846   1.596
 2973TIP3   OH2 8859   8.314   5.362   1.496
 2973TIP3    H1 8860   8.396   5.314   1.505
 2973TIP3    H2 8861   8.250   5.311   1.546
 2974TIP3   OH2 8862   8.408   3.301   1.928
 2974TIP3    H1 8863   8.499   3.282   1.952
 2974TIP3    H2 8864   8.367   3.215   1.919
 2975TIP3   OH2 8865   6.321   5.766   3.446
 2975TIP3    H1 8866   6.364   5.847   3.472
 2975TIP3    H2 8867   6.392   5.704   3.434
 2976TIP3   OH2 8868   4.793   2.779   1.020
 2976TIP3    H1 8869   4.875   2.783   0.972
 2976TIP3    H2 8870   4.767   2.687   1.016
 2977TIP3   OH2 8871   7.211   0.517   4.371
 2977TIP3    H1 8872   7.184   0.444   4.315
 2977TIP3    H2 8873   7.136   0.578   4.369
 2978TIP3   OH2 8874   1.434   6.200   4.334
 2978TIP3    H1 8875   1.475   6.210   4.420
 2978TIP3    H2 8876   1.486   6.255   4.276
 2979TIP3   OH2 8877   1.627   6.502   5.670
 2979TIP3    H1 8878   1.534   6.515   5.651
 2979TIP3    H2 8879   1.659   6.588   5.697
 2980TIP3   OH2 8880   5.715   0.185   0.224
 2980TIP3    H1 8881   5.728   0.188   0.130
 2980TIP3    H2 8882   5.797   0.218   0.261
 2981TIP3   OH2 8883   1.795   4.867   3.849
 2981TIP3    H1 8884   1.817   4.852   3.941
 2981TIP3    H2 8885   1.811   4.960   3.835
 2982TIP3   OH2 8886   8.383   0.803   6.046
 2982TIP3    H1 8887   8.291   0.796   6.071
 2982TIP3    H2 8888   8.388   0.883   5.993
 2983TIP3   OH2 8889   0.818   2.919   1.063
 2983TIP3    H1 8890   0.831   2.861   1.138
 2983TIP3    H2 8891   0.891   2.899   1.004
 2984TIP3   OH2 8892   0.668   2.800   6.546
 2984TIP3    H1 8893   0.606   2.782   6.617
 2984TIP3    H2 8894   0.613   2.823   6.471
 2985TIP3   OH2 8895   2.232   1.855   0.017
 2985TIP3    H1 8896   2.186   1.801   0.081
 2985TIP3    H2 8897   2.236   1.942   0.058
 2986TIP3   OH2 8898   6.180   2.565   5.680
 2986TIP3    H1 8899   6.224   2.578   5.597
 2986TIP3    H2 8900   6.247   2.581   5.746
 2987TIP3   OH2 8901   7.040   0.632   2.762
 2987TIP3    H1 8902   7.060   0.725   2.767
 2987TIP3    H2 8903   6.952   0.625   2.797
 2988TIP3   OH2 8904   3.369   3.796   1.463
 2988TIP3    H1 8905   3.402   3.861   1.400
 2988TIP3    H2 8906   3.273   3.803   1.456
 2989TIP3   OH2 8907   2.310   7.557   2.164
 2989TIP3    H1 8908   2.275   7.524   2.246
 2989TIP3    H2 8909   2.372   7.626   2.190
 2990TIP3   OH2 8910   6.812   2.362   0.814
 2990TIP3    H1 8911   6.761   2.302   0.759
 2990TIP3    H2 8912   6.823   2.440   0.760
 2991TIP3   OH2 8913   6.637   5.478   5.276
 2991TIP3    H1 8914   6.647   5.442   5.188
 2991TIP3    H2 8915   6.725   5.503   5.303
 2992TIP3   OH2 8916   1.133   3.322   5.886
 2992TIP3    H1 8917   1.122   3.320   5.981
 2992TIP3    H2 8918   1.044   3.319   5.851
 2993TIP3   OH2 8919   6.553   6.312   5.660
 2993TIP3    H1 8920   6.466   6.286   5.689
 2993TIP3    H2 8921   6.613   6.255   5.708
 2994TIP3   OH2 8922   1.106   4.578   6.430
 2994TIP3    H1 8923   1.188   4.533   6.448
 2994TIP3    H2 8924   1.115   4.611   6.341
 2995TIP3   OH2 8925   0.335   1.375   0.390
 2995TIP3    H1 8926   0.271   1.445   0.378
 2995TIP3    H2 8927   0.409   1.417   0.433
 2996TIP3   OH2 8928   5.705   4.881   5.724
 2996TIP3    H1 8929   5.763   4.954   5.747
 2996TIP3    H2 8930   5.628   4.923   5.685
 2997TIP3   OH2 8931   6.552   3.883   5.426
 2997TIP3    H1 8932   6.567   3.816   5.494
 2997TIP3    H2 8933   6.459   3.905   5.435
 2998TIP3   OH2 8934   7.485   1.514   3.031
 2998TIP3    H1 8935   7.396   1.531   3.062
 2998TIP3    H2 8936   7.538   1.511   3.111
 2999TIP3   OH2 8937   3.983   3.997   1.892
 2999TIP3    H1 8938   4.065   3.976   1.936
 2999TIP3    H2 8939   3.915   3.981   1.958
 3000TIP3   OH2 8940   4.148   6.598   4.624
 3000TIP3    H1 8941   4.189   6.518   4.657
 3000TIP3    H2 8942   4.125   6.577   4.533
 3001TIP3   OH2 8943   8.047   7.558   5.568
 3001TIP3    H1 8944   8.033   7.481   5.623
 3001TIP3    H2 8945   8.141   7.559   5.550
 3002TIP3   OH2 8946   6.176   5.155   4.919
 3002TIP3    H1 8947   6.257   5.207   4.915
 3002TIP3    H2 8948   6.205   5.065   4.904
 3003TIP3   OH2 8949   0.324   2.970   2.407
 3003TIP3    H1 8950   0.271   3.047   2.430
 3003TIP3    H2 8951   0.294   2.946   2.320
 3004TIP3   OH2 8952   5.242   1.978   3.646
 3004TIP3    H1 8953   5.293   2.054   3.675
 3004TIP3    H2 8954   5.271   1.963   3.556
 3005TIP3   OH2 8955   6.566   5.947   0.092
 3005TIP3    H1 8956   6.652   5.914   0.069
 3005TIP3    H2 8957   6.512   5.931   0.014
 3006TIP3   OH2 8958   8.248   1.537   0.972
 3006TIP3    H1 8959   8.254   1.476   0.899
 3006TIP3    H2 8960   8.323   1.516   1.028
 3007TIP3   OH2 8961   5.862   7.785   4.276
 3007TIP3    H1 8962   5.824   7.734   4.347
 3007TIP3    H2 8963   5.949   7.809   4.308
 3008TIP3   OH2 8964   6.191   0.004   4.874
 3008TIP3    H1 8965   6.115   0.061   4.883
 3008TIP3    H2 8966   6.266   0.063   4.884
 3009TIP3   OH2 8967   8.239   6.192   4.013
 3009TIP3    H1 8968   8.214   6.278   4.047
 3009TIP3    H2 8969   8.316   6.208   3.960
 3010TIP3   OH2 8970   8.404   1.930   5.927
 3010TIP3    H1 8971   8.411   1.836   5.946
 3010TIP3    H2 8972   8.318   1.940   5.887
 3011TIP3   OH2 8973   6.243   1.616   1.605
 3011TIP3    H1 8974   6.210   1.685   1.547
 3011TIP3    H2 8975   6.257   1.661   1.688
 3012TIP3   OH2 8976   6.801   1.306   0.029
 3012TIP3    H1 8977   6.887   1.341   0.050
 3012TIP3    H2 8978   6.773   1.354  -0.048
 3013TIP3   OH2 8979   5.788   3.768   4.982
 3013TIP3    H1 8980   5.742   3.728   4.908
 3013TIP3    H2 8981   5.843   3.698   5.017
 3014TIP3   OH2 8982   4.859   3.551   0.959
 3014TIP3    H1 8983   4.884   3.463   0.988
 3014TIP3    H2 8984   4.933   3.582   0.908
 3015TIP3   OH2 8985   5.721   5.768   0.641
 3015TIP3    H1 8986   5.683   5.808   0.719
 3015TIP3    H2 8987   5.764   5.840   0.595
 3016TIP3   OH2 8988   6.299   4.568   3.408
 3016TIP3    H1 8989   6.300   4.638   3.474
 3016TIP3    H2 8990   6.390   4.563   3.378
 3017TIP3   OH2 8991   7.823   7.308   0.042
 3017TIP3    H1 8992   7.843   7.402   0.042
 3017TIP3    H2 8993   7.779   7.294  -0.042
 3018TIP3   OH2 8994   2.330   4.535   3.085
 3018TIP3    H1 8995   2.332   4.506   3.176
 3018TIP3    H2 8996   2.420   4.561   3.067
 3019TIP3   OH2 8997   1.905   0.136   2.004
 3019TIP3    H1 8998   1.813   0.122   2.026
 3019TIP3    H2 8999   1.953   0.120   2.085
 3020TIP3   OH2 9000   4.577   4.002   1.938
 3020TIP3    H1 9001   4.653   4.015   1.880
 3020TIP3    H2 9002   4.528   3.931   1.898
 3021TIP3   OH2 9003   7.156   6.917   5.849
 3021TIP3    H1 9004   7.119   6.919   5.937
 3021TIP3    H2 9005   7.098   6.859   5.800
 3022TIP3   OH2 9006   6.204   5.096   3.017
 3022TIP3    H1 9007   6.137   5.141   2.966
 3022TIP3    H2 9008   6.257   5.167   3.054
 3023TIP3   OH2 9009   2.572   0.993   6.782
 3023TIP3    H1 9010   2.649   1.047   6.761
 3023TIP3    H2 9011   2.508   1.017   6.715
 3024TIP3   OH2 9012   6.577   7.205   3.711
 3024TIP3    H1 9013   6.519   7.281   3.711
 3024TIP3    H2 9014   6.577   7.175   3.620
 3025TIP3   OH2 9015   5.996   1.182   6.773
 3025TIP3    H1 9016   5.952   1.149   6.851
 3025TIP3    H2 9017   6.032   1.267   6.799
 3026TIP3   OH2 9018   7.038   4.510   1.129
 3026TIP3    H1 9019   6.950   4.542   1.106
 3026TIP3    H2 9020   7.028   4.415   1.137
 3027TIP3   OH2 9021   0.392   6.758   0.053
 3027TIP3    H1 9022   0.301   6.733   0.071
 3027TIP3    H2 9023   0.443   6.680   0.074
 3028TIP3   OH2 9024   6.407   1.354   5.449
 3028TIP3    H1 9025   6.425   1.271   5.404
 3028TIP3    H2 9026   6.341   1.332   5.514
 3029TIP3   OH2 9027   4.074   1.896   2.487
 3029TIP3    H1 9028   4.080   1.852   2.572
 3029TIP3    H2 9029   3.998   1.955   2.497
 3030TIP3   OH2 9030   2.230   5.883   6.220
 3030TIP3    H1 9031   2.241   5.790   6.239
 3030TIP3    H2 9032   2.146   5.889   6.174
 3031TIP3   OH2 9033   2.373   7.735   3.025
 3031TIP3    H1 9034   2.402   7.701   3.110
 3031TIP3    H2 9035   2.404   7.671   2.961
 3032TIP3   OH2 9036   2.978   3.224   2.651
 3032TIP3    H1 9037   2.972   3.134   2.683
 3032TIP3    H2 9038   2.973   3.216   2.556
 3033TIP3   OH2 9039   6.659   2.862   3.289
 3033TIP3    H1 9040   6.653   2.796   3.359
 3033TIP3    H2 9041   6.582   2.847   3.235
 3034TIP3   OH2 9042   1.013   4.622   5.852
 3034TIP3    H1 9043   1.036   4.539   5.811
 3034TIP3    H2 9044   1.091   4.677   5.841
 3035TIP3   OH2 9045   3.712   5.716   4.411
 3035TIP3    H1 9046   3.664   5.717   4.328
 3035TIP3    H2 9047   3.721   5.623   4.432
 3036TIP3   OH2 9048   2.327   0.779   0.517
 3036TIP3    H1 9049   2.306   0.841   0.587
 3036TIP3    H2 9050   2.247   0.729   0.504
 3037TIP3   OH2 9051   7.056   1.847   6.331
 3037TIP3    H1 9052   7.024   1.772   6.381
 3037TIP3    H2 9053   7.102   1.809   6.257
 3038TIP3   OH2 9054   5.368   6.298   1.246
 3038TIP3    H1 9055   5.284   6.339   1.225
 3038TIP3    H2 9056   5.415   6.364   1.298
 3039TIP3   OH2 9057   4.578   4.545   3.748
 3039TIP3    H1 9058   4.612   4.528   3.660
 3039TIP3    H2 9059   4.656   4.554   3.802
 3040TIP3   OH2 9060   7.495   1.392   6.672
 3040TIP3    H1 9061   7.566   1.389   6.608
 3040TIP3    H2 9062   7.496   1.483   6.703
 3041TIP3   OH2 9063   2.495   2.762   6.739
 3041TIP3    H1 9064   2.470   2.826   6.806
 3041TIP3    H2 9065   2.532   2.815   6.669
 3042TIP3   OH2 9066   0.591   2.187   5.885
 3042TIP3    H1 9067   0.686   2.194   5.899
 3042TIP3    H2 9068   0.573   2.094   5.891
 3043TIP3   OH2 9069   0.709   5.887   3.238
 3043TIP3    H1 9070   0.800   5.876   3.266
 3043TIP3    H2 9071   0.657   5.868   3.315
 3044TIP3   OH2 9072   6.145   3.654   1.926
 3044TIP3    H1 9073   6.231   3.685   1.900
 3044TIP3    H2 9074   6.147   3.560   1.906
 3045TIP3   OH2 9075   2.281   7.921   0.725
 3045TIP3    H1 9076   2.285   7.974   0.646
 3045TIP3    H2 9077   2.211   7.858   0.709
 3046TIP3   OH2 9078   3.635   3.729   1.533
 3046TIP3    H1 9079   3.662   3.639   1.518
 3046TIP3    H2 9080   3.544   3.733   1.503
 3047TIP3   OH2 9081   6.695   5.900   0.346
 3047TIP3    H1 9082   6.637   5.920   0.272
 3047TIP3    H2 9083   6.765   5.847   0.308
 3048TIP3   OH2 9084   4.993   5.541   1.575
 3048TIP3    H1 9085   4.996   5.446   1.563
 3048TIP3    H2 9086   5.046   5.557   1.654
 3049TIP3   OH2 9087   4.501   0.639   1.787
 3049TIP3    H1 9088   4.520   0.545   1.785
 3049TIP3    H2 9089   4.518   0.665   1.878
 3050TIP3   OH2 9090   1.436   0.833   1.272
 3050TIP3    H1 9091   1.482   0.917   1.274
 3050TIP3    H2 9092   1.505   0.768   1.281
 3051TIP3   OH2 9093   3.315   1.537   4.664
 3051TIP3    H1 9094   3.343   1.533   4.572
 3051TIP3    H2 9095   3.327   1.628   4.689
 3052TIP3   OH2 9096   1.231   2.918   2.678
 3052TIP3    H1 9097   1.312   2.932   2.727
 3052TIP3    H2 9098   1.259   2.887   2.592
 3053TIP3   OH2 9099   2.164   1.569   6.686
 3053TIP3    H1 9100   2.146   1.565   6.780
 3053TIP3    H2 9101   2.155   1.479   6.655
 3054TIP3   OH2 9102   3.980   1.628   4.001
 3054TIP3    H1 9103   3.971   1.556   3.939
 3054TIP3    H2 9104   3.957   1.590   4.086
 3055TIP3   OH2 9105   1.119   7.438   6.503
 3055TIP3    H1 9106   1.132   7.529   6.532
 3055TIP3    H2 9107   1.193   7.420   6.445
 3056TIP3   OH2 9108   4.013   6.743   6.143
 3056TIP3    H1 9109   4.049   6.655   6.141
 3056TIP3    H2 9110   4.077   6.794   6.193
 3057TIP3   OH2 9111   5.123   1.759   0.814
 3057TIP3    H1 9112   5.131   1.667   0.837
 3057TIP3    H2 9113   5.039   1.786   0.851
 3058TIP3   OH2 9114   6.576   4.581   1.614
 3058TIP3    H1 9115   6.585   4.615   1.525
 3058TIP3    H2 9116   6.573   4.659   1.669
 3059TIP3   OH2 9117   2.145   4.919   6.692
 3059TIP3    H1 9118   2.075   4.903   6.628
 3059TIP3    H2 9119   2.226   4.896   6.645
 3060TIP3   OH2 9120   8.370   0.509   0.312
 3060TIP3    H1 9121   8.328   0.498   0.226
 3060TIP3    H2 9122   8.301   0.546   0.367
 3061TIP3   OH2 9123   7.285   2.195   5.054
 3061TIP3    H1 9124   7.357   2.135   5.036
 3061TIP3    H2 9125   7.301   2.226   5.143
 3062TIP3   OH2 9126   2.524   4.871   3.599
 3062TIP3    H1 9127   2.588   4.887   3.668
 3062TIP3    H2 9128   2.440   4.870   3.644
 3063TIP3   OH2 9129   2.811   7.702   4.562
 3063TIP3    H1 9130   2.750   7.729   4.631
 3063TIP3    H2 9131   2.834   7.612   4.583
 3064TIP3   OH2 9132   7.094   0.549   5.787
 3064TIP3    H1 9133   7.065   0.558   5.878
 3064TIP3    H2 9134   7.020   0.508   5.742
 3065TIP3   OH2 9135   7.707   0.687   2.308
 3065TIP3    H1 9136   7.635   0.711   2.249
 3065TIP3    H2 9137   7.733   0.599   2.282
 3066TIP3   OH2 9138   4.485   2.269   4.413
 3066TIP3    H1 9139   4.510   2.197   4.355
 3066TIP3    H2 9140   4.422   2.319   4.361
 3067TIP3   OH2 9141   0.135   1.057   1.977
 3067TIP3    H1 9142   0.107   1.077   1.888
 3067TIP3    H2 9143   0.169   0.968   1.973
 3068TIP3   OH2 9144   5.534   1.035   1.418
 3068TIP3    H1 9145   5.530   1.084   1.501
 3068TIP3    H2 9146   5.626   1.011   1.408
 3069TIP3   OH2 9147   2.359   3.740   6.795
 3069TIP3    H1 9148   2.327   3.771   6.880
 3069TIP3    H2 9149   2.399   3.655   6.814
 3070TIP3   OH2 9150   6.619   3.621   5.881
 3070TIP3    H1 9151   6.565   3.543   5.891
 3070TIP3    H2 9152   6.705   3.594   5.913
 3071TIP3   OH2 9153   1.283   6.459   1.238
 3071TIP3    H1 9154   1.212   6.502   1.286
 3071TIP3    H2 9155   1.357   6.459   1.299
 3072TIP3   OH2 9156   2.513   5.704   1.411
 3072TIP3    H1 9157   2.582   5.723   1.347
 3072TIP3    H2 9158   2.441   5.763   1.388
 3073TIP3   OH2 9159   1.002   4.315   1.371
 3073TIP3    H1 9160   0.909   4.314   1.348
 3073TIP3    H2 9161   1.027   4.407   1.363
 3074TIP3   OH2 9162   4.678   3.815   0.034
 3074TIP3    H1 9163   4.678   3.884   0.100
 3074TIP3    H2 9164   4.743   3.844  -0.030
 3075TIP3   OH2 9165   7.020   6.089   1.032
 3075TIP3    H1 9166   7.101   6.096   1.083
 3075TIP3    H2 9167   7.049   6.089   0.941
 3076TIP3   OH2 9168   4.421   4.668   5.804
 3076TIP3    H1 9169   4.508   4.701   5.783
 3076TIP3    H2 9170   4.408   4.691   5.896
 3077TIP3   OH2 9171   6.878   5.680   3.533
 3077TIP3    H1 9172   6.796   5.636   3.515
 3077TIP3    H2 9173   6.877   5.758   3.478
 3078TIP3   OH2 9174   5.322   5.073   4.679
 3078TIP3    H1 9175   5.304   5.019   4.602
 3078TIP3    H2 9176   5.405   5.116   4.660
 3079TIP3   OH2 9177   5.009   3.626   6.835
 3079TIP3    H1 9178   5.067   3.691   6.794
 3079TIP3    H2 9179   4.934   3.619   6.775
 3080TIP3   OH2 9180   4.229   3.997   1.106
 3080TIP3    H1 9181   4.253   4.013   1.015
 3080TIP3    H2 9182   4.302   4.031   1.157
 3081TIP3   OH2 9183   0.130   7.225   1.825
 3081TIP3    H1 9184   0.194   7.212   1.755
 3081TIP3    H2 9185   0.183   7.237   1.904
 3082TIP3   OH2 9186   3.046   4.021   4.645
 3082TIP3    H1 9187   2.953   3.996   4.641
 3082TIP3    H2 9188   3.092   3.949   4.603
 3083TIP3   OH2 9189   5.193   6.650   0.928
 3083TIP3    H1 9190   5.268   6.698   0.964
 3083TIP3    H2 9191   5.133   6.641   1.003
 3084TIP3   OH2 9192   6.027   4.540   5.416
 3084TIP3    H1 9193   6.000   4.630   5.394
 3084TIP3    H2 9194   5.959   4.485   5.379
 3085TIP3   OH2 9195   4.473   5.426   3.610
 3085TIP3    H1 9196   4.521   5.347   3.586
 3085TIP3    H2 9197   4.493   5.439   3.703
 3086TIP3   OH2 9198   3.597   3.187   3.371
 3086TIP3    H1 9199   3.604   3.282   3.362
 3086TIP3    H2 9200   3.621   3.170   3.462
 3087TIP3   OH2 9201   6.463   1.958   1.541
 3087TIP3    H1 9202   6.499   1.993   1.459
 3087TIP3    H2 9203   6.517   1.997   1.609
 3088TIP3   OH2 9204   0.892   3.249   0.538
 3088TIP3    H1 9205   0.906   3.209   0.624
 3088TIP3    H2 9206   0.908   3.343   0.552
 3089TIP3   OH2 9207   5.071   4.659   0.995
 3089TIP3    H1 9208   5.144   4.635   0.937
 3089TIP3    H2 9209   5.054   4.579   1.046
 3090TIP3   OH2 9210   4.304   2.203   6.721
 3090TIP3    H1 9211   4.304   2.128   6.781
 3090TIP3    H2 9212   4.384   2.250   6.741
 3091TIP3   OH2 9213   5.949   0.726   6.370
 3091TIP3    H1 9214   6.000   0.786   6.316
 3091TIP3    H2 9215   5.861   0.763   6.371
 3092TIP3   OH2 9216   8.125   6.651   1.414
 3092TIP3    H1 9217   8.034   6.668   1.388
 3092TIP3    H2 9218   8.120   6.572   1.468
 3093TIP3   OH2 9219   0.842   3.423   4.185
 3093TIP3    H1 9220   0.808   3.439   4.274
 3093TIP3    H2 9221   0.808   3.496   4.133
 3094TIP3   OH2 9222   4.282   6.331   3.029
 3094TIP3    H1 9223   4.259   6.286   2.948
 3094TIP3    H2 9224   4.326   6.265   3.081
 3095TIP3   OH2 9225   1.386   6.479   3.006
 3095TIP3    H1 9226   1.385   6.536   2.929
 3095TIP3    H2 9227   1.304   6.429   3.001
 3096TIP3   OH2 9228   2.151   3.740   5.483
 3096TIP3    H1 9229   2.239   3.761   5.453
 3096TIP3    H2 9230   2.159   3.653   5.522
 3097TIP3   OH2 9231   6.570   2.128   4.203
 3097TIP3    H1 9232   6.641   2.116   4.267
 3097TIP3    H2 9233   6.595   2.073   4.129
 3098TIP3   OH2 9234   6.842   6.990   0.711
 3098TIP3    H1 9235   6.751   7.009   0.689
 3098TIP3    H2 9236   6.880   7.075   0.732
 3099TIP3   OH2 9237   2.357   5.028   6.265
 3099TIP3    H1 9238   2.423   4.968   6.299
 3099TIP3    H2 9239   2.407   5.097   6.221
 3100TIP3   OH2 9240   2.935   2.858   6.446
 3100TIP3    H1 9241   2.951   2.912   6.523
 3100TIP3    H2 9242   3.022   2.841   6.409
 3101TIP3   OH2 9243   3.774   0.897   0.800
 3101TIP3    H1 9244   3.861   0.858   0.793
 3101TIP3    H2 9245   3.731   0.849   0.870
 3102TIP3   OH2 9246   0.982   3.705   6.345
 3102TIP3    H1 9247   0.902   3.669   6.308
 3102TIP3    H2 9248   1.039   3.628   6.359
 3103TIP3   OH2 9249   6.526   4.097   6.151
 3103TIP3    H1 9250   6.469   4.169   6.123
 3103TIP3    H2 9251   6.541   4.047   6.071
 3104TIP3   OH2 9252   3.978   0.810   5.877
 3104TIP3    H1 9253   4.021   0.893   5.899
 3104TIP3    H2 9254   3.914   0.833   5.810
 3105TIP3   OH2 9255   1.112   5.315   0.056
 3105TIP3    H1 9256   1.104   5.325   0.151
 3105TIP3    H2 9257   1.114   5.404   0.022
 3106TIP3   OH2 9258   7.280   7.687   4.863
 3106TIP3    H1 9259   7.349   7.739   4.821
 3106TIP3    H2 9260   7.293   7.599   4.829
 3107TIP3   OH2 9261   7.024   5.712   4.878
 3107TIP3    H1 9262   7.093   5.696   4.814
 3107TIP3    H2 9263   6.954   5.754   4.827
 3108TIP3   OH2 9264   1.267   1.810   6.482
 3108TIP3    H1 9265   1.216   1.890   6.469
 3108TIP3    H2 9266   1.234   1.750   6.415
 3109TIP3   OH2 9267   4.282   1.219   2.867
 3109TIP3    H1 9268   4.247   1.308   2.857
 3109TIP3    H2 9269   4.373   1.232   2.892
 3110TIP3   OH2 9270   2.394   2.036   4.757
 3110TIP3    H1 9271   2.409   2.045   4.663
 3110TIP3    H2 9272   2.373   2.124   4.787
 3111TIP3   OH2 9273   1.383   0.330   3.422
 3111TIP3    H1 9274   1.456   0.271   3.442
 3111TIP3    H2 9275   1.312   0.273   3.395
 3112TIP3   OH2 9276   5.023   0.813   0.540
 3112TIP3    H1 9277   5.057   0.801   0.628
 3112TIP3    H2 9278   5.065   0.743   0.488
 3113TIP3   OH2 9279   0.460   1.238   5.587
 3113TIP3    H1 9280   0.504   1.233   5.672
 3113TIP3    H2 9281   0.393   1.305   5.597
 3114TIP3   OH2 9282   1.970   6.864   1.238
 3114TIP3    H1 9283   2.029   6.824   1.174
 3114TIP3    H2 9284   1.999   6.955   1.244
 3115TIP3   OH2 9285   2.815   6.368   2.699
 3115TIP3    H1 9286   2.806   6.273   2.696
 3115TIP3    H2 9287   2.852   6.387   2.785
 3116TIP3   OH2 9288   4.603   2.866   5.028
 3116TIP3    H1 9289   4.619   2.779   4.991
 3116TIP3    H2 9290   4.525   2.856   5.082
 3117TIP3   OH2 9291   4.405   2.974   2.263
 3117TIP3    H1 9292   4.442   2.991   2.177
 3117TIP3    H2 9293   4.458   2.902   2.298
 3118TIP3   OH2 9294   7.871   2.381   0.554
 3118TIP3    H1 9295   7.836   2.443   0.618
 3118TIP3    H2 9296   7.811   2.307   0.557
 3119TIP3   OH2 9297   4.593   2.486   1.879
 3119TIP3    H1 9298   4.596   2.501   1.785
 3119TIP3    H2 9299   4.659   2.419   1.895
 3120TIP3   OH2 9300   2.201   0.374   3.278
 3120TIP3    H1 9301   2.245   0.298   3.240
 3120TIP3    H2 9302   2.252   0.449   3.246
 3121TIP3   OH2 9303   2.588   5.392   2.481
 3121TIP3    H1 9304   2.632   5.319   2.436
 3121TIP3    H2 9305   2.563   5.356   2.566
 3122TIP3   OH2 9306   6.119   2.737   0.326
 3122TIP3    H1 9307   6.094   2.646   0.313
 3122TIP3    H2 9308   6.197   2.749   0.272
 3123TIP3   OH2 9309   3.692   0.502   3.378
 3123TIP3    H1 9310   3.753   0.487   3.450
 3123TIP3    H2 9311   3.723   0.445   3.308
 3124TIP3   OH2 9312   2.981   0.095   0.206
 3124TIP3    H1 9313   2.919   0.137   0.146
 3124TIP3    H2 9314   2.964   0.136   0.291
 3125TIP3   OH2 9315   1.166   0.322   5.457
 3125TIP3    H1 9316   1.209   0.406   5.439
 3125TIP3    H2 9317   1.145   0.287   5.371
 3126TIP3   OH2 9318   2.875   0.078   1.276
 3126TIP3    H1 9319   2.893   0.140   1.346
 3126TIP3    H2 9320   2.864  -0.006   1.321
 3127TIP3   OH2 9321   0.635   6.929   6.336
 3127TIP3    H1 9322   0.674   6.897   6.254
 3127TIP3    H2 9323   0.710   6.956   6.389
 3128TIP3   OH2 9324   8.197   1.799   3.377
 3128TIP3    H1 9325   8.178   1.706   3.365
 3128TIP3    H2 9326   8.115   1.843   3.353
 3129TIP3   OH2 9327   5.805   0.424   5.630
 3129TIP3    H1 9328   5.830   0.335   5.656
 3129TIP3    H2 9329   5.801   0.472   5.712
 3130TIP3   OH2 9330   2.326   6.126   4.154
 3130TIP3    H1 9331   2.366   6.166   4.231
 3130TIP3    H2 9332   2.234   6.115   4.179
 3131TIP3   OH2 9333   2.143   5.677   5.934
 3131TIP3    H1 9334   2.059   5.707   5.898
 3131TIP3    H2 9335   2.204   5.684   5.860
 3132TIP3   OH2 9336   0.428   1.706   5.404
 3132TIP3    H1 9337   0.488   1.659   5.460
 3132TIP3    H2 9338   0.342   1.668   5.423
 3133TIP3   OH2 9339   1.383   6.242   6.330
 3133TIP3    H1 9340   1.333   6.220   6.252
 3133TIP3    H2 9341   1.324   6.220   6.403
 3134TIP3   OH2 9342   0.868   0.458   4.608
 3134TIP3    H1 9343   0.844   0.529   4.666
 3134TIP3    H2 9344   0.811   0.468   4.531
 3135TIP3   OH2 9345   1.783   6.688   6.216
 3135TIP3    H1 9346   1.747   6.717   6.133
 3135TIP3    H2 9347   1.753   6.753   6.280
 3136TIP3   OH2 9348   4.894   1.829   0.933
 3136TIP3    H1 9349   4.800   1.813   0.929
 3136TIP3    H2 9350   4.906   1.887   1.008
 3137TIP3   OH2 9351   5.346   6.774   3.784
 3137TIP3    H1 9352   5.327   6.859   3.743
 3137TIP3    H2 9353   5.411   6.734   3.726
 3138TIP3   OH2 9354   6.512   5.278   1.874
 3138TIP3    H1 9355   6.428   5.245   1.844
 3138TIP3    H2 9356   6.493   5.365   1.909
 3139TIP3   OH2 9357   1.949   3.437   1.862
 3139TIP3    H1 9358   1.868   3.461   1.908
 3139TIP3    H2 9359   1.948   3.490   1.782
 3140TIP3   OH2 9360   1.368   2.262   6.046
 3140TIP3    H1 9361   1.346   2.305   6.129
 3140TIP3    H2 9362   1.312   2.184   6.044
 3141TIP3   OH2 9363   6.912   0.314   0.182
 3141TIP3    H1 9364   6.977   0.384   0.177
 3141TIP3    H2 9365   6.916   0.271   0.096
 3142TIP3   OH2 9366   2.454   5.679   3.237
 3142TIP3    H1 9367   2.384   5.734   3.202
 3142TIP3    H2 9368   2.529   5.737   3.247
 3143TIP3   OH2 9369   2.886   4.303   3.750
 3143TIP3    H1 9370   2.943   4.376   3.776
 3143TIP3    H2 9371   2.799   4.343   3.741
 3144TIP3   OH2 9372   3.082   5.108   5.708
 3144TIP3    H1 9373   3.023   5.084   5.636
 3144TIP3    H2 9374   3.026   5.157   5.768
 3145TIP3   OH2 9375   5.403   3.629   3.917
 3145TIP3    H1 9376   5.330   3.688   3.937
 3145TIP3    H2 9377   5.421   3.584   3.999
 3146TIP3   OH2 9378   3.031   3.279   2.376
 3146TIP3    H1 9379   2.971   3.211   2.345
 3146TIP3    H2 9380   3.102   3.280   2.312
 3147TIP3   OH2 9381   1.305   5.660   1.143
 3147TIP3    H1 9382   1.234   5.674   1.080
 3147TIP3    H2 9383   1.382   5.698   1.100
 3148TIP3   OH2 9384   5.561   1.483   2.407
 3148TIP3    H1 9385   5.535   1.392   2.393
 3148TIP3    H2 9386   5.548   1.497   2.500
 3149TIP3   OH2 9387   5.841   1.537   2.622
 3149TIP3    H1 9388   5.925   1.530   2.669
 3149TIP3    H2 9389   5.775   1.513   2.687
 3150TIP3   OH2 9390   5.647   5.532   5.637
 3150TIP3    H1 9391   5.707   5.557   5.567
 3150TIP3    H2 9392   5.686   5.569   5.717
 3151TIP3   OH2 9393   5.369   5.557   6.733
 3151TIP3    H1 9394   5.288   5.582   6.689
 3151TIP3    H2 9395   5.407   5.489   6.677
 3152TIP3   OH2 9396   8.408   0.825   0.022
 3152TIP3    H1 9397   8.408   0.773  -0.058
 3152TIP3    H2 9398   8.363   0.906  -0.002
 3153TIP3   OH2 9399   7.947   5.386   4.990
 3153TIP3    H1 9400   7.913   5.307   4.949
 3153TIP3    H2 9401   8.037   5.392   4.959
 3154TIP3   OH2 9402   6.966   4.707   4.541
 3154TIP3    H1 9403   6.918   4.783   4.506
 3154TIP3    H2 9404   7.055   4.739   4.553
 3155TIP3   OH2 9405   3.445   6.697   6.060
 3155TIP3    H1 9406   3.516   6.633   6.052
 3155TIP3    H2 9407   3.470   6.752   6.133
 3156TIP3   OH2 9408   5.741   1.017   1.090
 3156TIP3    H1 9409   5.781   1.096   1.056
 3156TIP3    H2 9410   5.814   0.957   1.106
 3157TIP3   OH2 9411   4.630   4.333   0.352
 3157TIP3    H1 9412   4.551   4.376   0.385
 3157TIP3    H2 9413   4.626   4.244   0.388
 3158TIP3   OH2 9414   1.904   5.469   1.790
 3158TIP3    H1 9415   1.934   5.379   1.780
 3158TIP3    H2 9416   1.816   5.461   1.826
 3159TIP3   OH2 9417   1.097   6.286   5.299
 3159TIP3    H1 9418   1.152   6.301   5.222
 3159TIP3    H2 9419   1.027   6.230   5.267
 3160TIP3   OH2 9420   5.763   4.351   1.355
 3160TIP3    H1 9421   5.769   4.280   1.292
 3160TIP3    H2 9422   5.848   4.351   1.399
 3161TIP3   OH2 9423   6.910   0.776   6.265
 3161TIP3    H1 9424   6.842   0.842   6.278
 3161TIP3    H2 9425   6.978   0.797   6.329
 3162TIP3   OH2 9426   4.490   1.812   2.873
 3162TIP3    H1 9427   4.427   1.847   2.936
 3162TIP3    H2 9428   4.550   1.884   2.855
 3163TIP3   OH2 9429   7.525   1.386   5.062
 3163TIP3    H1 9430   7.480   1.449   5.118
 3163TIP3    H2 9431   7.455   1.342   5.014
 3164TIP3   OH2 9432   2.318   6.627   4.078
 3164TIP3    H1 9433   2.329   6.691   4.148
 3164TIP3    H2 9434   2.225   6.629   4.057
 3165TIP3   OH2 9435   6.555   6.334   5.367
 3165TIP3    H1 9436   6.565   6.344   5.462
 3165TIP3    H2 9437   6.537   6.241   5.354
 3166TIP3   OH2 9438   4.794   3.137   3.563
 3166TIP3    H1 9439   4.870   3.123   3.619
 3166TIP3    H2 9440   4.730   3.181   3.620
 3167TIP3   OH2 9441   3.007   4.013   3.021
 3167TIP3    H1 9442   3.012   3.918   3.008
 3167TIP3    H2 9443   2.914   4.031   3.033
 3168TIP3   OH2 9444   1.502   4.558   0.626
 3168TIP3    H1 9445   1.514   4.500   0.701
 3168TIP3    H2 9446   1.487   4.499   0.552
 3169TIP3   OH2 9447   4.113   2.445   4.430
 3169TIP3    H1 9448   4.200   2.468   4.398
 3169TIP3    H2 9449   4.105   2.491   4.514
 3170TIP3   OH2 9450   5.252   4.456   5.527
 3170TIP3    H1 9451   5.330   4.510   5.539
 3170TIP3    H2 9452   5.284   4.378   5.482
 3171TIP3   OH2 9453   5.969   3.518   5.006
 3171TIP3    H1 9454   5.951   3.528   4.912
 3171TIP3    H2 9455   6.064   3.526   5.013
 3172TIP3   OH2 9456   1.891   3.919   2.732
 3172TIP3    H1 9457   1.911   3.885   2.644
 3172TIP3    H2 9458   1.819   3.981   2.718
 3173TIP3   OH2 9459   7.102   6.165   1.956
 3173TIP3    H1 9460   7.130   6.115   1.879
 3173TIP3    H2 9461   7.008   6.147   1.963
 3174TIP3   OH2 9462   5.575   7.636   2.731
 3174TIP3    H1 9463   5.655   7.678   2.764
 3174TIP3    H2 9464   5.531   7.604   2.810
 3175TIP3   OH2 9465   8.081   2.987   1.522
 3175TIP3    H1 9466   8.029   2.962   1.598
 3175TIP3    H2 9467   8.026   3.048   1.474
 3176TIP3   OH2 9468   8.123   0.122   0.708
 3176TIP3    H1 9469   8.193   0.061   0.683
 3176TIP3    H2 9470   8.138   0.139   0.801
 3177TIP3   OH2 9471   3.255   6.362   0.637
 3177TIP3    H1 9472   3.313   6.304   0.587
 3177TIP3    H2 9473   3.314   6.411   0.694
 3178TIP3   OH2 9474   5.017   1.905   5.118
 3178TIP3    H1 9475   4.983   1.958   5.046
 3178TIP3    H2 9476   5.087   1.853   5.078
 3179TIP3   OH2 9477   1.800   4.131   6.192
 3179TIP3    H1 9478   1.894   4.146   6.208
 3179TIP3    H2 9479   1.795   4.113   6.098
 3180TIP3   OH2 9480   1.703   4.682   2.704
 3180TIP3    H1 9481   1.714   4.776   2.689
 3180TIP3    H2 9482   1.788   4.653   2.737
 3181TIP3   OH2 9483   3.817   7.870   6.157
 3181TIP3    H1 9484   3.833   7.821   6.238
 3181TIP3    H2 9485   3.744   7.824   6.116
 3182TIP3   OH2 9486   7.205   2.654   5.793
 3182TIP3    H1 9487   7.124   2.622   5.834
 3182TIP3    H2 9488   7.244   2.577   5.753
 3183TIP3   OH2 9489   7.680   5.412   3.926
 3183TIP3    H1 9490   7.674   5.318   3.940
 3183TIP3    H2 9491   7.771   5.434   3.948
 3184TIP3   OH2 9492   2.946   4.438   0.580
 3184TIP3    H1 9493   2.877   4.371   0.584
 3184TIP3    H2 9494   2.924   4.490   0.503
 3185TIP3   OH2 9495   2.815   2.064   3.799
 3185TIP3    H1 9496   2.868   2.077   3.720
 3185TIP3    H2 9497   2.735   2.114   3.782
 3186TIP3   OH2 9498   0.624   0.112   1.566
 3186TIP3    H1 9499   0.602   0.119   1.659
 3186TIP3    H2 9500   0.719   0.101   1.565
 3187TIP3   OH2 9501   5.948   5.831   6.482
 3187TIP3    H1 9502   5.986   5.772   6.547
 3187TIP3    H2 9503   5.889   5.887   6.533
 3188TIP3   OH2 9504   7.059   7.287   2.957
 3188TIP3    H1 9505   7.040   7.275   2.864
 3188TIP3    H2 9506   6.979   7.327   2.992
 3189TIP3   OH2 9507   3.141   1.914   1.121
 3189TIP3    H1 9508   3.177   1.853   1.185
 3189TIP3    H2 9509   3.165   2.001   1.155
 3190TIP3   OH2 9510   0.865   4.392   3.680
 3190TIP3    H1 9511   0.954   4.388   3.645
 3190TIP3    H2 9512   0.856   4.312   3.733
 3191TIP3   OH2 9513   2.681   7.020   6.220
 3191TIP3    H1 9514   2.680   6.929   6.248
 3191TIP3    H2 9515   2.674   7.070   6.301
 3192TIP3   OH2 9516   0.763   3.598   3.990
 3192TIP3    H1 9517   0.828   3.615   3.922
 3192TIP3    H2 9518   0.681   3.586   3.943
 3193TIP3   OH2 9519   1.475   5.112   6.352
 3193TIP3    H1 9520   1.399   5.079   6.401
 3193TIP3    H2 9521   1.506   5.186   6.403
 3194TIP3   OH2 9522   7.937   1.027   5.067
 3194TIP3    H1 9523   7.985   1.108   5.086
 3194TIP3    H2 9524   7.854   1.056   5.030
 3195TIP3   OH2 9525   0.764   2.988   2.739
 3195TIP3    H1 9526   0.722   2.914   2.695
 3195TIP3    H2 9527   0.752   3.062   2.679
 3196TIP3   OH2 9528   6.234   5.226   6.367
 3196TIP3    H1 9529   6.203   5.304   6.320
 3196TIP3    H2 9530   6.162   5.204   6.426
 3197TIP3   OH2 9531   6.633   0.622   1.671
 3197TIP3    H1 9532   6.574   0.669   1.730
 3197TIP3    H2 9533   6.601   0.644   1.583
 3198TIP3   OH2 9534   0.219   7.633   1.169
 3198TIP3    H1 9535   0.291   7.570   1.165
 3198TIP3    H2 9536   0.247   7.698   1.233
 3199TIP3   OH2 9537   4.868   0.439   1.414
 3199TIP3    H1 9538   4.893   0.353   1.448
 3199TIP3    H2 9539   4.915   0.446   1.331
 3200TIP3   OH2 9540   2.594   2.789   3.258
 3200TIP3    H1 9541   2.544   2.708   3.252
 3200TIP3    H2 9542   2.668   2.776   3.200
 3201TIP3   OH2 9543   3.069   4.339   1.998
 3201TIP3    H1 9544   3.087   4.304   2.086
 3201TIP3    H2 9545   2.997   4.286   1.966
 3202TIP3   OH2 9546   3.919   4.458   6.411
 3202TIP3    H1 9547   3.969   4.479   6.332
 3202TIP3    H2 9548   3.952   4.520   6.476
 3203TIP3   OH2 9549   0.010   1.090   5.989
 3203TIP3    H1 9550  -0.084   1.102   5.999
 3203TIP3    H2 9551   0.043   1.085   6.079
 3204TIP3   OH2 9552   4.147   6.621   2.321
 3204TIP3    H1 9553   4.231   6.601   2.364
 3204TIP3    H2 9554   4.085   6.631   2.394
 3205TIP3   OH2 9555   3.246   1.609   3.469
 3205TIP3    H1 9556   3.261   1.541   3.535
 3205TIP3    H2 9557   3.160   1.589   3.433
 3206TIP3   OH2 9558   7.237   5.807   4.625
 3206TIP3    H1 9559   7.302   5.849   4.682
 3206TIP3    H2 9560   7.221   5.872   4.556
 3207TIP3   OH2 9561   0.170   6.508   2.561
 3207TIP3    H1 9562   0.152   6.563   2.637
 3207TIP3    H2 9563   0.225   6.563   2.505
 3208TIP3   OH2 9564   4.516   0.783   4.110
 3208TIP3    H1 9565   4.541   0.802   4.020
 3208TIP3    H2 9566   4.517   0.688   4.116
 3209TIP3   OH2 9567   4.745   2.672   2.981
 3209TIP3    H1 9568   4.819   2.613   2.970
 3209TIP3    H2 9569   4.785   2.759   2.989
 3210TIP3   OH2 9570   2.410   2.736   2.598
 3210TIP3    H1 9571   2.420   2.828   2.573
 3210TIP3    H2 9572   2.469   2.689   2.540
 3211TIP3   OH2 9573   0.990   4.778   0.679
 3211TIP3    H1 9574   0.938   4.698   0.686
 3211TIP3    H2 9575   1.067   4.753   0.630
 3212TIP3   OH2 9576   4.077   6.578   0.249
 3212TIP3    H1 9577   4.141   6.644   0.277
 3212TIP3    H2 9578   4.058   6.601   0.158
 3213TIP3   OH2 9579   7.374   5.088   2.612
 3213TIP3    H1 9580   7.394   5.028   2.684
 3213TIP3    H2 9581   7.457   5.095   2.564
 3214TIP3   OH2 9582   5.119   4.011   2.687
 3214TIP3    H1 9583   5.159   4.024   2.601
 3214TIP3    H2 9584   5.034   4.054   2.681
 3215TIP3   OH2 9585   5.087   6.454   1.141
 3215TIP3    H1 9586   5.056   6.432   1.054
 3215TIP3    H2 9587   5.027   6.410   1.201
 3216TIP3   OH2 9588   1.797   7.329   5.328
 3216TIP3    H1 9589   1.852   7.251   5.327
 3216TIP3    H2 9590   1.815   7.370   5.413
 3217TIP3   OH2 9591   2.342   2.409   1.115
 3217TIP3    H1 9592   2.262   2.374   1.154
 3217TIP3    H2 9593   2.313   2.453   1.035
 3218TIP3   OH2 9594   3.492   1.190   3.568
 3218TIP3    H1 9595   3.458   1.107   3.602
 3218TIP3    H2 9596   3.425   1.255   3.592
 3219TIP3   OH2 9597   4.359   6.515   0.131
 3219TIP3    H1 9598   4.427   6.484   0.072
 3219TIP3    H2 9599   4.278   6.504   0.082
 3220TIP3   OH2 9600   7.459   0.875   0.203
 3220TIP3    H1 9601   7.547   0.844   0.222
 3220TIP3    H2 9602   7.424   0.811   0.140
 3221TIP3   OH2 9603   0.831   2.265   4.815
 3221TIP3    H1 9604   0.780   2.193   4.852
 3221TIP3    H2 9605   0.859   2.317   4.890
 3222TIP3   OH2 9606   4.812   7.448   4.756
 3222TIP3    H1 9607   4.826   7.388   4.829
 3222TIP3    H2 9608   4.720   7.474   4.763
 3223TIP3   OH2 9609   3.417   5.727   3.253
 3223TIP3    H1 9610   3.380   5.729   3.165
 3223TIP3    H2 9611   3.492   5.667   3.247
 3224TIP3   OH2 9612   4.313   1.428   0.133
 3224TIP3    H1 9613   4.247   1.435   0.202
 3224TIP3    H2 9614   4.265   1.400   0.056
 3225TIP3   OH2 9615   2.031   3.269   0.134
 3225TIP3    H1 9616   2.083   3.335   0.179
 3225TIP3    H2 9617   1.941   3.284   0.164
 3226TIP3   OH2 9618   7.559  -0.009   5.010
 3226TIP3    H1 9619   7.508   0.065   4.978
 3226TIP3    H2 9620   7.576   0.011   5.102
 3227TIP3   OH2 9621   0.322   7.702   6.656
 3227TIP3    H1 9622   0.246   7.653   6.624
 3227TIP3    H2 9623   0.355   7.748   6.579
 3228TIP3   OH2 9624   5.874   7.261   6.662
 3228TIP3    H1 9625   5.866   7.240   6.569
 3228TIP3    H2 9626   5.849   7.180   6.707
 3229TIP3   OH2 9627   8.030   3.985   3.045
 3229TIP3    H1 9628   7.995   4.025   2.966
 3229TIP3    H2 9629   8.120   3.961   3.022
 3230TIP3   OH2 9630   4.591   1.542   0.817
 3230TIP3    H1 9631   4.561   1.576   0.733
 3230TIP3    H2 9632   4.615   1.619   0.868
 3231TIP3   OH2 9633   3.215   5.437   6.222
 3231TIP3    H1 9634   3.223   5.503   6.153
 3231TIP3    H2 9635   3.266   5.472   6.295
 3232TIP3   OH2 9636   4.414   5.206   4.890
 3232TIP3    H1 9637   4.480   5.271   4.865
 3232TIP3    H2 9638   4.464   5.137   4.934
 3233TIP3   OH2 9639   7.874   2.942   6.428
 3233TIP3    H1 9640   7.960   2.930   6.388
 3233TIP3    H2 9641   7.885   2.915   6.519
 3234TIP3   OH2 9642   8.356   4.912   5.539
 3234TIP3    H1 9643   8.399   4.991   5.572
 3234TIP3    H2 9644   8.387   4.904   5.449
 3235TIP3   OH2 9645   3.160   1.538   3.868
 3235TIP3    H1 9646   3.067   1.539   3.891
 3235TIP3    H2 9647   3.205   1.527   3.952
 3236TIP3   OH2 9648   4.500   6.571   5.631
 3236TIP3    H1 9649   4.583   6.575   5.678
 3236TIP3    H2 9650   4.484   6.660   5.602
 3237TIP3   OH2 9651   2.993   7.067   0.755
 3237TIP3    H1 9652   2.973   7.020   0.836
 3237TIP3    H2 9653   3.072   7.024   0.721
 3238TIP3   OH2 9654   3.944   1.896   4.700
 3238TIP3    H1 9655   4.034   1.912   4.730
 3238TIP3    H2 9656   3.890   1.918   4.776
 3239TIP3   OH2 9657   3.384   7.105   5.908
 3239TIP3    H1 9658   3.446   7.089   5.979
 3239TIP3    H2 9659   3.325   7.030   5.910
 3240TIP3   OH2 9660   7.951   6.960   0.063
 3240TIP3    H1 9661   7.934   6.958  -0.031
 3240TIP3    H2 9662   7.893   6.892   0.099
 3241TIP3   OH2 9663   0.360   6.788   3.190
 3241TIP3    H1 9664   0.371   6.696   3.167
 3241TIP3    H2 9665   0.340   6.788   3.283
 3242TIP3   OH2 9666   3.180   7.128   6.169
 3242TIP3    H1 9667   3.120   7.085   6.108
 3242TIP3    H2 9668   3.242   7.174   6.112
 3243TIP3   OH2 9669   2.297   3.292   3.640
 3243TIP3    H1 9670   2.359   3.326   3.575
 3243TIP3    H2 9671   2.294   3.360   3.707
 3244TIP3   OH2 9672   3.229   2.994   3.529
 3244TIP3    H1 9673   3.240   3.052   3.605
 3244TIP3    H2 9674   3.307   2.938   3.531
 3245TIP3   OH2 9675   4.570   1.205   4.644
 3245TIP3    H1 9676   4.651   1.176   4.602
 3245TIP3    H2 9677   4.520   1.125   4.657
 3246TIP3   OH2 9678   1.794   3.787   4.260
 3246TIP3    H1 9679   1.787   3.816   4.169
 3246TIP3    H2 9680   1.729   3.717   4.268
 3247TIP3   OH2 9681   4.937   4.510   4.319
 3247TIP3    H1 9682   4.842   4.506   4.316
 3247TIP3    H2 9683   4.957   4.545   4.407
 3248TIP3   OH2 9684   2.941   6.755   3.893
 3248TIP3    H1 9685   2.907   6.674   3.931
 3248TIP3    H2 9686   2.937   6.740   3.798
 3249TIP3   OH2 9687   1.657   2.427   5.531
 3249TIP3    H1 9688   1.580   2.373   5.512
 3249TIP3    H2 9689   1.623   2.500   5.582
 3250TIP3   OH2 9690   4.408   6.541   2.719
 3250TIP3    H1 9691   4.383   6.633   2.723
 3250TIP3    H2 9692   4.499   6.540   2.747
 3251TIP3   OH2 9693   3.833   0.823   5.631
 3251TIP3    H1 9694   3.752   0.813   5.681
 3251TIP3    H2 9695   3.808   0.878   5.556
 3252TIP3   OH2 9696   8.252   4.819   1.250
 3252TIP3    H1 9697   8.212   4.765   1.183
 3252TIP3    H2 9698   8.178   4.849   1.304
 3253TIP3   OH2 9699   3.573   7.035   1.315
 3253TIP3    H1 9700   3.649   7.054   1.260
 3253TIP3    H2 9701   3.499   7.043   1.256
 3254TIP3   OH2 9702   5.658   4.465   2.724
 3254TIP3    H1 9703   5.742   4.425   2.749
 3254TIP3    H2 9704   5.609   4.468   2.806
 3255TIP3   OH2 9705   1.644   7.330   4.511
 3255TIP3    H1 9706   1.601   7.329   4.426
 3255TIP3    H2 9707   1.663   7.423   4.527
 3256TIP3   OH2 9708   4.955   6.947   3.372
 3256TIP3    H1 9709   5.025   6.994   3.326
 3256TIP3    H2 9710   4.942   6.868   3.320
 3257TIP3   OH2 9711   2.433   5.114   0.084
 3257TIP3    H1 9712   2.420   5.137   0.176
 3257TIP3    H2 9713   2.425   5.018   0.082
 3258TIP3   OH2 9714   7.530   3.086   5.571
 3258TIP3    H1 9715   7.481   3.039   5.503
 3258TIP3    H2 9716   7.617   3.046   5.569
 3259TIP3   OH2 9717   8.384   6.969   0.164
 3259TIP3    H1 9718   8.331   7.030   0.113
 3259TIP3    H2 9719   8.359   6.986   0.255
 3260TIP3   OH2 9720   7.163   3.691   2.622
 3260TIP3    H1 9721   7.094   3.688   2.556
 3260TIP3    H2 9722   7.125   3.650   2.699
 3261TIP3   OH2 9723   3.782   4.477   6.686
 3261TIP3    H1 9724   3.741   4.454   6.603
 3261TIP3    H2 9725   3.823   4.562   6.671
 3262TIP3   OH2 9726   6.526   5.339   1.347
 3262TIP3    H1 9727   6.538   5.361   1.440
 3262TIP3    H2 9728   6.433   5.353   1.331
 3263TIP3   OH2 9729   6.628   2.821   2.314
 3263TIP3    H1 9730   6.681   2.796   2.390
 3263TIP3    H2 9731   6.602   2.911   2.332
 3264TIP3   OH2 9732   1.549   1.090   2.401
 3264TIP3    H1 9733   1.457   1.078   2.376
 3264TIP3    H2 9734   1.562   1.185   2.398
 3265TIP3   OH2 9735   0.380   4.737   4.656
 3265TIP3    H1 9736   0.417   4.665   4.605
 3265TIP3    H2 9737   0.338   4.794   4.591
 3266TIP3   OH2 9738   6.328   7.028   3.515
 3266TIP3    H1 9739   6.372   6.984   3.587
 3266TIP3    H2 9740   6.285   7.104   3.555
 3267TIP3   OH2 9741   1.490   4.900   5.499
 3267TIP3    H1 9742   1.485   4.924   5.592
 3267TIP3    H2 9743   1.460   4.809   5.497
 3268TIP3   OH2 9744   2.447   4.594   2.037
 3268TIP3    H1 9745   2.367   4.553   2.005
 3268TIP3    H2 9746   2.446   4.682   1.999
 3269TIP3   OH2 9747   6.471   6.966   3.753
 3269TIP3    H1 9748   6.438   6.975   3.843
 3269TIP3    H2 9749   6.526   7.043   3.739
 3270TIP3   OH2 9750   3.725   1.595   0.928
 3270TIP3    H1 9751   3.630   1.591   0.915
 3270TIP3    H2 9752   3.738   1.571   1.020
 3271TIP3   OH2 9753   7.353   2.759   2.019
 3271TIP3    H1 9754   7.397   2.674   2.010
 3271TIP3    H2 9755   7.316   2.758   2.107
 3272TIP3   OH2 9756   1.270   4.234   0.511
 3272TIP3    H1 9757   1.261   4.252   0.605
 3272TIP3    H2 9758   1.181   4.241   0.477
 3273TIP3   OH2 9759   5.650   1.726   6.041
 3273TIP3    H1 9760   5.586   1.727   5.969
 3273TIP3    H2 9761   5.734   1.743   5.999
 3274TIP3   OH2 9762   5.591   7.393   2.260
 3274TIP3    H1 9763   5.549   7.438   2.333
 3274TIP3    H2 9764   5.636   7.319   2.302
 3275TIP3   OH2 9765   2.295   1.506   3.728
 3275TIP3    H1 9766   2.259   1.594   3.728
 3275TIP3    H2 9767   2.289   1.477   3.638
 3276TIP3   OH2 9768   3.082   4.364   4.013
 3276TIP3    H1 9769   3.135   4.311   4.073
 3276TIP3    H2 9770   3.135   4.441   3.996
 3277TIP3   OH2 9771   7.819   6.047   2.237
 3277TIP3    H1 9772   7.886   6.107   2.203
 3277TIP3    H2 9773   7.756   6.105   2.281
 3278TIP3   OH2 9774   5.257   0.583   3.799
 3278TIP3    H1 9775   5.280   0.498   3.836
 3278TIP3    H2 9776   5.295   0.582   3.711
 3279TIP3   OH2 9777   2.921   1.098   1.495
 3279TIP3    H1 9778   2.968   1.106   1.577
 3279TIP3    H2 9779   2.850   1.037   1.513
 3280TIP3   OH2 9780   1.451   3.753   1.513
 3280TIP3    H1 9781   1.455   3.795   1.426
 3280TIP3    H2 9782   1.431   3.661   1.494
 3281TIP3   OH2 9783   2.520   1.782   1.445
 3281TIP3    H1 9784   2.470   1.715   1.492
 3281TIP3    H2 9785   2.457   1.820   1.383
 3282TIP3   OH2 9786   8.070   1.932   2.708
 3282TIP3    H1 9787   8.028   1.888   2.781
 3282TIP3    H2 9788   8.112   1.862   2.658
 3283TIP3   OH2 9789   3.512   0.029   5.955
 3283TIP3    H1 9790   3.534   0.098   5.892
 3283TIP3    H2 9791   3.434  -0.013   5.919
 3284TIP3   OH2 9792   0.000   3.234   3.030
 3284TIP3    H1 9793  -0.027   3.249   2.940
 3284TIP3    H2 9794  -0.001   3.138   3.040
 3285TIP3   OH2 9795   3.899   6.357   0.106
 3285TIP3    H1 9796   3.894   6.349   0.201
 3285TIP3    H2 9797   3.988   6.388   0.089
 3286TIP3   OH2 9798   5.500   5.956   5.394
 3286TIP3    H1 9799   5.496   5.861   5.403
 3286TIP3    H2 9800   5.581   5.981   5.438
 3287TIP3   OH2 9801   0.405   0.754   5.036
 3287TIP3    H1 9802   0.480   0.813   5.038
 3287TIP3    H2 9803   0.330   0.810   5.017
 3288TIP3   OH2 9804   3.357   2.761   3.305
 3288TIP3    H1 9805   3.385   2.810   3.382
 3288TIP3    H2 9806   3.430   2.770   3.243
 3289TIP3   OH2 9807   8.015   7.192   0.200
 3289TIP3    H1 9808   7.963   7.235   0.132
 3289TIP3    H2 9809   8.001   7.098   0.185
 3290TIP3   OH2 9810   7.549   0.853   4.398
 3290TIP3    H1 9811   7.486   0.788   4.430
 3290TIP3    H2 9812   7.622   0.848   4.459
 3291TIP3   OH2 9813   6.490   7.685   2.124
 3291TIP3    H1 9814   6.577   7.723   2.135
 3291TIP3    H2 9815   6.506   7.591   2.115
 3292TIP3   OH2 9816   4.220   2.406   3.581
 3292TIP3    H1 9817   4.137   2.403   3.533
 3292TIP3    H2 9818   4.198   2.443   3.666
 3293TIP3   OH2 9819   6.396   7.784   5.358
 3293TIP3    H1 9820   6.377   7.731   5.435
 3293TIP3    H2 9821   6.311   7.819   5.331
 3294TIP3   OH2 9822   2.724   7.187   1.412
 3294TIP3    H1 9823   2.687   7.230   1.490
 3294TIP3    H2 9824   2.648   7.146   1.370
 3295TIP3   OH2 9825   3.211   5.516   4.858
 3295TIP3    H1 9826   3.172   5.451   4.916
 3295TIP3    H2 9827   3.305   5.507   4.872
 3296TIP3   OH2 9828   6.611   4.216   2.294
 3296TIP3    H1 9829   6.556   4.189   2.368
 3296TIP3    H2 9830   6.680   4.268   2.333
 3297TIP3   OH2 9831   1.940   4.877   1.813
 3297TIP3    H1 9832   2.011   4.872   1.877
 3297TIP3    H2 9833   1.889   4.954   1.840
 3298TIP3   OH2 9834   3.238   1.243   3.400
 3298TIP3    H1 9835   3.314   1.243   3.457
 3298TIP3    H2 9836   3.163   1.245   3.460
 3299TIP3   OH2 9837   6.892   4.484   5.160
 3299TIP3    H1 9838   6.844   4.402   5.167
 3299TIP3    H2 9839   6.960   4.467   5.095
 3300TIP3   OH2 9840   1.944   6.633   2.281
 3300TIP3    H1 9841   1.913   6.567   2.219
 3300TIP3    H2 9842   1.880   6.704   2.274
 3301TIP3   OH2 9843   8.384   5.286   6.798
 3301TIP3    H1 9844   8.338   5.367   6.775
 3301TIP3    H2 9845   8.316   5.218   6.794
 3302TIP3   OH2 9846   5.099   2.052   3.878
 3302TIP3    H1 9847   5.146   2.130   3.909
 3302TIP3    H2 9848   5.111   2.052   3.783
 3303TIP3   OH2 9849   1.467   4.882   5.971
 3303TIP3    H1 9850   1.555   4.852   5.996
 3303TIP3    H2 9851   1.420   4.801   5.949
 3304TIP3   OH2 9852   3.868   3.469   3.814
 3304TIP3    H1 9853   3.929   3.414   3.863
 3304TIP3    H2 9854   3.907   3.479   3.728
 3305TIP3   OH2 9855   0.641   0.673   0.164
 3305TIP3    H1 9856   0.726   0.671   0.209
 3305TIP3    H2 9857   0.576   0.673   0.234
 3306TIP3   OH2 9858   0.586   7.558   3.272
 3306TIP3    H1 9859   0.629   7.643   3.258
 3306TIP3    H2 9860   0.612   7.533   3.361
 3307TIP3   OH2 9861   7.252   4.185   0.677
 3307TIP3    H1 9862   7.285   4.162   0.590
 3307TIP3    H2 9863   7.263   4.105   0.728
 3308TIP3   OH2 9864   6.641   3.883   4.994
 3308TIP3    H1 9865   6.661   3.876   4.901
 3308TIP3    H2 9866   6.582   3.809   5.012
 3309TIP3   OH2 9867   2.950   5.861   2.818
 3309TIP3    H1 9868   2.994   5.778   2.836
 3309TIP3    H2 9869   2.957   5.872   2.723
 3310TIP3   OH2 9870   5.693   1.441   0.487
 3310TIP3    H1 9871   5.616   1.462   0.434
 3310TIP3    H2 9872   5.712   1.350   0.465
 3311TIP3   OH2 9873   6.178   0.177   4.204
 3311TIP3    H1 9874   6.145   0.206   4.119
 3311TIP3    H2 9875   6.099   0.166   4.257
 3312TIP3   OH2 9876   7.468   2.927   3.089
 3312TIP3    H1 9877   7.437   2.837   3.088
 3312TIP3    H2 9878   7.409   2.974   3.030
 3313TIP3   OH2 9879   3.334   7.672   6.024
 3313TIP3    H1 9880   3.275   7.600   5.999
 3313TIP3    H2 9881   3.323   7.736   5.954
 3314TIP3   OH2 9882   2.573   5.959   4.383
 3314TIP3    H1 9883   2.635   5.891   4.411
 3314TIP3    H2 9884   2.524   5.919   4.311
 3315TIP3   OH2 9885   1.673   7.685   1.406
 3315TIP3    H1 9886   1.596   7.628   1.411
 3315TIP3    H2 9887   1.718   7.657   1.326
 3316TIP3   OH2 9888   3.758   5.475   0.483
 3316TIP3    H1 9889   3.680   5.529   0.498
 3316TIP3    H2 9890   3.731   5.412   0.416
 3317TIP3   OH2 9891   3.274   2.451   4.916
 3317TIP3    H1 9892   3.320   2.521   4.870
 3317TIP3    H2 9893   3.226   2.495   4.985
 3318TIP3   OH2 9894   0.264   5.818   5.823
 3318TIP3    H1 9895   0.203   5.843   5.754
 3318TIP3    H2 9896   0.216   5.756   5.877
 3319TIP3   OH2 9897   5.762   3.612   5.574
 3319TIP3    H1 9898   5.734   3.571   5.492
 3319TIP3    H2 9899   5.680   3.634   5.619
 3320TIP3   OH2 9900   1.143   6.851   6.439
 3320TIP3    H1 9901   1.226   6.820   6.404
 3320TIP3    H2 9902   1.165   6.889   6.524
 3321TIP3   OH2 9903   6.074   0.825   0.159
 3321TIP3    H1 9904   6.122   0.838   0.077
 3321TIP3    H2 9905   6.124   0.873   0.224
 3322TIP3   OH2 9906   7.258   2.064   4.089
 3322TIP3    H1 9907   7.341   2.018   4.084
 3322TIP3    H2 9908   7.255   2.117   4.009
 3323TIP3   OH2 9909   5.783   6.308   6.463
 3323TIP3    H1 9910   5.876   6.300   6.485
 3323TIP3    H2 9911   5.774   6.399   6.435
 3324TIP3   OH2 9912   5.665   0.154   6.567
 3324TIP3    H1 9913   5.613   0.212   6.511
 3324TIP3    H2 9914   5.739   0.208   6.595
 3325TIP3   OH2 9915   0.610   2.747   2.962
 3325TIP3    H1 9916   0.593   2.752   2.868
 3325TIP3    H2 9917   0.621   2.653   2.979
 3326TIP3   OH2 9918   7.170   7.152   0.635
 3326TIP3    H1 9919   7.096   7.211   0.647
 3326TIP3    H2 9920   7.214   7.185   0.557
 3327TIP3   OH2 9921   1.752   3.133   4.542
 3327TIP3    H1 9922   1.759   3.118   4.448
 3327TIP3    H2 9923   1.808   3.065   4.581
 3328TIP3   OH2 9924   0.135   1.818   1.514
 3328TIP3    H1 9925   0.128   1.738   1.462
 3328TIP3    H2 9926   0.199   1.796   1.582
 3329TIP3   OH2 9927   3.935   2.781   1.936
 3329TIP3    H1 9928   3.958   2.747   2.022
 3329TIP3    H2 9929   3.967   2.871   1.937
 3330TIP3   OH2 9930   6.416   7.115   5.798
 3330TIP3    H1 9931   6.372   7.142   5.879
 3330TIP3    H2 9932   6.474   7.188   5.777
 3331TIP3   OH2 9933   2.940   1.757   0.060
 3331TIP3    H1 9934   2.924   1.756  -0.034
 3331TIP3    H2 9935   2.865   1.803   0.097
 3332TIP3   OH2 9936   1.457   3.865   3.000
 3332TIP3    H1 9937   1.466   3.775   2.967
 3332TIP3    H2 9938   1.540   3.907   2.980
 3333TIP3   OH2 9939   6.148   3.426   3.812
 3333TIP3    H1 9940   6.172   3.504   3.762
 3333TIP3    H2 9941   6.173   3.353   3.756
 3334TIP3   OH2 9942   5.779   2.622   4.400
 3334TIP3    H1 9943   5.687   2.602   4.385
 3334TIP3    H2 9944   5.814   2.638   4.312
 3335TIP3   OH2 9945   7.989   1.353   3.771
 3335TIP3    H1 9946   8.079   1.377   3.794
 3335TIP3    H2 9947   7.980   1.378   3.679
 3336TIP3   OH2 9948   1.235   3.800   6.733
 3336TIP3    H1 9949   1.194   3.807   6.647
 3336TIP3    H2 9950   1.312   3.745   6.718
 3337TIP3   OH2 9951   4.289   5.510   3.875
 3337TIP3    H1 9952   4.233   5.500   3.953
 3337TIP3    H2 9953   4.237   5.473   3.804
 3338TIP3   OH2 9954   4.791   1.251   3.201
 3338TIP3    H1 9955   4.831   1.182   3.147
 3338TIP3    H2 9956   4.767   1.319   3.139
 3339TIP3   OH2 9957   7.032   1.679   4.281
 3339TIP3    H1 9958   6.991   1.607   4.234
 3339TIP3    H2 9959   7.106   1.639   4.326
 3340TIP3   OH2 9960   4.681   3.457   2.333
 3340TIP3    H1 9961   4.644   3.374   2.362
 3340TIP3    H2 9962   4.773   3.436   2.313
 3341TIP3   OH2 9963   0.949   1.706   0.455
 3341TIP3    H1 9964   0.974   1.678   0.543
 3341TIP3    H2 9965   0.952   1.802   0.458
 3342TIP3   OH2 9966   6.725   2.403   2.782
 3342TIP3    H1 9967   6.692   2.373   2.697
 3342TIP3    H2 9968   6.682   2.346   2.846
 3343TIP3   OH2 9969   2.786   5.722   4.892
 3343TIP3    H1 9970   2.780   5.801   4.946
 3343TIP3    H2 9971   2.819   5.753   4.808
 3344TIP3   OH2 9972   0.244   7.175   5.091
 3344TIP3    H1 9973   0.198   7.256   5.073
 3344TIP3    H2 9974   0.208   7.144   5.174
 3345TIP3   OH2 9975   2.005   1.905   4.719
 3345TIP3    H1 9976   2.073   1.838   4.730
 3345TIP3    H2 9977   1.939   1.864   4.664
 3346TIP3   OH2 9978   2.246   6.454   4.572
 3346TIP3    H1 9979   2.254   6.388   4.641
 3346TIP3    H2 9980   2.281   6.534   4.611
 3347TIP3   OH2 9981   5.446   3.704   5.375
 3347TIP3    H1 9982   5.395   3.720   5.454
 3347TIP3    H2 9983   5.410   3.622   5.340
 3348TIP3   OH2 9984   5.808   6.703   3.919
 3348TIP3    H1 9985   5.880   6.697   3.982
 3348TIP3    H2 9986   5.810   6.793   3.888
 3349TIP3   OH2 9987   4.466   6.444   5.071
 3349TIP3    H1 9988   4.389   6.481   5.029
 3349TIP3    H2 9989   4.479   6.360   5.027
 3350TIP3   OH2 9990   5.105   1.292   4.325
 3350TIP3    H1 9991   5.187   1.311   4.279
 3350TIP3    H2 9992   5.052   1.371   4.314
 3351TIP3   OH2 9993   8.364   2.131   3.715
 3351TIP3    H1 9994   8.385   2.155   3.806
 3351TIP3    H2 9995   8.299   2.197   3.688
 3352TIP3   OH2 9996   0.201   5.364   1.399
 3352TIP3    H1 9997   0.164   5.336   1.315
 3352TIP3    H2 9998   0.219   5.458   1.387
 3353TIP3   OH2 9999   6.310   6.923   4.897
 3353TIP3    H110000   6.371   6.869   4.946
 3353TIP3    H210001   6.360   7.002   4.876
 3354TIP3   OH210002   0.220   1.995   0.156
 3354TIP3    H110003   0.221   1.912   0.109
 3354TIP3    H210004   0.213   1.971   0.248
 3355TIP3   OH210005   0.833   4.049   5.353
 3355TIP3    H110006   0.811   4.020   5.265
 3355TIP3    H210007   0.810   4.142   5.355
 3356TIP3   OH210008   5.514   4.173   1.360
 3356TIP3    H110009   5.606   4.147   1.359
 3356TIP3    H210010   5.515   4.267   1.347
 3357TIP3   OH210011   6.531   3.040   1.914
 3357TIP3    H110012   6.450   3.028   1.864
 3357TIP3    H210013   6.532   2.967   1.975
 3358TIP3   OH210014   0.150   0.537   3.913
 3358TIP3    H110015   0.064   0.543   3.956
 3358TIP3    H210016   0.170   0.626   3.887
 3359TIP3   OH210017   6.217   1.336   5.177
 3359TIP3    H110018   6.258   1.363   5.095
 3359TIP3    H210019   6.283   1.283   5.222
 3360TIP3   OH210020   5.568   2.034   4.029
 3360TIP3    H110021   5.635   1.968   4.046
 3360TIP3    H210022   5.487   1.996   4.063
 3361TIP3   OH210023   7.298   1.544   1.625
 3361TIP3    H110024   7.278   1.611   1.560
 3361TIP3    H210025   7.253   1.573   1.704
 3362TIP3   OH210026   1.351   7.483   5.328
 3362TIP3    H110027   1.324   7.437   5.249
 3362TIP3    H210028   1.406   7.555   5.297
 3363TIP3   OH210029   3.478   4.049   1.351
 3363TIP3    H110030   3.462   4.070   1.259
 3363TIP3    H210031   3.571   4.068   1.365
 3364TIP3   OH210032   7.824   3.552   0.960
 3364TIP3    H110033   7.731   3.566   0.977
 3364TIP3    H210034   7.829   3.460   0.932
 3365TIP3   OH210035   2.509   4.580   0.195
 3365TIP3    H110036   2.444   4.517   0.164
 3365TIP3    H210037   2.592   4.535   0.186
 3366TIP3   OH210038   3.678   7.398   2.081
 3366TIP3    H110039   3.736   7.424   2.010
 3366TIP3    H210040   3.674   7.475   2.138
 3367TIP3   OH210041   7.553   1.160   1.822
 3367TIP3    H110042   7.601   1.241   1.835
 3367TIP3    H210043   7.461   1.186   1.817
 3368TIP3   OH210044   3.957   1.351   6.616
 3368TIP3    H110045   4.038   1.372   6.662
 3368TIP3    H210046   3.956   1.410   6.541
 3369TIP3   OH210047   2.896   7.100   3.562
 3369TIP3    H110048   2.805   7.121   3.544
 3369TIP3    H210049   2.939   7.107   3.476
 3370TIP3   OH210050   7.965   4.298   5.928
 3370TIP3    H110051   8.012   4.216   5.909
 3370TIP3    H210052   7.875   4.271   5.944
 3371TIP3   OH210053   4.007   4.557   4.513
 3371TIP3    H110054   4.048   4.592   4.593
 3371TIP3    H210055   4.002   4.463   4.529
 3372TIP3   OH210056   1.213   0.899   3.174
 3372TIP3    H110057   1.179   0.821   3.219
 3372TIP3    H210058   1.173   0.895   3.087
 3373TIP3   OH210059   4.935   2.435   4.119
 3373TIP3    H110060   5.030   2.426   4.107
 3373TIP3    H210061   4.925   2.513   4.173
 3374TIP3   OH210062   1.262   0.072   1.517
 3374TIP3    H110063   1.215   0.003   1.471
 3374TIP3    H210064   1.305   0.122   1.448
 3375TIP3   OH210065   2.168   2.938   1.046
 3375TIP3    H110066   2.141   2.846   1.051
 3375TIP3    H210067   2.162   2.960   0.953
 3376TIP3   OH210068   2.724   7.412   3.883
 3376TIP3    H110069   2.791   7.388   3.819
 3376TIP3    H210070   2.773   7.442   3.960
 3377TIP3   OH210071   7.222   0.498   0.726
 3377TIP3    H110072   7.308   0.541   0.729
 3377TIP3    H210073   7.222   0.453   0.641
 3378TIP3   OH210074   8.322   6.074   2.723
 3378TIP3    H110075   8.336   6.151   2.668
 3378TIP3    H210076   8.410   6.050   2.752
 3379TIP3   OH210077   1.201   1.695   0.107
 3379TIP3    H110078   1.165   1.624   0.160
 3379TIP3    H210079   1.124   1.739   0.072
 3380TIP3   OH210080   7.625   5.420   0.963
 3380TIP3    H110081   7.709   5.396   0.923
 3380TIP3    H210082   7.644   5.429   1.056
 3381TIP3   OH210083   0.358   0.986   5.687
 3381TIP3    H110084   0.366   1.044   5.611
 3381TIP3    H210085   0.285   0.928   5.666
 3382TIP3   OH210086   6.838   1.090   5.468
 3382TIP3    H110087   6.844   1.162   5.530
 3382TIP3    H210088   6.825   1.012   5.522
 3383TIP3   OH210089   4.439   2.733   2.489
 3383TIP3    H110090   4.501   2.750   2.418
 3383TIP3    H210091   4.493   2.697   2.560
 3384TIP3   OH210092   7.711   2.454   4.985
 3384TIP3    H110093   7.745   2.368   5.008
 3384TIP3    H210094   7.765   2.483   4.912
 3385TIP3   OH210095   5.830   7.654   3.132
 3385TIP3    H110096   5.746   7.699   3.147
 3385TIP3    H210097   5.849   7.611   3.215
 3386TIP3   OH210098   5.382   1.443   2.198
 3386TIP3    H110099   5.448   1.455   2.129
 3386TIP3    H210100   5.408   1.503   2.267
 3387TIP3   OH210101   6.704   3.923   4.300
 3387TIP3    H110102   6.706   3.987   4.229
 3387TIP3    H210103   6.723   3.839   4.257
 3388TIP3   OH210104   6.036   3.981   1.183
 3388TIP3    H110105   6.130   3.993   1.197
 3388TIP3    H210106   6.026   3.988   1.088
 3389TIP3   OH210107   1.729   2.839   3.992
 3389TIP3    H110108   1.694   2.809   4.076
 3389TIP3    H210109   1.652   2.867   3.943
 3390TIP3   OH210110   7.128   1.627   5.872
 3390TIP3    H110111   7.127   1.586   5.786
 3390TIP3    H210112   7.131   1.721   5.855
 3391TIP3   OH210113   2.141   5.402   6.312
 3391TIP3    H110114   2.220   5.356   6.282
 3391TIP3    H210115   2.097   5.340   6.369
 3392TIP3   OH210116   6.904   1.258   5.912
 3392TIP3    H110117   6.906   1.352   5.933
 3392TIP3    H210118   6.949   1.252   5.827
 3393TIP3   OH210119   4.840   5.637   6.082
 3393TIP3    H110120   4.815   5.689   6.159
 3393TIP3    H210121   4.756   5.616   6.040
 3394TIP3   OH210122   2.736   4.081   2.986
 3394TIP3    H110123   2.708   4.087   2.895
 3394TIP3    H210124   2.699   4.158   3.028
 3395TIP3   OH210125   6.038   7.679   5.191
 3395TIP3    H110126   5.950   7.703   5.162
 3395TIP3    H210127   6.074   7.626   5.119
 3396TIP3   OH210128   3.791   1.797   5.448
 3396TIP3    H110129   3.805   1.702   5.442
 3396TIP3    H210130   3.856   1.834   5.389
 3397TIP3   OH210131   1.128   6.141   6.802
 3397TIP3    H110132   1.110   6.219   6.855
 3397TIP3    H210133   1.108   6.067   6.859
 3398TIP3   OH210134   6.738   4.078   4.601
 3398TIP3    H110135   6.706   4.008   4.659
 3398TIP3    H210136   6.803   4.124   4.653
 3399TIP3   OH210137   4.421   5.271   0.419
 3399TIP3    H110138   4.370   5.239   0.345
 3399TIP3    H210139   4.403   5.365   0.422
 3400TIP3   OH210140   2.516   6.159   2.429
 3400TIP3    H110141   2.525   6.104   2.351
 3400TIP3    H210142   2.429   6.138   2.463
 3401TIP3   OH210143   2.155   3.425   1.420
 3401TIP3    H110144   2.144   3.330   1.421
 3401TIP3    H210145   2.077   3.459   1.464
 3402TIP3   OH210146   3.972   5.405   4.930
 3402TIP3    H110147   3.949   5.338   4.866
 3402TIP3    H210148   3.908   5.474   4.917
 3403TIP3   OH210149   6.189   0.427   2.613
 3403TIP3    H110150   6.254   0.497   2.610
 3403TIP3    H210151   6.108   0.466   2.581
 3404TIP3   OH210152   1.185   7.839   5.422
 3404TIP3    H110153   1.097   7.849   5.458
 3404TIP3    H210154   1.187   7.898   5.347
 3405TIP3   OH210155   2.757   0.405   3.703
 3405TIP3    H110156   2.731   0.333   3.645
 3405TIP3    H210157   2.734   0.484   3.656
 3406TIP3   OH210158   0.562   5.230   0.496
 3406TIP3    H110159   0.631   5.288   0.529
 3406TIP3    H210160   0.603   5.144   0.493
 3407TIP3   OH210161   0.788   3.466   4.462
 3407TIP3    H110162   0.771   3.378   4.495
 3407TIP3    H210163   0.730   3.523   4.513
 3408TIP3   OH210164   6.941   3.388   1.458
 3408TIP3    H110165   6.924   3.431   1.375
 3408TIP3    H210166   6.972   3.459   1.516
 3409TIP3   OH210167   8.182   1.556   5.266
 3409TIP3    H110168   8.208   1.631   5.213
 3409TIP3    H210169   8.260   1.501   5.272
 3410TIP3   OH210170   3.335   5.282   0.871
 3410TIP3    H110171   3.362   5.209   0.815
 3410TIP3    H210172   3.414   5.306   0.920
 3411TIP3   OH210173   7.605   1.431   2.795
 3411TIP3    H110174   7.589   1.488   2.870
 3411TIP3    H210175   7.615   1.491   2.721
 3412TIP3   OH210176   5.821   4.712   0.928
 3412TIP3    H110177   5.733   4.747   0.942
 3412TIP3    H210178   5.807   4.620   0.908
 3413TIP3   OH210179   4.806   2.861   5.890
 3413TIP3    H110180   4.861   2.910   5.952
 3413TIP3    H210181   4.802   2.916   5.813
 3414TIP3   OH210182   4.253   1.157   4.191
 3414TIP3    H110183   4.286   1.223   4.251
 3414TIP3    H210184   4.291   1.180   4.106
 3415TIP3   OH210185   3.520   1.965   1.393
 3415TIP3    H110186   3.569   1.969   1.311
 3415TIP3    H210187   3.453   1.899   1.378
 3416TIP3   OH210188   4.615   2.588   4.987
 3416TIP3    H110189   4.694   2.552   5.027
 3416TIP3    H210190   4.543   2.538   5.027
 3417TIP3   OH210191   2.183   1.536   2.176
 3417TIP3    H110192   2.247   1.559   2.109
 3417TIP3    H210193   2.111   1.496   2.127
 3418TIP3   OH210194   0.360   3.366   0.166
 3418TIP3    H110195   0.385   3.377   0.074
 3418TIP3    H210196   0.344   3.455   0.197
 3419TIP3   OH210197   6.040   6.041   3.650
 3419TIP3    H110198   6.103   6.012   3.716
 3419TIP3    H210199   6.046   5.975   3.580
 3420TIP3   OH210200   5.322   7.329   0.246
 3420TIP3    H110201   5.396   7.361   0.299
 3420TIP3    H210202   5.247   7.332   0.306
 3421TIP3   OH210203   3.134   5.697   2.312
 3421TIP3    H110204   3.136   5.669   2.404
 3421TIP3    H210205   3.095   5.784   2.314
 3422TIP3   OH210206   6.180   3.664   5.921
 3422TIP3    H110207   6.261   3.615   5.906
 3422TIP3    H210208   6.207   3.755   5.922
 3423TIP3   OH210209   7.461   7.202   3.969
 3423TIP3    H110210   7.385   7.163   4.012
 3423TIP3    H210211   7.486   7.274   4.027
 3424TIP3   OH210212   4.794   0.539   0.534
 3424TIP3    H110213   4.851   0.507   0.604
 3424TIP3    H210214   4.779   0.462   0.479
 3425TIP3   OH210215   0.184   2.595   0.959
 3425TIP3    H110216   0.128   2.673   0.955
 3425TIP3    H210217   0.143   2.538   1.024
 3426TIP3   OH210218   7.341   1.471   4.188
 3426TIP3    H110219   7.268   1.417   4.159
 3426TIP3    H210220   7.324   1.487   4.281
 3427TIP3   OH210221   6.703   1.594   4.826
 3427TIP3    H110222   6.671   1.614   4.914
 3427TIP3    H210223   6.799   1.597   4.835
 3428TIP3   OH210224   6.215   4.465   6.580
 3428TIP3    H110225   6.168   4.480   6.498
 3428TIP3    H210226   6.307   4.460   6.554
 3429TIP3   OH210227   7.376   4.146   5.920
 3429TIP3    H110228   7.288   4.133   5.955
 3429TIP3    H210229   7.382   4.084   5.847
 3430TIP3   OH210230   7.863   3.932   2.043
 3430TIP3    H110231   7.802   3.910   2.113
 3430TIP3    H210232   7.918   3.854   2.034
 3431TIP3   OH210233   3.610   2.551   5.175
 3431TIP3    H110234   3.544   2.604   5.130
 3431TIP3    H210235   3.560   2.500   5.240
 3432TIP3   OH210236   6.896   5.230   0.228
 3432TIP3    H110237   6.982   5.250   0.266
 3432TIP3    H210238   6.890   5.135   0.233
 3433TIP3   OH210239   6.688   5.847   3.232
 3433TIP3    H110240   6.693   5.767   3.284
 3433TIP3    H210241   6.615   5.832   3.172
 3434TIP3   OH210242   7.751   4.190   0.548
 3434TIP3    H110243   7.785   4.185   0.638
 3434TIP3    H210244   7.793   4.268   0.512
 3435TIP3   OH210245   1.765   6.067   0.610
 3435TIP3    H110246   1.836   6.003   0.614
 3435TIP3    H210247   1.800   6.145   0.652
 3436TIP3   OH210248   3.992   4.580   5.617
 3436TIP3    H110249   4.057   4.648   5.631
 3436TIP3    H210250   3.922   4.601   5.679
 3437TIP3   OH210251   2.681   6.281   5.192
 3437TIP3    H110252   2.645   6.335   5.262
 3437TIP3    H210253   2.776   6.288   5.203
 3438TIP3   OH210254   2.778   4.647   1.035
 3438TIP3    H110255   2.750   4.722   0.984
 3438TIP3    H210256   2.704   4.586   1.030
 3439TIP3   OH210257   3.550   3.164   4.808
 3439TIP3    H110258   3.512   3.109   4.739
 3439TIP3    H210259   3.499   3.142   4.886
 3440TIP3   OH210260   3.096   6.666   6.710
 3440TIP3    H110261   3.154   6.601   6.750
 3440TIP3    H210262   3.009   6.626   6.716
 3441TIP3   OH210263   5.488   0.476   3.987
 3441TIP3    H110264   5.486   0.420   3.909
 3441TIP3    H210265   5.555   0.541   3.968
 3442TIP3   OH210266   4.698   2.248   5.088
 3442TIP3    H110267   4.661   2.287   5.167
 3442TIP3    H210268   4.781   2.293   5.075
 3443TIP3   OH210269   3.925   0.072   3.113
 3443TIP3    H110270   3.896  -0.017   3.135
 3443TIP3    H210271   3.998   0.060   3.053
 3444TIP3   OH210272   3.944   7.665   5.685
 3444TIP3    H110273   3.979   7.657   5.596
 3444TIP3    H210274   4.006   7.616   5.739
 3445TIP3   OH210275   3.136   5.888   0.197
 3445TIP3    H110276   3.149   5.968   0.247
 3445TIP3    H210277   3.084   5.832   0.256
 3446TIP3   OH210278   8.023   6.467   1.583
 3446TIP3    H110279   7.988   6.532   1.644
 3446TIP3    H210280   7.971   6.476   1.504
 3447TIP3   OH210281   5.780   4.710   4.497
 3447TIP3    H110282   5.803   4.796   4.533
 3447TIP3    H210283   5.699   4.726   4.448
 3448TIP3   OH210284   7.807   7.476   4.609
 3448TIP3    H110285   7.725   7.440   4.641
 3448TIP3    H210286   7.840   7.410   4.548
 3449TIP3   OH210287   0.228   3.149   0.046
 3449TIP3    H110288   0.213   3.194  -0.037
 3449TIP3    H210289   0.259   3.217   0.105
 3450TIP3   OH210290   5.006   7.427   3.134
 3450TIP3    H110291   5.031   7.516   3.108
 3450TIP3    H210292   5.087   7.376   3.124
 3451TIP3   OH210293   7.050   7.232   5.901
 3451TIP3    H110294   7.132   7.187   5.881
 3451TIP3    H210295   7.010   7.246   5.815
 3452TIP3   OH210296   2.183   1.622   4.578
 3452TIP3    H110297   2.231   1.618   4.660
 3452TIP3    H210298   2.208   1.706   4.539
 3453TIP3   OH210299   2.542   6.361   4.924
 3453TIP3    H110300   2.560   6.371   5.017
 3453TIP3    H210301   2.590   6.433   4.882
 3454TIP3   OH210302   7.006   6.371   1.154
 3454TIP3    H110303   7.072   6.399   1.218
 3454TIP3    H210304   7.040   6.400   1.070
 3455TIP3   OH210305   7.082   3.820   2.234
 3455TIP3    H110306   7.082   3.884   2.306
 3455TIP3    H210307   7.001   3.771   2.247
 3456TIP3   OH210308   2.685   7.580   1.966
 3456TIP3    H110309   2.714   7.672   1.959
 3456TIP3    H210310   2.749   7.540   2.025
 3457TIP3   OH210311   2.937   3.082   4.804
 3457TIP3    H110312   2.982   2.999   4.793
 3457TIP3    H210313   2.982   3.124   4.877
 3458TIP3   OH210314   8.098   7.609   6.222
 3458TIP3    H110315   8.017   7.577   6.183
 3458TIP3    H210316   8.074   7.692   6.262
 3459TIP3   OH210317   1.401   6.363   1.004
 3459TIP3    H110318   1.364   6.370   1.092
 3459TIP3    H210319   1.479   6.418   1.006
 3460TIP3   OH210320   2.092   0.371   2.792
 3460TIP3    H110321   2.066   0.344   2.880
 3460TIP3    H210322   2.036   0.446   2.772
 3461TIP3   OH210323   7.508   2.926   0.243
 3461TIP3    H110324   7.447   2.912   0.315
 3461TIP3    H210325   7.531   2.838   0.213
 3462TIP3   OH210326   2.537   2.053   1.957
 3462TIP3    H110327   2.445   2.080   1.955
 3462TIP3    H210328   2.570   2.085   2.041
 3463TIP3   OH210329   5.894   2.839   5.256
 3463TIP3    H110330   5.832   2.838   5.182
 3463TIP3    H210331   5.972   2.794   5.223
 3464TIP3   OH210332   2.699   0.558   5.215
 3464TIP3    H110333   2.762   0.629   5.227
 3464TIP3    H210334   2.680   0.560   5.121
 3465TIP3   OH210335   4.747   6.463   3.753
 3465TIP3    H110336   4.685   6.433   3.687
 3465TIP3    H210337   4.793   6.535   3.711
 3466TIP3   OH210338   6.826   5.914   6.335
 3466TIP3    H110339   6.899   5.933   6.394
 3466TIP3    H210340   6.863   5.856   6.269
 3467TIP3   OH210341   0.093   7.406   5.029
 3467TIP3    H110342   0.037   7.401   5.107
 3467TIP3    H210343   0.073   7.492   4.991
 3468TIP3   OH210344   3.395   2.626   2.145
 3468TIP3    H110345   3.314   2.632   2.196
 3468TIP3    H210346   3.380   2.552   2.086
 3469TIP3   OH210347   3.584   1.020   3.872
 3469TIP3    H110348   3.541   1.102   3.898
 3469TIP3    H210349   3.534   0.989   3.796
 3470TIP3   OH210350   0.287   4.626   1.494
 3470TIP3    H110351   0.222   4.639   1.564
 3470TIP3    H210352   0.251   4.554   1.442
 3471TIP3   OH210353   5.322   0.647   0.453
 3471TIP3    H110354   5.301   0.586   0.523
 3471TIP3    H210355   5.351   0.592   0.380
 3472TIP3   OH210356   6.039   2.431   4.608
 3472TIP3    H110357   5.975   2.387   4.552
 3472TIP3    H210358   5.986   2.485   4.666
 3473TIP3   OH210359   2.105   4.072   0.508
 3473TIP3    H110360   2.045   4.036   0.573
 3473TIP3    H210361   2.160   3.998   0.483
 3474TIP3   OH210362   6.966   5.711   0.622
 3474TIP3    H110363   6.967   5.794   0.574
 3474TIP3    H210364   6.895   5.721   0.686
 3475TIP3   OH210365   1.502   1.096   0.163
 3475TIP3    H110366   1.476   1.165   0.224
 3475TIP3    H210367   1.424   1.040   0.155
 3476TIP3   OH210368   4.139   5.952   3.376
 3476TIP3    H110369   4.091   5.919   3.301
 3476TIP3    H210370   4.072   5.988   3.434
 3477TIP3   OH210371   7.481   2.691   4.885
 3477TIP3    H110372   7.550   2.658   4.943
 3477TIP3    H210373   7.413   2.722   4.944
 3478TIP3   OH210374   1.174   6.665   2.847
 3478TIP3    H110375   1.242   6.732   2.862
 3478TIP3    H210376   1.213   6.607   2.782
 3479TIP3   OH210377   2.948   1.138   2.307
 3479TIP3    H110378   2.899   1.220   2.299
 3479TIP3    H210379   2.931   1.092   2.225
 3480TIP3   OH210380   7.476   1.938   4.006
 3480TIP3    H110381   7.538   1.930   3.933
 3480TIP3    H210382   7.419   1.861   3.997
 3481TIP3   OH210383   6.977   0.857   3.880
 3481TIP3    H110384   7.011   0.888   3.964
 3481TIP3    H210385   7.040   0.792   3.851
 3482TIP3   OH210386   7.328   7.534   0.317
 3482TIP3    H110387   7.352   7.488   0.397
 3482TIP3    H210388   7.233   7.542   0.321
 3483TIP3   OH210389   4.955   6.460   6.408
 3483TIP3    H110390   4.896   6.431   6.478
 3483TIP3    H210391   4.940   6.397   6.337
 3484TIP3   OH210392   3.247   7.528   1.638
 3484TIP3    H110393   3.264   7.584   1.714
 3484TIP3    H210394   3.225   7.443   1.675
 3485TIP3   OH210395   3.739   3.554   5.283
 3485TIP3    H110396   3.775   3.629   5.235
 3485TIP3    H210397   3.708   3.495   5.214
 3486TIP3   OH210398   7.228   4.816   2.285
 3486TIP3    H110399   7.300   4.772   2.241
 3486TIP3    H210400   7.178   4.857   2.214
 3487TIP3   OH210401   5.079   3.386   2.153
 3487TIP3    H110402   5.006   3.331   2.123
 3487TIP3    H210403   5.039   3.446   2.216
 3488TIP3   OH210404   3.556   0.683   6.625
 3488TIP3    H110405   3.563   0.601   6.675
 3488TIP3    H210406   3.539   0.655   6.535
 3489TIP3   OH210407   7.810   3.672   4.417
 3489TIP3    H110408   7.817   3.606   4.486
 3489TIP3    H210409   7.876   3.646   4.352
 3490TIP3   OH210410   3.136   6.666   2.529
 3490TIP3    H110411   3.040   6.662   2.531
 3490TIP3    H210412   3.156   6.757   2.506
 3491TIP3   OH210413   7.414   1.278   3.519
 3491TIP3    H110414   7.458   1.222   3.583
 3491TIP3    H210415   7.328   1.294   3.558
 3492TIP3   OH210416   8.130   2.013   3.908
 3492TIP3    H110417   8.147   2.106   3.923
 3492TIP3    H210418   8.038   2.009   3.883
 3493TIP3   OH210419   3.274   6.340   3.401
 3493TIP3    H110420   3.316   6.413   3.357
 3493TIP3    H210421   3.342   6.272   3.404
 3494TIP3   OH210422   2.536   7.092   4.788
 3494TIP3    H110423   2.571   7.029   4.724
 3494TIP3    H210424   2.554   7.178   4.750
 3495TIP3   OH210425   3.886   6.190   2.911
 3495TIP3    H110426   3.859   6.106   2.873
 3495TIP3    H210427   3.979   6.196   2.890
 3496TIP3   OH210428   5.605   2.703   3.812
 3496TIP3    H110429   5.687   2.741   3.781
 3496TIP3    H210430   5.566   2.662   3.734
 3497TIP3   OH210431   5.193   4.788   2.310
 3497TIP3    H110432   5.141   4.864   2.282
 3497TIP3    H210433   5.225   4.749   2.228
 3498TIP3   OH210434   5.016   5.639   0.363
 3498TIP3    H110435   4.937   5.682   0.331
 3498TIP3    H210436   5.087   5.679   0.314
 3499TIP3   OH210437   2.313   5.731   4.080
 3499TIP3    H110438   2.282   5.647   4.113
 3499TIP3    H210439   2.398   5.743   4.122
 3500TIP3   OH210440   5.868   7.482   4.805
 3500TIP3    H110441   5.939   7.437   4.761
 3500TIP3    H210442   5.911   7.533   4.874
 3501TIP3   OH210443   1.492   3.060   6.212
 3501TIP3    H110444   1.431   2.988   6.199
 3501TIP3    H210445   1.541   3.065   6.129
 3502TIP3   OH210446   0.026   3.471   4.681
 3502TIP3    H110447   0.008   3.415   4.756
 3502TIP3    H210448   0.041   3.558   4.719
 3503TIP3   OH210449   2.999   2.265   0.571
 3503TIP3    H110450   2.918   2.242   0.616
 3503TIP3    H210451   3.068   2.222   0.622
 3504TIP3   OH210452   2.689   7.165   5.220
 3504TIP3    H110453   2.760   7.182   5.158
 3504TIP3    H210454   2.610   7.170   5.167
 3505TIP3   OH210455   1.144   5.296   3.472
 3505TIP3    H110456   1.122   5.273   3.563
 3505TIP3    H210457   1.173   5.214   3.433
 3506TIP3   OH210458   8.135   4.670   3.428
 3506TIP3    H110459   8.059   4.668   3.487
 3506TIP3    H210460   8.160   4.578   3.419
 3507TIP3   OH210461   3.370   3.263   0.606
 3507TIP3    H110462   3.346   3.345   0.648
 3507TIP3    H210463   3.292   3.208   0.613
 3508TIP3   OH210464   3.873   3.749   1.639
 3508TIP3    H110465   3.901   3.841   1.637
 3508TIP3    H210466   3.783   3.751   1.606
 3509TIP3   OH210467   6.849   5.720   0.905
 3509TIP3    H110468   6.824   5.633   0.873
 3509TIP3    H210469   6.817   5.723   0.995
 3510TIP3   OH210470   6.183   0.714   4.467
 3510TIP3    H110471   6.098   0.758   4.472
 3510TIP3    H210472   6.180   0.648   4.536
 3511TIP3   OH210473   5.955   5.123   5.640
 3511TIP3    H110474   6.013   5.048   5.623
 3511TIP3    H210475   5.974   5.148   5.730
 3512TIP3   OH210476   6.241   2.258   2.650
 3512TIP3    H110477   6.312   2.268   2.587
 3512TIP3    H210478   6.284   2.234   2.732
 3513TIP3   OH210479   0.002   2.988   0.116
 3513TIP3    H110480  -0.042   3.064   0.077
 3513TIP3    H210481   0.090   2.991   0.080
 3514TIP3   OH210482   8.099   3.033   6.000
 3514TIP3    H110483   8.133   3.060   5.915
 3514TIP3    H210484   8.108   2.937   6.000
 3515TIP3   OH210485   0.643   2.475   3.053
 3515TIP3    H110486   0.686   2.527   3.121
 3515TIP3    H210487   0.629   2.390   3.094
 3516TIP3   OH210488   6.821   0.618   5.885
 3516TIP3    H110489   6.766   0.573   5.949
 3516TIP3    H210490   6.892   0.656   5.937
 3517TIP3   OH210491   5.218   6.972   0.915
 3517TIP3    H110492   5.168   7.042   0.874
 3517TIP3    H210493   5.310   6.994   0.899
 3518TIP3   OH210494   7.394   2.367   1.134
 3518TIP3    H110495   7.417   2.313   1.210
 3518TIP3    H210496   7.331   2.430   1.168
 3519TIP3   OH210497   1.851   0.141   1.483
 3519TIP3    H110498   1.803   0.088   1.546
 3519TIP3    H210499   1.794   0.145   1.406
 3520TIP3   OH210500   4.018   5.374   0.579
 3520TIP3    H110501   4.054   5.373   0.490
 3520TIP3    H210502   3.924   5.390   0.566
 3521TIP3   OH210503   2.571   4.862   6.410
 3521TIP3    H110504   2.642   4.820   6.458
 3521TIP3    H210505   2.610   4.941   6.372
 3522TIP3   OH210506   5.402   1.177   4.688
 3522TIP3    H110507   5.306   1.169   4.694
 3522TIP3    H210508   5.425   1.120   4.614
 3523TIP3   OH210509   0.515   5.427   1.926
 3523TIP3    H110510   0.467   5.448   1.846
 3523TIP3    H210511   0.452   5.379   1.980
 3524TIP3   OH210512   4.005   0.664   2.147
 3524TIP3    H110513   3.943   0.604   2.189
 3524TIP3    H210514   4.081   0.664   2.205
 3525TIP3   OH210515   2.566   6.700   1.199
 3525TIP3    H110516   2.642   6.731   1.149
 3525TIP3    H210517   2.534   6.625   1.149
 3526TIP3   OH210518   4.621   5.928   6.038
 3526TIP3    H110519   4.536   5.908   5.998
 3526TIP3    H210520   4.682   5.871   5.992
 3527TIP3   OH210521   0.408   6.277   3.643
 3527TIP3    H110522   0.415   6.350   3.581
 3527TIP3    H210523   0.334   6.300   3.699
 3528TIP3   OH210524   0.812   7.575   4.217
 3528TIP3    H110525   0.783   7.489   4.247
 3528TIP3    H210526   0.737   7.632   4.230
 3529TIP3   OH210527   7.649   2.202   0.036
 3529TIP3    H110528   7.644   2.185  -0.058
 3529TIP3    H210529   7.609   2.125   0.076
 3530TIP3   OH210530   8.306   7.054   4.483
 3530TIP3    H110531   8.292   7.142   4.448
 3530TIP3    H210532   8.332   7.002   4.407
 3531TIP3   OH210533   2.667   6.963   3.800
 3531TIP3    H110534   2.644   7.012   3.720
 3531TIP3    H210535   2.755   6.931   3.783
 3532TIP3   OH210536   5.980   6.315   5.675
 3532TIP3    H110537   5.892   6.294   5.706
 3532TIP3    H210538   5.965   6.360   5.591
 3533TIP3   OH210539   5.398   7.517   0.427
 3533TIP3    H110540   5.452   7.518   0.506
 3533TIP3    H210541   5.457   7.548   0.358
 3534TIP3   OH210542   4.330   0.651   2.036
 3534TIP3    H110543   4.420   0.665   2.063
 3534TIP3    H210544   4.278   0.671   2.114
 3535TIP3   OH210545   5.491   0.200   1.303
 3535TIP3    H110546   5.553   0.135   1.271
 3535TIP3    H210547   5.523   0.283   1.268
 3536TIP3   OH210548   2.124   6.128   4.540
 3536TIP3    H110549   2.109   6.037   4.514
 3536TIP3    H210550   2.219   6.138   4.541
 3537TIP3   OH210551   5.774   1.557   3.794
 3537TIP3    H110552   5.852   1.595   3.834
 3537TIP3    H210553   5.806   1.519   3.712
 3538TIP3   OH210554   2.217   2.640   6.467
 3538TIP3    H110555   2.204   2.547   6.446
 3538TIP3    H210556   2.232   2.641   6.562
 3539TIP3   OH210557   3.004   7.087   3.287
 3539TIP3    H110558   3.076   7.145   3.261
 3539TIP3    H210559   3.005   7.016   3.223
 3540TIP3   OH210560   4.999   7.786   2.105
 3540TIP3    H110561   5.031   7.798   2.194
 3540TIP3    H210562   4.962   7.871   2.082
 3541TIP3   OH210563   5.663   2.575   0.255
 3541TIP3    H110564   5.588   2.632   0.236
 3541TIP3    H210565   5.636   2.524   0.331
 3542TIP3   OH210566   7.856   0.918   6.179
 3542TIP3    H110567   7.893   0.844   6.228
 3542TIP3    H210568   7.850   0.989   6.243
 3543TIP3   OH210569   5.796   1.280   1.029
 3543TIP3    H110570   5.705   1.249   1.028
 3543TIP3    H210571   5.810   1.315   0.942
 3544TIP3   OH210572   5.826   4.473   3.236
 3544TIP3    H110573   5.785   4.543   3.184
 3544TIP3    H210574   5.911   4.509   3.262
 3545TIP3   OH210575   7.424   5.998   3.294
 3545TIP3    H110576   7.414   5.996   3.199
 3545TIP3    H210577   7.464   6.083   3.312
 3546TIP3   OH210578   2.330   3.138   0.124
 3546TIP3    H110579   2.419   3.159   0.155
 3546TIP3    H210580   2.280   3.121   0.204
 3547TIP3   OH210581   2.265   7.163   4.149
 3547TIP3    H110582   2.249   7.107   4.225
 3547TIP3    H210583   2.348   7.132   4.113
 3548TIP3   OH210584   1.834   5.449   5.436
 3548TIP3    H110585   1.745   5.441   5.401
 3548TIP3    H210586   1.823   5.497   5.518
 3549TIP3   OH210587   1.289   4.424   1.578
 3549TIP3    H110588   1.231   4.362   1.620
 3549TIP3    H210589   1.262   4.509   1.613
 3550TIP3   OH210590   7.014   2.819   1.269
 3550TIP3    H110591   7.024   2.853   1.358
 3550TIP3    H210592   6.953   2.746   1.278
 3551TIP3   OH210593   7.610   7.759   0.628
 3551TIP3    H110594   7.590   7.819   0.555
 3551TIP3    H210595   7.684   7.707   0.596
 3552TIP3   OH210596   2.327   3.657   6.547
 3552TIP3    H110597   2.327   3.562   6.554
 3552TIP3    H210598   2.287   3.686   6.629
 3553TIP3   OH210599   4.636   5.418   4.166
 3553TIP3    H110600   4.632   5.326   4.141
 3553TIP3    H210601   4.723   5.428   4.205
 3554TIP3   OH210602   4.567   0.634   4.982
 3554TIP3    H110603   4.638   0.682   5.025
 3554TIP3    H210604   4.593   0.630   4.890
 3555TIP3   OH210605   4.570   0.359   4.960
 3555TIP3    H110606   4.516   0.345   4.882
 3555TIP3    H210607   4.613   0.443   4.945
 3556TIP3   OH210608   6.487   0.603   6.242
 3556TIP3    H110609   6.451   0.605   6.154
 3556TIP3    H210610   6.443   0.675   6.287
 3557TIP3   OH210611   3.362   1.068   1.017
 3557TIP3    H110612   3.374   1.062   0.922
 3557TIP3    H210613   3.275   1.105   1.028
 3558TIP3   OH210614   7.242   5.985   0.612
 3558TIP3    H110615   7.268   5.952   0.698
 3558TIP3    H210616   7.150   5.958   0.604
 3559TIP3   OH210617   7.129   5.018   1.128
 3559TIP3    H110618   7.069   4.974   1.188
 3559TIP3    H210619   7.108   5.111   1.136
 3560TIP3   OH210620   2.144   0.429   6.607
 3560TIP3    H110621   2.087   0.371   6.659
 3560TIP3    H210622   2.157   0.382   6.525
 3561TIP3   OH210623   6.056   4.984   6.680
 3561TIP3    H110624   6.147   4.971   6.652
 3561TIP3    H210625   6.046   4.925   6.756
 3562TIP3   OH210626   0.888   6.712   6.435
 3562TIP3    H110627   0.945   6.786   6.454
 3562TIP3    H210628   0.801   6.750   6.423
 3563TIP3   OH210629   8.256   5.570   0.209
 3563TIP3    H110630   8.297   5.484   0.221
 3563TIP3    H210631   8.211   5.587   0.292
 3564TIP3   OH210632   7.678   5.551   5.245
 3564TIP3    H110633   7.675   5.507   5.160
 3564TIP3    H210634   7.768   5.541   5.275
 3565TIP3   OH210635   5.711   7.084   6.446
 3565TIP3    H110636   5.684   7.121   6.362
 3565TIP3    H210637   5.644   7.112   6.508
 3566TIP3   OH210638   6.667   2.115   2.508
 3566TIP3    H110639   6.660   2.051   2.437
 3566TIP3    H210640   6.688   2.197   2.464
 3567TIP3   OH210641   6.198   1.479   0.383
 3567TIP3    H110642   6.197   1.559   0.435
 3567TIP3    H210643   6.286   1.443   0.397
 3568TIP3   OH210644   4.415   6.029   1.999
 3568TIP3    H110645   4.467   5.949   2.010
 3568TIP3    H210646   4.352   6.007   1.931
 3569TIP3   OH210647   6.445   5.531   4.642
 3569TIP3    H110648   6.524   5.478   4.648
 3569TIP3    H210649   6.470   5.607   4.590
 3570TIP3   OH210650   7.755   4.436   4.823
 3570TIP3    H110651   7.690   4.440   4.893
 3570TIP3    H210652   7.717   4.376   4.758
 3571TIP3   OH210653   6.214   3.111   5.603
 3571TIP3    H110654   6.294   3.162   5.591
 3571TIP3    H210655   6.157   3.166   5.657
 3572TIP3   OH210656   2.717   4.431   4.597
 3572TIP3    H110657   2.629   4.449   4.631
 3572TIP3    H210658   2.776   4.469   4.662
 3573TIP3   OH210659   2.937   3.310   2.927
 3573TIP3    H110660   2.894   3.395   2.931
 3573TIP3    H210661   2.941   3.289   2.834
 3574TIP3   OH210662   3.827   2.989   3.129
 3574TIP3    H110663   3.878   3.067   3.151
 3574TIP3    H210664   3.893   2.920   3.115
 3575TIP3   OH210665   4.070   1.568   1.105
 3575TIP3    H110666   4.112   1.636   1.052
 3575TIP3    H210667   4.015   1.519   1.044
 3576TIP3   OH210668   5.772   7.406   2.824
 3576TIP3    H110669   5.728   7.468   2.766
 3576TIP3    H210670   5.826   7.460   2.880
 3577TIP3   OH210671   7.754   3.314   6.740
 3577TIP3    H110672   7.707   3.233   6.721
 3577TIP3    H210673   7.790   3.301   6.827
 3578TIP3   OH210674   2.931   1.378   5.173
 3578TIP3    H110675   2.900   1.314   5.237
 3578TIP3    H210676   3.026   1.369   5.173
 3579TIP3   OH210677   2.989   3.030   0.945
 3579TIP3    H110678   3.051   3.033   0.873
 3579TIP3    H210679   2.933   3.107   0.933
 3580TIP3   OH210680   7.504   2.390   4.186
 3580TIP3    H110681   7.482   2.479   4.213
 3580TIP3    H210682   7.473   2.385   4.096
 3581TIP3   OH210683   7.380   4.658   2.728
 3581TIP3    H110684   7.418   4.744   2.747
 3581TIP3    H210685   7.289   4.678   2.703
 3582TIP3   OH210686   8.100   4.563   6.342
 3582TIP3    H110687   8.139   4.612   6.270
 3582TIP3    H210688   8.006   4.573   6.329
 3583TIP3   OH210689   7.606   2.258   3.958
 3583TIP3    H110690   7.670   2.303   4.013
 3583TIP3    H210691   7.590   2.175   4.003
 3584TIP3   OH210692   5.443   1.845   5.255
 3584TIP3    H110693   5.395   1.836   5.172
 3584TIP3    H210694   5.513   1.781   5.249
 3585TIP3   OH210695   7.072   3.006   1.845
 3585TIP3    H110696   7.108   2.992   1.758
 3585TIP3    H210697   7.050   3.100   1.848
 3586TIP3   OH210698   0.936   6.751   3.764
 3586TIP3    H110699   0.918   6.679   3.824
 3586TIP3    H210700   1.003   6.717   3.705
 3587TIP3   OH210701   0.561   1.148   0.495
 3587TIP3    H110702   0.631   1.099   0.453
 3587TIP3    H210703   0.508   1.182   0.423
 3588TIP3   OH210704   7.067   5.284   1.114
 3588TIP3    H110705   7.005   5.341   1.159
 3588TIP3    H210706   7.116   5.343   1.057
 3589TIP3   OH210707   1.677   1.965   3.794
 3589TIP3    H110708   1.583   1.980   3.805
 3589TIP3    H210709   1.716   2.052   3.799
 3590TIP3   OH210710   7.968   2.551   3.546
 3590TIP3    H110711   7.922   2.626   3.508
 3590TIP3    H210712   8.060   2.564   3.521
 3591TIP3   OH210713   1.225   7.313   6.767
 3591TIP3    H110714   1.314   7.320   6.732
 3591TIP3    H210715   1.170   7.356   6.701
 3592TIP3   OH210716   7.438   4.925   5.260
 3592TIP3    H110717   7.405   4.992   5.200
 3592TIP3    H210718   7.365   4.908   5.319
 3593TIP3   OH210719   6.928   1.437   6.282
 3593TIP3    H110720   6.952   1.522   6.319
 3593TIP3    H210721   7.006   1.410   6.233
 3594TIP3   OH210722   0.209   5.324   5.610
 3594TIP3    H110723   0.133   5.279   5.647
 3594TIP3    H210724   0.284   5.270   5.638
 3595TIP3   OH210725   0.066   3.974   3.398
 3595TIP3    H110726   0.073   3.986   3.493
 3595TIP3    H210727   0.152   3.943   3.371
 3596TIP3   OH210728   8.095   2.935   0.521
 3596TIP3    H110729   8.136   2.943   0.434
 3596TIP3    H210730   8.094   2.840   0.537
 3597TIP3   OH210731   8.258   2.911   5.634
 3597TIP3    H110732   8.322   2.876   5.696
 3597TIP3    H210733   8.243   3.001   5.663
 3598TIP3   OH210734   3.740   7.542   4.266
 3598TIP3    H110735   3.798   7.617   4.261
 3598TIP3    H210736   3.790   7.475   4.312
 3599TIP3   OH210737   7.340   5.667   6.388
 3599TIP3    H110738   7.412   5.716   6.348
 3599TIP3    H210739   7.277   5.734   6.415
 3600TIP3   OH210740   3.709   7.679   6.775
 3600TIP3    H110741   3.684   7.760   6.731
 3600TIP3    H210742   3.627   7.632   6.787
 3601TIP3   OH210743   7.640   3.997   4.922
 3601TIP3    H110744   7.735   4.010   4.927
 3601TIP3    H210745   7.603   4.077   4.959
 3602TIP3   OH210746   5.944   5.735   2.177
 3602TIP3    H110747   5.861   5.689   2.169
 3602TIP3    H210748   5.932   5.792   2.253
 3603TIP3   OH210749   2.852   5.874   4.675
 3603TIP3    H110750   2.869   5.968   4.685
 3603TIP3    H210751   2.937   5.836   4.654
 3604TIP3   OH210752   2.065   3.882   6.500
 3604TIP3    H110753   2.154   3.849   6.509
 3604TIP3    H210754   2.024   3.865   6.584
 3605TIP3   OH210755   1.127   2.397   5.963
 3605TIP3    H110756   1.130   2.485   6.001
 3605TIP3    H210757   1.204   2.353   5.999
 3606TIP3   OH210758   7.840   7.488   5.405
 3606TIP3    H110759   7.776   7.444   5.460
 3606TIP3    H210760   7.911   7.513   5.465
 3607TIP3   OH210761   4.170   5.409   0.350
 3607TIP3    H110762   4.246   5.463   0.368
 3607TIP3    H210763   4.178   5.386   0.258
 3608TIP3   OH210764   5.532   7.388   3.726
 3608TIP3    H110765   5.604   7.446   3.752
 3608TIP3    H210766   5.453   7.441   3.737
 3609TIP3   OH210767   6.628   2.840   1.508
 3609TIP3    H110768   6.655   2.899   1.578
 3609TIP3    H210769   6.677   2.870   1.431
 3610TIP3   OH210770   7.379   1.791   4.252
 3610TIP3    H110771   7.335   1.792   4.167
 3610TIP3    H210772   7.445   1.722   4.244
 3611TIP3   OH210773   2.129   6.997   3.929
 3611TIP3    H110774   2.084   6.989   4.013
 3611TIP3    H210775   2.218   7.025   3.952
 3612TIP3   OH210776   3.167   3.864   5.209
 3612TIP3    H110777   3.142   3.836   5.297
 3612TIP3    H210778   3.116   3.943   5.192
 3613TIP3   OH210779   6.357   6.674   4.395
 3613TIP3    H110780   6.451   6.692   4.393
 3613TIP3    H210781   6.341   6.621   4.317
 3614TIP3   OH210782   0.784   2.600   4.026
 3614TIP3    H110783   0.761   2.539   3.955
 3614TIP3    H210784   0.784   2.686   3.983
 3615TIP3   OH210785   0.061   7.000   1.212
 3615TIP3    H110786   0.058   6.931   1.146
 3615TIP3    H210787   0.152   7.003   1.240
 3616TIP3   OH210788   3.015   0.357   0.624
 3616TIP3    H110789   3.052   0.445   0.628
 3616TIP3    H210790   3.078   0.302   0.671
 3617TIP3   OH210791   7.942   7.280   4.437
 3617TIP3    H110792   8.038   7.284   4.438
 3617TIP3    H210793   7.922   7.189   4.418
 3618TIP3   OH210794   0.219   5.660   2.575
 3618TIP3    H110795   0.301   5.627   2.613
 3618TIP3    H210796   0.155   5.592   2.596
 3619TIP3   OH210797   5.474   3.945   3.987
 3619TIP3    H110798   5.441   3.948   3.897
 3619TIP3    H210799   5.415   3.884   4.032
 3620TIP3   OH210800   2.849   4.644   5.966
 3620TIP3    H110801   2.788   4.711   5.998
 3620TIP3    H210802   2.905   4.691   5.904
 3621TIP3   OH210803   6.422   1.102   1.491
 3621TIP3    H110804   6.387   1.187   1.463
 3621TIP3    H210805   6.498   1.124   1.544
 3622TIP3   OH210806   8.012   7.331   5.746
 3622TIP3    H110807   8.058   7.362   5.824
 3622TIP3    H210808   7.921   7.321   5.775
 3623TIP3   OH210809   7.089   6.084   5.280
 3623TIP3    H110810   7.077   6.155   5.216
 3623TIP3    H210811   7.062   6.005   5.233
 3624TIP3   OH210812   4.419   0.912   6.432
 3624TIP3    H110813   4.352   0.928   6.499
 3624TIP3    H210814   4.424   0.817   6.426
 3625TIP3   OH210815   2.188   1.458   4.994
 3625TIP3    H110816   2.104   1.427   4.959
 3625TIP3    H210817   2.186   1.430   5.086
 3626TIP3   OH210818   4.325   7.136   5.633
 3626TIP3    H110819   4.382   7.209   5.607
 3626TIP3    H210820   4.342   7.125   5.727
 3627TIP3   OH210821   6.124   7.090   0.365
 3627TIP3    H110822   6.206   7.125   0.330
 3627TIP3    H210823   6.145   6.999   0.388
 3628TIP3   OH210824   3.190   3.422   4.065
 3628TIP3    H110825   3.229   3.433   4.152
 3628TIP3    H210826   3.201   3.329   4.046
 3629TIP3   OH210827   1.103   2.184   4.358
 3629TIP3    H110828   1.155   2.262   4.337
 3629TIP3    H210829   1.013   2.209   4.334
 3630TIP3   OH210830   0.978   4.991   3.590
 3630TIP3    H110831   0.951   5.082   3.577
 3630TIP3    H210832   0.928   4.942   3.524
 3631TIP3   OH210833   0.532   6.499   1.093
 3631TIP3    H110834   0.606   6.442   1.113
 3631TIP3    H210835   0.571   6.584   1.074
 3632TIP3   OH210836   8.337   3.904   1.221
 3632TIP3    H110837   8.431   3.912   1.203
 3632TIP3    H210838   8.331   3.914   1.316
 3633TIP3   OH210839   0.747   1.876   4.737
 3633TIP3    H110840   0.728   1.811   4.804
 3633TIP3    H210841   0.800   1.829   4.673
 3634TIP3   OH210842   7.837   1.777   4.985
 3634TIP3    H110843   7.761   1.835   4.974
 3634TIP3    H210844   7.812   1.717   5.054
 3635TIP3   OH210845   0.852   5.173   3.167
 3635TIP3    H110846   0.914   5.229   3.122
 3635TIP3    H210847   0.827   5.107   3.102
 3636TIP3   OH210848   4.750   7.230   4.942
 3636TIP3    H110849   4.760   7.137   4.961
 3636TIP3    H210850   4.713   7.267   5.022
 3637TIP3   OH210851   3.900   7.619   2.100
 3637TIP3    H110852   3.965   7.551   2.117
 3637TIP3    H210853   3.910   7.640   2.007
 3638TIP3   OH210854   0.184   0.997   0.710
 3638TIP3    H110855   0.204   0.923   0.653
 3638TIP3    H210856   0.124   1.051   0.659
 3639TIP3   OH210857   2.796   4.837   1.302
 3639TIP3    H110858   2.798   4.804   1.212
 3639TIP3    H210859   2.787   4.932   1.293
 3640TIP3   OH210860   8.180   2.813   2.062
 3640TIP3    H110861   8.260   2.803   2.010
 3640TIP3    H210862   8.119   2.858   2.004
 3641TIP3   OH210863   0.443   1.240   1.101
 3641TIP3    H110864   0.403   1.287   1.174
 3641TIP3    H210865   0.378   1.174   1.077
 3642TIP3   OH210866   0.349   2.393   2.659
 3642TIP3    H110867   0.309   2.313   2.694
 3642TIP3    H210868   0.292   2.464   2.691
 3643TIP3   OH210869   3.993   1.853   0.188
 3643TIP3    H110870   4.088   1.851   0.186
 3643TIP3    H210871   3.967   1.877   0.099
 3644TIP3   OH210872   5.964   6.644   1.482
 3644TIP3    H110873   6.049   6.682   1.459
 3644TIP3    H210874   5.962   6.560   1.435
 3645TIP3   OH210875   6.063   1.823   5.197
 3645TIP3    H110876   6.095   1.738   5.227
 3645TIP3    H210877   6.049   1.873   5.277
 3646TIP3   OH210878   2.323   3.654   0.940
 3646TIP3    H110879   2.343   3.706   1.018
 3646TIP3    H210880   2.320   3.718   0.869
 3647TIP3   OH210881   8.244   7.604   0.494
 3647TIP3    H110882   8.285   7.690   0.493
 3647TIP3    H210883   8.300   7.551   0.550
 3648TIP3   OH210884   2.847   6.087   1.020
 3648TIP3    H110885   2.901   6.110   0.944
 3648TIP3    H210886   2.757   6.084   0.985
 3649TIP3   OH210887   6.475   0.885   5.577
 3649TIP3    H110888   6.534   0.873   5.503
 3649TIP3    H210889   6.498   0.971   5.613
 3650TIP3   OH210890   0.359   3.351   1.761
 3650TIP3    H110891   0.436   3.322   1.711
 3650TIP3    H210892   0.285   3.328   1.706
 3651TIP3   OH210893   4.157   4.121   1.341
 3651TIP3    H110894   4.169   4.064   1.265
 3651TIP3    H210895   4.159   4.062   1.416
 3652TIP3   OH210896   2.611   0.637   1.588
 3652TIP3    H110897   2.567   0.722   1.586
 3652TIP3    H210898   2.543   0.575   1.611
 3653TIP3   OH210899   6.161   7.703   6.291
 3653TIP3    H110900   6.240   7.650   6.307
 3653TIP3    H210901   6.176   7.741   6.205
 3654TIP3   OH210902   7.882   5.148   4.901
 3654TIP3    H110903   7.925   5.070   4.935
 3654TIP3    H210904   7.903   5.149   4.807
 3655TIP3   OH210905   4.141   6.554   3.517
 3655TIP3    H110906   4.054   6.575   3.550
 3655TIP3    H210907   4.129   6.477   3.462
 3656TIP3   OH210908   2.668   5.396   1.405
 3656TIP3    H110909   2.583   5.379   1.363
 3656TIP3    H210910   2.652   5.378   1.498
 3657TIP3   OH210911   2.050   6.222   0.611
 3657TIP3    H110912   2.072   6.315   0.608
 3657TIP3    H210913   2.020   6.207   0.701
 3658TIP3   OH210914   2.492   7.581   5.346
 3658TIP3    H110915   2.447   7.535   5.417
 3658TIP3    H210916   2.575   7.534   5.337
 3659TIP3   OH210917   7.522   7.811   1.133
 3659TIP3    H110918   7.552   7.747   1.198
 3659TIP3    H210919   7.532   7.767   1.049
 3660TIP3   OH210920   4.987   7.623   3.837
 3660TIP3    H110921   4.965   7.567   3.912
 3660TIP3    H210922   4.912   7.615   3.778
 3661TIP3   OH210923   7.582   1.842   3.477
 3661TIP3    H110924   7.540   1.817   3.559
 3661TIP3    H210925   7.532   1.918   3.446
 3662TIP3   OH210926   7.429   4.537   6.383
 3662TIP3    H110927   7.377   4.582   6.451
 3662TIP3    H210928   7.503   4.500   6.431
 3663TIP3   OH210929   7.428   5.428   1.819
 3663TIP3    H110930   7.433   5.524   1.814
 3663TIP3    H210931   7.432   5.409   1.912
 3664TIP3   OH210932   5.208   6.054   3.488
 3664TIP3    H110933   5.230   5.962   3.499
 3664TIP3    H210934   5.281   6.102   3.528
 3665TIP3   OH210935   5.693   2.050   4.330
 3665TIP3    H110936   5.700   2.060   4.425
 3665TIP3    H210937   5.778   2.079   4.296
 3666TIP3   OH210938   7.539   3.251   4.364
 3666TIP3    H110939   7.467   3.191   4.382
 3666TIP3    H210940   7.496   3.334   4.343
 3667TIP3   OH210941   4.981   1.615   1.109
 3667TIP3    H110942   5.047   1.609   1.040
 3667TIP3    H210943   4.928   1.691   1.085
 3668TIP3   OH210944   0.199   0.219   5.716
 3668TIP3    H110945   0.224   0.307   5.690
 3668TIP3    H210946   0.121   0.231   5.770
 3669TIP3   OH210947   7.084   0.332   5.498
 3669TIP3    H110948   7.121   0.270   5.561
 3669TIP3    H210949   7.160   0.377   5.461
 3670TIP3   OH210950   7.615   6.247   1.671
 3670TIP3    H110951   7.530   6.273   1.708
 3670TIP3    H210952   7.667   6.222   1.748
 3671TIP3   OH210953   4.213   0.028   3.324
 3671TIP3    H110954   4.234  -0.012   3.240
 3671TIP3    H210955   4.183   0.116   3.303
 3672TIP3   OH210956   7.270   1.447   4.945
 3672TIP3    H110957   7.265   1.503   5.023
 3672TIP3    H210958   7.305   1.504   4.877
 3673TIP3   OH210959   3.637   4.645   0.893
 3673TIP3    H110960   3.717   4.673   0.849
 3673TIP3    H210961   3.582   4.608   0.824
 3674TIP3   OH210962   1.321   4.737   1.263
 3674TIP3    H110963   1.369   4.761   1.184
 3674TIP3    H210964   1.268   4.814   1.283
 3675TIP3   OH210965   0.834   3.799   0.241
 3675TIP3    H110966   0.898   3.729   0.255
 3675TIP3    H210967   0.871   3.851   0.169
 3676TIP3   OH210968   1.712   4.862   4.175
 3676TIP3    H110969   1.631   4.875   4.126
 3676TIP3    H210970   1.754   4.948   4.177
 3677TIP3   OH210971   4.426   5.837   4.964
 3677TIP3    H110972   4.512   5.862   4.998
 3677TIP3    H210973   4.375   5.813   5.041
 3678TIP3   OH210974   2.039   4.905   3.166
 3678TIP3    H110975   1.949   4.933   3.185
 3678TIP3    H210976   2.084   4.910   3.251
 3679TIP3   OH210977   2.796   0.824   3.858
 3679TIP3    H110978   2.873   0.802   3.910
 3679TIP3    H210979   2.729   0.846   3.923
 3680TIP3   OH210980   7.564   1.235   1.182
 3680TIP3    H110981   7.491   1.292   1.158
 3680TIP3    H210982   7.632   1.295   1.214
 3681TIP3   OH210983   6.141   2.852   6.620
 3681TIP3    H110984   6.131   2.776   6.562
 3681TIP3    H210985   6.101   2.824   6.703
 3682TIP3   OH210986   6.506   3.104   5.900
 3682TIP3    H110987   6.590   3.062   5.882
 3682TIP3    H210988   6.440   3.038   5.878
 3683TIP3   OH210989   0.495   1.021   0.707
 3683TIP3    H110990   0.529   1.052   0.623
 3683TIP3    H210991   0.401   1.036   0.702
 3684TIP3   OH210992   6.676   4.405   4.874
 3684TIP3    H110993   6.669   4.437   4.964
 3684TIP3    H210994   6.626   4.323   4.874
 3685TIP3   OH210995   3.846   5.259   6.198
 3685TIP3    H110996   3.773   5.280   6.256
 3685TIP3    H210997   3.920   5.243   6.257
 3686TIP3   OH210998   3.507   3.198   3.818
 3686TIP3    H110999   3.423   3.157   3.797
 3686TIP3    H211000   3.512   3.193   3.914
 3687TIP3   OH211001   0.727   5.024   0.330
 3687TIP3    H111002   0.683   5.023   0.245
 3687TIP3    H211003   0.807   5.075   0.315
 3688TIP3   OH211004   3.535   4.207   0.489
 3688TIP3    H111005   3.589   4.272   0.445
 3688TIP3    H211006   3.485   4.165   0.419
 3689TIP3   OH211007   6.866   2.498   1.057
 3689TIP3    H111008   6.863   2.451   0.974
 3689TIP3    H211009   6.896   2.433   1.121
 3690TIP3   OH211010   0.703   2.973   0.059
 3690TIP3    H111011   0.682   3.035  -0.010
 3690TIP3    H211012   0.777   2.923   0.024
 3691TIP3   OH211013   3.627   0.581   0.258
 3691TIP3    H111014   3.669   0.524   0.322
 3691TIP3    H211015   3.632   0.533   0.176
 3692TIP3   OH211016   1.796   6.740   5.709
 3692TIP3    H111017   1.725   6.800   5.688
 3692TIP3    H211018   1.875   6.783   5.676
 3693TIP3   OH211019   7.038   3.313   0.129
 3693TIP3    H111020   6.965   3.356   0.174
 3693TIP3    H211021   7.041   3.355   0.043
 3694TIP3   OH211022   7.556   5.284   2.752
 3694TIP3    H111023   7.624   5.227   2.789
 3694TIP3    H211024   7.561   5.269   2.658
 3695TIP3   OH211025   0.962   6.542   0.344
 3695TIP3    H111026   0.873   6.567   0.367
 3695TIP3    H211027   0.963   6.447   0.353
 3696TIP3   OH211028   1.479   1.614   3.796
 3696TIP3    H111029   1.461   1.527   3.761
 3696TIP3    H211030   1.512   1.598   3.884
 3697TIP3   OH211031   1.388   2.062   3.032
 3697TIP3    H111032   1.337   2.070   2.951
 3697TIP3    H211033   1.479   2.074   3.004
 3698TIP3   OH211034   4.709   3.802   4.597
 3698TIP3    H111035   4.639   3.776   4.657
 3698TIP3    H211036   4.766   3.859   4.650
 3699TIP3   OH211037   1.605   1.432   1.048
 3699TIP3    H111038   1.541   1.499   1.023
 3699TIP3    H211039   1.625   1.385   0.967
 3700TIP3   OH211040   2.462   7.661   0.730
 3700TIP3    H111041   2.424   7.632   0.647
 3700TIP3    H211042   2.495   7.749   0.711
 3701TIP3   OH211043   4.208   3.873   1.979
 3701TIP3    H111044   4.143   3.803   1.986
 3701TIP3    H211045   4.218   3.906   2.068
 3702TIP3   OH211046   0.964   2.176   1.969
 3702TIP3    H111047   0.945   2.173   1.876
 3702TIP3    H211048   0.923   2.257   2.000
 3703TIP3   OH211049   1.967   6.104   3.837
 3703TIP3    H111050   1.874   6.083   3.839
 3703TIP3    H211051   2.012   6.021   3.849
 3704TIP3   OH211052   0.619   0.138   3.769
 3704TIP3    H111053   0.612   0.227   3.734
 3704TIP3    H211054   0.606   0.081   3.692
 3705TIP3   OH211055   1.613   4.007   2.722
 3705TIP3    H111056   1.577   4.068   2.786
 3705TIP3    H211057   1.537   3.975   2.674
 3706TIP3   OH211058   7.057   7.682   1.577
 3706TIP3    H111059   7.131   7.642   1.624
 3706TIP3    H211060   7.032   7.616   1.512
 3707TIP3   OH211061   5.964   5.166   0.896
 3707TIP3    H111062   5.935   5.257   0.904
 3707TIP3    H211063   5.940   5.141   0.807
 3708TIP3   OH211064   0.791   2.961   6.259
 3708TIP3    H111065   0.709   2.954   6.307
 3708TIP3    H211066   0.822   3.050   6.277
 3709TIP3   OH211067   2.792   3.401   0.329
 3709TIP3    H111068   2.842   3.394   0.410
 3709TIP3    H211069   2.707   3.435   0.357
 3710TIP3   OH211070   5.445   6.773   3.060
 3710TIP3    H111071   5.362   6.727   3.072
 3710TIP3    H211072   5.511   6.714   3.096
 3711TIP3   OH211073   1.302   1.735   5.867
 3711TIP3    H111074   1.334   1.819   5.900
 3711TIP3    H211075   1.381   1.682   5.856
 3712TIP3   OH211076   3.580   0.744   0.935
 3712TIP3    H111077   3.593   0.650   0.929
 3712TIP3    H211078   3.492   0.755   0.969
 3713TIP3   OH211079   7.518   0.523   0.859
 3713TIP3    H111080   7.584   0.514   0.791
 3713TIP3    H211081   7.562   0.496   0.939
 3714TIP3   OH211082   3.449   1.772   0.825
 3714TIP3    H111083   3.501   1.780   0.745
 3714TIP3    H211084   3.445   1.678   0.842
 3715TIP3   OH211085   4.048   4.412   2.199
 3715TIP3    H111086   3.966   4.391   2.245
 3715TIP3    H211087   4.057   4.507   2.208
 3716TIP3   OH211088   1.302   0.695   6.781
 3716TIP3    H111089   1.373   0.706   6.718
 3716TIP3    H211090   1.299   0.777   6.829
 3717TIP3   OH211091   4.627   7.650   2.557
 3717TIP3    H111092   4.598   7.626   2.645
 3717TIP3    H211093   4.679   7.729   2.569
 3718TIP3   OH211094   6.719   5.376   3.618
 3718TIP3    H111095   6.702   5.446   3.555
 3718TIP3    H211096   6.633   5.339   3.637
 3719TIP3   OH211097   1.798   0.292   0.025
 3719TIP3    H111098   1.743   0.219  -0.004
 3719TIP3    H211099   1.806   0.347  -0.053
 3720TIP3   OH211100   6.133   7.815   5.565
 3720TIP3    H111101   6.067   7.873   5.602
 3720TIP3    H211102   6.095   7.727   5.571
 3721TIP3   OH211103   6.022   0.715   5.595
 3721TIP3    H111104   5.958   0.682   5.658
 3721TIP3    H211105   5.980   0.702   5.510
 3722TIP3   OH211106   7.970   1.373   0.695
 3722TIP3    H111107   8.031   1.425   0.644
 3722TIP3    H211108   7.900   1.434   0.717
 3723TIP3   OH211109   7.558   3.684   4.115
 3723TIP3    H111110   7.551   3.760   4.172
 3723TIP3    H211111   7.644   3.692   4.074
 3724TIP3   OH211112   7.432   4.185   3.199
 3724TIP3    H111113   7.497   4.253   3.218
 3724TIP3    H211114   7.463   4.143   3.119
 3725TIP3   OH211115   5.049   1.944   5.791
 3725TIP3    H111116   5.140   1.940   5.823
 3725TIP3    H211117   5.041   1.868   5.734
 3726TIP3   OH211118   1.292   7.388   1.915
 3726TIP3    H111119   1.281   7.435   1.832
 3726TIP3    H211120   1.271   7.453   1.981
 3727TIP3   OH211121   5.523   5.145   3.120
 3727TIP3    H111122   5.463   5.166   3.191
 3727TIP3    H211123   5.605   5.121   3.163
 3728TIP3   OH211124   5.571   0.479   6.651
 3728TIP3    H111125   5.644   0.538   6.632
 3728TIP3    H211126   5.557   0.488   6.746
 3729TIP3   OH211127   0.147   6.711   3.950
 3729TIP3    H111128   0.181   6.754   4.029
 3729TIP3    H211129   0.220   6.657   3.919
 3730TIP3   OH211130   5.051   1.440   0.457
 3730TIP3    H111131   5.128   1.383   0.457
 3730TIP3    H211132   5.039   1.463   0.364
 3731TIP3   OH211133   4.589   1.070   6.851
 3731TIP3    H111134   4.640   1.039   6.776
 3731TIP3    H211135   4.499   1.075   6.818
 3732TIP3   OH211136   3.753   0.022   1.783
 3732TIP3    H111137   3.662   0.006   1.755
 3732TIP3    H211138   3.806  -0.013   1.712
 3733TIP3   OH211139   0.141   0.529   4.253
 3733TIP3    H111140   0.125   0.599   4.316
 3733TIP3    H211141   0.073   0.464   4.271
 3734TIP3   OH211142   6.765   6.253   1.589
 3734TIP3    H111143   6.838   6.195   1.568
 3734TIP3    H211144   6.765   6.318   1.519
 3735TIP3   OH211145   5.636   3.143   1.049
 3735TIP3    H111146   5.612   3.185   1.131
 3735TIP3    H211147   5.649   3.051   1.072
 3736TIP3   OH211148   0.442   0.064   2.638
 3736TIP3    H111149   0.534   0.044   2.655
 3736TIP3    H211150   0.423   0.137   2.697
 3737TIP3   OH211151   6.606   1.840   2.937
 3737TIP3    H111152   6.606   1.746   2.956
 3737TIP3    H211153   6.697   1.859   2.913
 3738TIP3   OH211154   4.218   1.748   4.847
 3738TIP3    H111155   4.171   1.827   4.874
 3738TIP3    H211156   4.303   1.780   4.818
 3739TIP3   OH211157   5.857   7.903   5.061
 3739TIP3    H111158   5.805   7.825   5.041
 3739TIP3    H211159   5.877   7.896   5.154
 3740TIP3   OH211160   3.157   7.030   5.079
 3740TIP3    H111161   3.158   7.022   4.983
 3740TIP3    H211162   3.117   6.948   5.109
 3741TIP3   OH211163   6.685   4.480   6.737
 3741TIP3    H111164   6.704   4.393   6.700
 3741TIP3    H211165   6.663   4.533   6.661
 3742TIP3   OH211166   8.219   4.791   6.175
 3742TIP3    H111167   8.181   4.721   6.122
 3742TIP3    H211168   8.161   4.865   6.161
 3743TIP3   OH211169   6.273   2.136   5.289
 3743TIP3    H111170   6.225   2.116   5.208
 3743TIP3    H211171   6.254   2.228   5.306
 3744TIP3   OH211172   6.386   7.293   2.497
 3744TIP3    H111173   6.377   7.200   2.519
 3744TIP3    H211174   6.306   7.313   2.449
 3745TIP3   OH211175   7.462   4.666   5.208
 3745TIP3    H111176   7.448   4.761   5.204
 3745TIP3    H211177   7.406   4.636   5.280
 3746TIP3   OH211178   6.105   7.537   0.912
 3746TIP3    H111179   6.070   7.503   0.995
 3746TIP3    H211180   6.166   7.606   0.938
 3747TIP3   OH211181   2.466   0.789   4.958
 3747TIP3    H111182   2.429   0.743   4.882
 3747TIP3    H211183   2.556   0.810   4.932
 3748TIP3   OH211184   0.456   0.163   2.162
 3748TIP3    H111185   0.386   0.222   2.137
 3748TIP3    H211186   0.467   0.178   2.256
 3749TIP3   OH211187   0.179   3.339   1.239
 3749TIP3    H111188   0.106   3.395   1.266
 3749TIP3    H211189   0.149   3.298   1.157
 3750TIP3   OH211190   3.021   6.473   0.550
 3750TIP3    H111191   3.072   6.541   0.507
 3750TIP3    H211192   3.086   6.417   0.591
 3751TIP3   OH211193   4.620   1.178   5.621
 3751TIP3    H111194   4.585   1.160   5.708
 3751TIP3    H211195   4.713   1.160   5.628
 3752TIP3   OH211196   4.395   0.811   6.047
 3752TIP3    H111197   4.467   0.748   6.049
 3752TIP3    H211198   4.327   0.768   5.995
 3753TIP3   OH211199   6.688   2.688   5.961
 3753TIP3    H111200   6.635   2.729   6.029
 3753TIP3    H211201   6.713   2.761   5.904
 3754TIP3   OH211202   4.041   6.254   1.737
 3754TIP3    H111203   4.045   6.189   1.807
 3754TIP3    H211204   4.083   6.332   1.775
 3755TIP3   OH211205   2.224   4.449   1.950
 3755TIP3    H111206   2.190   4.371   1.906
 3755TIP3    H211207   2.168   4.521   1.918
 3756TIP3   OH211208   2.932   2.643   0.302
 3756TIP3    H111209   3.016   2.606   0.326
 3756TIP3    H211210   2.921   2.620   0.209
 3757TIP3   OH211211   1.002   5.644   1.390
 3757TIP3    H111212   0.909   5.633   1.370
 3757TIP3    H211213   1.044   5.568   1.350
 3758TIP3   OH211214   7.990   2.099   0.750
 3758TIP3    H111215   8.046   2.039   0.700
 3758TIP3    H211216   7.923   2.126   0.687
 3759TIP3   OH211217   4.446   7.750   2.013
 3759TIP3    H111218   4.501   7.801   2.072
 3759TIP3    H211219   4.362   7.797   2.012
 3760TIP3   OH211220   0.190   1.898   1.175
 3760TIP3    H111221   0.225   1.983   1.150
 3760TIP3    H211222   0.190   1.899   1.271
 3761TIP3   OH211223   4.553   3.112   1.258
 3761TIP3    H111224   4.482   3.065   1.302
 3761TIP3    H211225   4.560   3.195   1.306
 3762TIP3   OH211226   1.134   1.943   0.463
 3762TIP3    H111227   1.220   1.908   0.488
 3762TIP3    H211228   1.154   2.013   0.402
 3763TIP3   OH211229   0.507   3.084   0.661
 3763TIP3    H111230   0.558   3.115   0.586
 3763TIP3    H211231   0.427   3.136   0.658
 3764TIP3   OH211232   7.019   6.935   3.606
 3764TIP3    H111233   7.096   6.991   3.616
 3764TIP3    H211234   6.945   6.994   3.613
 3765TIP3   OH211235   5.754   5.776   6.063
 3765TIP3    H111236   5.661   5.753   6.061
 3765TIP3    H211237   5.756   5.871   6.056
 3766TIP3   OH211238   2.019   4.474   6.412
 3766TIP3    H111239   1.979   4.490   6.327
 3766TIP3    H211240   2.027   4.379   6.418
 3767TIP3   OH211241   4.874   6.282   1.506
 3767TIP3    H111242   4.932   6.223   1.554
 3767TIP3    H211243   4.809   6.311   1.571
 3768TIP3   OH211244   6.638   0.467   2.119
 3768TIP3    H111245   6.698   0.405   2.161
 3768TIP3    H211246   6.695   0.539   2.091
 3769TIP3   OH211247   3.872   6.558   0.439
 3769TIP3    H111248   3.885   6.474   0.483
 3769TIP3    H211249   3.939   6.560   0.371
 3770TIP3   OH211250   6.581   6.750   5.490
 3770TIP3    H111251   6.601   6.838   5.523
 3770TIP3    H211252   6.595   6.692   5.565
 3771TIP3   OH211253   2.245   5.070   0.856
 3771TIP3    H111254   2.289   4.990   0.828
 3771TIP3    H211255   2.224   5.055   0.948
 3772TIP3   OH211256   5.182   0.663   1.345
 3772TIP3    H111257   5.252   0.660   1.409
 3772TIP3    H211258   5.174   0.756   1.322
 3773TIP3   OH211259   6.768   7.333   4.761
 3773TIP3    H111260   6.745   7.298   4.848
 3773TIP3    H211261   6.811   7.416   4.779
 3774TIP3   OH211262   8.006   6.526   2.731
 3774TIP3    H111263   7.956   6.487   2.659
 3774TIP3    H211264   8.009   6.457   2.797
 3775TIP3   OH211265   2.885   5.291   3.661
 3775TIP3    H111266   2.870   5.231   3.589
 3775TIP3    H211267   2.883   5.235   3.739
 3776TIP3   OH211268   3.014   0.479   3.606
 3776TIP3    H111269   2.948   0.459   3.672
 3776TIP3    H211270   3.089   0.424   3.628
 3777TIP3   OH211271   0.509   2.808   1.001
 3777TIP3    H111272   0.541   2.722   1.029
 3777TIP3    H211273   0.579   2.869   1.025
 3778TIP3   OH211274   1.870   5.856   5.092
 3778TIP3    H111275   1.860   5.941   5.049
 3778TIP3    H211276   1.798   5.853   5.156
 3779TIP3   OH211277   7.940   4.926   5.894
 3779TIP3    H111278   8.021   4.976   5.889
 3779TIP3    H211279   7.888   4.957   5.820
 3780TIP3   OH211280   4.370   7.368   5.110
 3780TIP3    H111281   4.441   7.322   5.154
 3780TIP3    H211282   4.324   7.415   5.180
 3781TIP3   OH211283   5.324   0.934   4.174
 3781TIP3    H111284   5.371   0.872   4.118
 3781TIP3    H211285   5.392   0.992   4.207
 3782TIP3   OH211286   0.913   3.916   1.261
 3782TIP3    H111287   1.004   3.915   1.230
 3782TIP3    H211288   0.895   3.825   1.284
 3783TIP3   OH211289   4.394   3.569   5.600
 3783TIP3    H111290   4.317   3.577   5.543
 3783TIP3    H211291   4.408   3.658   5.634
 3784TIP3   OH211292   1.214   3.729   5.618
 3784TIP3    H111293   1.305   3.753   5.603
 3784TIP3    H211294   1.163   3.801   5.580
 3785TIP3   OH211295   4.782   6.198   2.785
 3785TIP3    H111296   4.834   6.185   2.865
 3785TIP3    H211297   4.834   6.260   2.733
 3786TIP3   OH211298   1.348   4.159   3.594
 3786TIP3    H111299   1.361   4.159   3.689
 3786TIP3    H211300   1.316   4.071   3.575
 3787TIP3   OH211301   0.366   2.879   4.311
 3787TIP3    H111302   0.358   2.869   4.406
 3787TIP3    H211303   0.458   2.903   4.298
 3788TIP3   OH211304   3.708   6.578   4.708
 3788TIP3    H111305   3.764   6.537   4.773
 3788TIP3    H211306   3.724   6.672   4.718
 3789TIP3   OH211307   6.987   7.564   6.383
 3789TIP3    H111308   7.030   7.481   6.363
 3789TIP3    H211309   6.961   7.556   6.474
 3790TIP3   OH211310   5.082   5.920   1.208
 3790TIP3    H111311   5.011   5.864   1.176
 3790TIP3    H211312   5.156   5.860   1.218
 3791TIP3   OH211313   2.287   3.319   4.674
 3791TIP3    H111314   2.198   3.284   4.674
 3791TIP3    H211315   2.340   3.249   4.636
 3792TIP3   OH211316   5.199   6.097   5.854
 3792TIP3    H111317   5.185   6.121   5.763
 3792TIP3    H211318   5.281   6.048   5.854
 3793TIP3   OH211319   0.043   5.985   2.284
 3793TIP3    H111320   0.035   6.078   2.261
 3793TIP3    H211321  -0.034   5.967   2.338
 3794TIP3   OH211322   4.741   4.329   0.706
 3794TIP3    H111323   4.824   4.372   0.726
 3794TIP3    H211324   4.760   4.235   0.714
 3795TIP3   OH211325   0.517   6.494   3.509
 3795TIP3    H111326   0.586   6.545   3.551
 3795TIP3    H211327   0.457   6.560   3.474
 3796TIP3   OH211328   7.069   0.165   1.115
 3796TIP3    H111329   7.007   0.119   1.171
 3796TIP3    H211330   7.015   0.224   1.062
 3797TIP3   OH211331   5.316   5.208   5.152
 3797TIP3    H111332   5.381   5.266   5.112
 3797TIP3    H211333   5.311   5.236   5.244
 3798TIP3   OH211334   6.286   0.329   0.949
 3798TIP3    H111335   6.225   0.363   1.015
 3798TIP3    H211336   6.356   0.394   0.946
 3799TIP3   OH211337   7.042   0.942   4.840
 3799TIP3    H111338   7.133   0.969   4.853
 3799TIP3    H211339   6.991   1.023   4.850
 3800TIP3   OH211340   1.566   6.101   1.677
 3800TIP3    H111341   1.598   6.011   1.677
 3800TIP3    H211342   1.632   6.150   1.629
 3801TIP3   OH211343   5.538   4.163   1.651
 3801TIP3    H111344   5.470   4.109   1.692
 3801TIP3    H211345   5.560   4.117   1.570
 3802TIP3   OH211346   3.466   0.066   1.259
 3802TIP3    H111347   3.440   0.149   1.217
 3802TIP3    H211348   3.561   0.070   1.264
 3803TIP3   OH211349   6.408   2.202   5.949
 3803TIP3    H111350   6.377   2.132   5.892
 3803TIP3    H211351   6.451   2.264   5.890
 3804TIP3   OH211352   6.249   3.854   0.327
 3804TIP3    H111353   6.219   3.764   0.314
 3804TIP3    H211354   6.197   3.906   0.266
 3805TIP3   OH211355   2.065   5.679   0.007
 3805TIP3    H111356   2.073   5.750   0.070
 3805TIP3    H211357   2.055   5.722  -0.078
 3806TIP3   OH211358   5.289   3.348   2.985
 3806TIP3    H111359   5.220   3.378   3.043
 3806TIP3    H211360   5.344   3.291   3.039
 3807TIP3   OH211361   0.539   1.591   4.982
 3807TIP3    H111362   0.481   1.652   4.938
 3807TIP3    H211363   0.597   1.558   4.913
 3808TIP3   OH211364   5.527   1.612   6.609
 3808TIP3    H111365   5.519   1.698   6.568
 3808TIP3    H211366   5.457   1.608   6.673
 3809TIP3   OH211367   0.559   5.261   2.754
 3809TIP3    H111368   0.512   5.198   2.699
 3809TIP3    H211369   0.546   5.229   2.843
 3810TIP3   OH211370   4.216   5.994   6.339
 3810TIP3    H111371   4.306   5.961   6.331
 3810TIP3    H211372   4.164   5.935   6.284
 3811TIP3   OH211373   5.617   7.256   1.719
 3811TIP3    H111374   5.646   7.221   1.804
 3811TIP3    H211375   5.685   7.230   1.658
 3812TIP3   OH211376   2.162   5.943   1.871
 3812TIP3    H111377   2.139   5.990   1.791
 3812TIP3    H211378   2.081   5.899   1.897
 3813TIP3   OH211379   4.424   4.160   5.872
 3813TIP3    H111380   4.510   4.123   5.854
 3813TIP3    H211381   4.397   4.199   5.789
 3814TIP3   OH211382   6.832   1.894   6.037
 3814TIP3    H111383   6.823   1.860   6.126
 3814TIP3    H211384   6.867   1.982   6.049
 3815TIP3   OH211385   3.597   0.426   1.958
 3815TIP3    H111386   3.636   0.375   1.888
 3815TIP3    H211387   3.636   0.513   1.949
 3816TIP3   OH211388   1.282   3.053   3.165
 3816TIP3    H111389   1.244   3.096   3.241
 3816TIP3    H211390   1.259   2.961   3.176
 3817TIP3   OH211391   1.888   5.823   0.689
 3817TIP3    H111392   1.800   5.790   0.703
 3817TIP3    H211393   1.945   5.759   0.733
 3818TIP3   OH211394   1.849   7.449   1.768
 3818TIP3    H111395   1.870   7.408   1.685
 3818TIP3    H211396   1.776   7.397   1.803
 3819TIP3   OH211397   0.885   5.735   1.902
 3819TIP3    H111398   0.972   5.752   1.939
 3819TIP3    H211399   0.838   5.693   1.973
 3820TIP3   OH211400   6.155   1.678   6.703
 3820TIP3    H111401   6.191   1.714   6.785
 3820TIP3    H211402   6.091   1.743   6.675
 3821TIP3   OH211403   1.352   0.221   0.089
 3821TIP3    H111404   1.366   0.291   0.026
 3821TIP3    H211405   1.431   0.167   0.083
 3822TIP3   OH211406   4.297   6.426   0.380
 3822TIP3    H111407   4.345   6.437   0.298
 3822TIP3    H211408   4.207   6.453   0.360
 3823TIP3   OH211409   1.714   7.372   5.071
 3823TIP3    H111410   1.773   7.306   5.034
 3823TIP3    H211411   1.696   7.341   5.160
 3824TIP3   OH211412   7.926   5.291   3.774
 3824TIP3    H111413   7.948   5.200   3.793
 3824TIP3    H211414   7.882   5.288   3.690
 3825TIP3   OH211415   1.942   0.838   2.409
 3825TIP3    H111416   1.885   0.762   2.416
 3825TIP3    H211417   1.913   0.882   2.329
 3826TIP3   OH211418   8.243   6.968   0.420
 3826TIP3    H111419   8.193   7.049   0.411
 3826TIP3    H211420   8.321   6.993   0.469
 3827TIP3   OH211421   2.165   7.537   3.134
 3827TIP3    H111422   2.120   7.621   3.129
 3827TIP3    H211423   2.151   7.497   3.048
 3828TIP3   OH211424   5.180   6.973   0.401
 3828TIP3    H111425   5.252   6.996   0.460
 3828TIP3    H211426   5.149   7.056   0.367
 3829TIP3   OH211427   2.012   4.627   3.760
 3829TIP3    H111428   1.961   4.682   3.700
 3829TIP3    H211429   1.996   4.666   3.847
 3830TIP3   OH211430   2.060   3.458   2.927
 3830TIP3    H111431   1.986   3.491   2.876
 3830TIP3    H211432   2.079   3.527   2.990
 3831TIP3   OH211433   3.084   1.921   2.678
 3831TIP3    H111434   3.098   1.974   2.599
 3831TIP3    H211435   3.139   1.843   2.664
 3832TIP3   OH211436   3.441   5.000   5.997
 3832TIP3    H111437   3.468   4.915   6.034
 3832TIP3    H211438   3.369   5.029   6.052
 3833TIP3   OH211439   6.781   1.072   5.033
 3833TIP3    H111440   6.759   1.163   5.054
 3833TIP3    H211441   6.721   1.049   4.962
 3834TIP3   OH211442   4.489   2.534   2.123
 3834TIP3    H111443   4.395   2.552   2.117
 3834TIP3    H211444   4.516   2.519   2.033
 3835TIP3   OH211445   6.570   0.407   4.907
 3835TIP3    H111446   6.570   0.502   4.921
 3835TIP3    H211447   6.658   0.379   4.929
 3836TIP3   OH211448   1.805   2.255   4.228
 3836TIP3    H111449   1.836   2.345   4.242
 3836TIP3    H211450   1.883   2.205   4.206
 3837TIP3   OH211451   4.197   3.668   4.393
 3837TIP3    H111452   4.136   3.616   4.341
 3837TIP3    H211453   4.260   3.604   4.427
 3838TIP3   OH211454   1.554   5.068   3.074
 3838TIP3    H111455   1.483   5.110   3.025
 3838TIP3    H211456   1.586   5.000   3.015
 3839TIP3   OH211457   7.108   2.503   1.487
 3839TIP3    H111458   7.189   2.554   1.489
 3839TIP3    H211459   7.042   2.565   1.456
 3840TIP3   OH211460   6.755   6.849   6.709
 3840TIP3    H111461   6.660   6.836   6.708
 3840TIP3    H211462   6.769   6.916   6.776
 3841TIP3   OH211463   6.302   7.902   0.423
 3841TIP3    H111464   6.317   7.852   0.504
 3841TIP3    H211465   6.208   7.891   0.406
 3842TIP3   OH211466   4.272   7.853   3.060
 3842TIP3    H111467   4.203   7.877   3.122
 3842TIP3    H211468   4.238   7.881   2.975
 3843TIP3   OH211469   2.242   0.102   5.463
 3843TIP3    H111470   2.267   0.010   5.467
 3843TIP3    H211471   2.216   0.117   5.372
 3844TIP3   OH211472   3.551   5.328   0.351
 3844TIP3    H111473   3.507   5.414   0.358
 3844TIP3    H211474   3.504   5.273   0.413
 3845TIP3   OH211475   0.187   4.002   5.359
 3845TIP3    H111476   0.155   3.979   5.272
 3845TIP3    H211477   0.222   4.091   5.350
 3846TIP3   OH211478   5.761   7.573   3.827
 3846TIP3    H111479   5.729   7.594   3.915
 3846TIP3    H211480   5.815   7.647   3.802
 3847TIP3   OH211481   5.936   4.269   6.875
 3847TIP3    H111482   5.881   4.229   6.942
 3847TIP3    H211483   5.939   4.205   6.804
 3848TIP3   OH211484   1.393   7.040   0.693
 3848TIP3    H111485   1.344   7.020   0.613
 3848TIP3    H211486   1.449   7.114   0.669
 3849TIP3   OH211487   1.938   6.381   3.528
 3849TIP3    H111488   1.880   6.313   3.494
 3849TIP3    H211489   1.950   6.442   3.455
 3850TIP3   OH211490   2.202   0.500   0.378
 3850TIP3    H111491   2.149   0.559   0.432
 3850TIP3    H211492   2.239   0.437   0.440
 3851TIP3   OH211493   7.777   5.077   2.321
 3851TIP3    H111494   7.852   5.073   2.262
 3851TIP3    H211495   7.702   5.086   2.262
 3852TIP3   OH211496   3.397   1.484   3.231
 3852TIP3    H111497   3.470   1.546   3.228
 3852TIP3    H211498   3.342   1.516   3.302
 3853TIP3   OH211499   2.193   1.982   2.965
 3853TIP3    H111500   2.245   2.062   2.953
 3853TIP3    H211501   2.104   2.013   2.978
 3854TIP3   OH211502   2.615   2.955   5.613
 3854TIP3    H111503   2.645   3.014   5.544
 3854TIP3    H211504   2.521   2.946   5.598
 3855TIP3   OH211505   4.064   4.625   4.007
 3855TIP3    H111506   3.996   4.687   4.034
 3855TIP3    H211507   4.073   4.566   4.082
 3856TIP3   OH211508   6.173   5.978   4.846
 3856TIP3    H111509   6.211   5.893   4.824
 3856TIP3    H211510   6.191   6.033   4.770
 3857TIP3   OH211511   5.513   7.109   3.134
 3857TIP3    H111512   5.590   7.063   3.100
 3857TIP3    H211513   5.449   7.041   3.153
 3858TIP3   OH211514   3.636   6.305   4.289
 3858TIP3    H111515   3.546   6.326   4.315
 3858TIP3    H211516   3.670   6.388   4.255
 3859TIP3   OH211517   7.604   7.019   5.992
 3859TIP3    H111518   7.676   7.034   5.931
 3859TIP3    H211519   7.647   6.998   6.076
 3860TIP3   OH211520   5.579   2.016   3.216
 3860TIP3    H111521   5.644   1.946   3.213
 3860TIP3    H211522   5.606   2.070   3.290
 3861TIP3   OH211523   7.365   3.831   3.099
 3861TIP3    H111524   7.326   3.842   3.012
 3861TIP3    H211525   7.459   3.823   3.083
 3862TIP3   OH211526   0.102   3.954   1.642
 3862TIP3    H111527   0.092   3.935   1.736
 3862TIP3    H211528   0.123   4.047   1.638
 3863TIP3   OH211529   6.637   5.490   1.119
 3863TIP3    H111530   6.589   5.456   1.195
 3863TIP3    H211531   6.591   5.454   1.043
 3864TIP3   OH211532   2.554   6.660   4.425
 3864TIP3    H111533   2.541   6.571   4.458
 3864TIP3    H211534   2.634   6.655   4.373
 3865TIP3   OH211535   6.208   2.225   0.018
 3865TIP3    H111536   6.234   2.306   0.060
 3865TIP3    H211537   6.113   2.225   0.023
 3866TIP3   OH211538   4.107   2.258   2.216
 3866TIP3    H111539   4.092   2.334   2.273
 3866TIP3    H211540   4.020   2.224   2.199
 3867TIP3   OH211541   4.378   5.747   5.900
 3867TIP3    H111542   4.405   5.801   5.825
 3867TIP3    H211543   4.429   5.667   5.891
 3868TIP3   OH211544   7.791   3.529   6.054
 3868TIP3    H111545   7.795   3.586   6.131
 3868TIP3    H211546   7.774   3.589   5.981
 3869TIP3   OH211547   5.890   7.191   1.707
 3869TIP3    H111548   5.872   7.161   1.796
 3869TIP3    H211549   5.918   7.112   1.661
 3870TIP3   OH211550   6.706   1.073   2.505
 3870TIP3    H111551   6.698   1.155   2.552
 3870TIP3    H211552   6.779   1.027   2.547
 3871TIP3   OH211553   5.618   2.857   3.462
 3871TIP3    H111554   5.609   2.949   3.488
 3871TIP3    H211555   5.527   2.828   3.451
 3872TIP3   OH211556   3.206   0.304   3.251
 3872TIP3    H111557   3.264   0.379   3.264
 3872TIP3    H211558   3.130   0.322   3.306
 3873TIP3   OH211559   6.325   4.936   6.615
 3873TIP3    H111560   6.396   4.930   6.551
 3873TIP3    H211561   6.339   4.862   6.673
 3874TIP3   OH211562   5.508   4.814   0.941
 3874TIP3    H111563   5.475   4.839   1.027
 3874TIP3    H211564   5.455   4.740   0.914
 3875TIP3   OH211565   2.636   2.846   1.784
 3875TIP3    H111566   2.582   2.877   1.711
 3875TIP3    H211567   2.696   2.919   1.802
 3876TIP3   OH211568   5.955   6.735   5.077
 3876TIP3    H111569   6.009   6.807   5.044
 3876TIP3    H211570   5.866   6.760   5.052
 3877TIP3   OH211571   5.800   7.528   6.662
 3877TIP3    H111572   5.826   7.436   6.655
 3877TIP3    H211573   5.788   7.557   6.572
 3878TIP3   OH211574   7.286   5.086   5.687
 3878TIP3    H111575   7.221   5.035   5.639
 3878TIP3    H211576   7.296   5.167   5.637
 3879TIP3   OH211577   7.891   7.689   1.152
 3879TIP3    H111578   7.955   7.695   1.081
 3879TIP3    H211579   7.860   7.778   1.165
 3880TIP3   OH211580   3.518   0.264   6.121
 3880TIP3    H111581   3.450   0.320   6.083
 3880TIP3    H211582   3.522   0.188   6.063
 3881TIP3   OH211583   4.499   6.926   3.715
 3881TIP3    H111584   4.505   6.843   3.762
 3881TIP3    H211585   4.506   6.902   3.622
 3882TIP3   OH211586   6.083   1.694   2.604
 3882TIP3    H111587   6.086   1.660   2.514
 3882TIP3    H211588   6.025   1.770   2.598
 3883TIP3   OH211589   3.532   5.927   4.572
 3883TIP3    H111590   3.557   5.851   4.520
 3883TIP3    H211591   3.615   5.971   4.593
 3884TIP3   OH211592   1.268   2.549   3.066
 3884TIP3    H111593   1.235   2.503   2.989
 3884TIP3    H211594   1.359   2.570   3.045
 3885TIP3   OH211595   5.247   4.765   6.432
 3885TIP3    H111596   5.296   4.709   6.492
 3885TIP3    H211597   5.200   4.703   6.375
 3886TIP3   OH211598   4.827   7.909   0.097
 3886TIP3    H111599   4.796   7.893   0.186
 3886TIP3    H211600   4.923   7.914   0.106
 3887TIP3   OH211601   7.491   4.515   1.841
 3887TIP3    H111602   7.539   4.596   1.822
 3887TIP3    H211603   7.438   4.536   1.917
 3888TIP3   OH211604   7.799   0.887   4.690
 3888TIP3    H111605   7.841   0.866   4.774
 3888TIP3    H211606   7.835   0.823   4.628
 3889TIP3   OH211607   6.365   4.525   0.338
 3889TIP3    H111608   6.336   4.616   0.332
 3889TIP3    H211609   6.305   4.485   0.401
 3890TIP3   OH211610   3.814   5.651   2.463
 3890TIP3    H111611   3.886   5.597   2.430
 3890TIP3    H211612   3.840   5.674   2.552
 3891TIP3   OH211613   5.409   7.132   5.613
 3891TIP3    H111614   5.428   7.058   5.555
 3891TIP3    H211615   5.384   7.203   5.553
 3892TIP3   OH211616   3.440   0.974   6.842
 3892TIP3    H111617   3.453   0.942   6.752
 3892TIP3    H211618   3.526   0.967   6.883
 3893TIP3   OH211619   0.924   3.911   2.223
 3893TIP3    H111620   0.931   3.821   2.254
 3893TIP3    H211621   0.991   3.959   2.272
 3894TIP3   OH211622   4.499   0.457   0.285
 3894TIP3    H111623   4.589   0.467   0.254
 3894TIP3    H211624   4.495   0.507   0.366
 3895TIP3   OH211625   4.967   0.927   2.765
 3895TIP3    H111626   5.047   0.959   2.723
 3895TIP3    H211627   4.966   0.834   2.745
 3896TIP3   OH211628   5.250   6.376   2.652
 3896TIP3    H111629   5.345   6.384   2.652
 3896TIP3    H211630   5.227   6.366   2.559
 3897TIP3   OH211631   6.775   1.459   2.935
 3897TIP3    H111632   6.774   1.542   2.887
 3897TIP3    H211633   6.867   1.439   2.946
 3898TIP3   OH211634   5.694   0.615   5.804
 3898TIP3    H111635   5.672   0.687   5.745
 3898TIP3    H211636   5.690   0.653   5.892
 3899TIP3   OH211637   7.794   1.699   1.158
 3899TIP3    H111638   7.815   1.788   1.131
 3899TIP3    H211639   7.845   1.643   1.100
 3900TIP3   OH211640   2.170   0.869   4.591
 3900TIP3    H111641   2.151   0.908   4.676
 3900TIP3    H211642   2.195   0.942   4.535
 3901TIP3   OH211643   3.788   5.676   0.929
 3901TIP3    H111644   3.870   5.629   0.914
 3901TIP3    H211645   3.806   5.730   1.006
 3902TIP3   OH211646   8.016   2.364   3.078
 3902TIP3    H111647   8.003   2.312   3.157
 3902TIP3    H211648   8.016   2.301   3.006
 3903TIP3   OH211649   3.849   6.625   2.986
 3903TIP3    H111650   3.929   6.649   3.033
 3903TIP3    H211651   3.779   6.662   3.038
 3904TIP3   OH211652   3.126   5.407   6.562
 3904TIP3    H111653   3.082   5.368   6.639
 3904TIP3    H211654   3.082   5.367   6.487
 3905TIP3   OH211655   6.807   0.662   1.949
 3905TIP3    H111656   6.812   0.725   1.877
 3905TIP3    H211657   6.798   0.716   2.028
 3906TIP3   OH211658   5.313   3.435   3.398
 3906TIP3    H111659   5.400   3.475   3.404
 3906TIP3    H211660   5.252   3.507   3.415
 3907TIP3   OH211661   3.445   6.830   0.300
 3907TIP3    H111662   3.357   6.862   0.277
 3907TIP3    H211663   3.498   6.850   0.222
 3908TIP3   OH211664   1.207   2.714   1.188
 3908TIP3    H111665   1.193   2.685   1.097
 3908TIP3    H211666   1.143   2.783   1.201
 3909TIP3   OH211667   2.984   2.848   5.394
 3909TIP3    H111668   3.017   2.788   5.461
 3909TIP3    H211669   3.063   2.879   5.349
 3910TIP3   OH211670   0.639   7.438   5.707
 3910TIP3    H111671   0.605   7.430   5.797
 3910TIP3    H211672   0.677   7.526   5.705
 3911TIP3   OH211673   1.392   1.498   4.317
 3911TIP3    H111674   1.345   1.475   4.397
 3911TIP3    H211675   1.436   1.580   4.337
 3912TIP3   OH211676   4.286   3.107   6.740
 3912TIP3    H111677   4.230   3.180   6.713
 3912TIP3    H211678   4.242   3.029   6.705
 3913TIP3   OH211679   6.574   1.417   3.407
 3913TIP3    H111680   6.657   1.371   3.396
 3913TIP3    H211681   6.520   1.356   3.457
 3914TIP3   OH211682   0.218   6.346   3.854
 3914TIP3    H111683   0.140   6.289   3.860
 3914TIP3    H211684   0.186   6.426   3.814
 3915TIP3   OH211685   6.163   3.492   2.350
 3915TIP3    H111686   6.206   3.409   2.367
 3915TIP3    H211687   6.087   3.469   2.295
 3916TIP3   OH211688   2.335   0.781   1.452
 3916TIP3    H111689   2.247   0.772   1.490
 3916TIP3    H211690   2.341   0.710   1.389
 3917TIP3   OH211691   2.467   1.595   4.080
 3917TIP3    H111692   2.508   1.590   3.993
 3917TIP3    H211693   2.383   1.551   4.069
 3918TIP3   OH211694   7.726   5.098   2.978
 3918TIP3    H111695   7.778   5.018   2.989
 3918TIP3    H211696   7.665   5.097   3.051
 3919TIP3   OH211697   4.191   5.554   0.118
 3919TIP3    H111698   4.199   5.623   0.184
 3919TIP3    H211699   4.278   5.516   0.112
 3920TIP3   OH211700   4.412   6.661   6.292
 3920TIP3    H111701   4.478   6.620   6.348
 3920TIP3    H211702   4.456   6.676   6.209
 3921TIP3   OH211703   3.741   2.401   4.673
 3921TIP3    H111704   3.767   2.491   4.693
 3921TIP3    H211705   3.821   2.350   4.680
 3922TIP3   OH211706   5.465   0.978   1.080
 3922TIP3    H111707   5.455   0.974   0.985
 3922TIP3    H211708   5.560   0.981   1.094
 3923TIP3   OH211709   5.820   7.624   6.084
 3923TIP3    H111710   5.823   7.577   6.168
 3923TIP3    H211711   5.730   7.655   6.077
 3924TIP3   OH211712   4.338   3.557   3.992
 3924TIP3    H111713   4.332   3.493   4.062
 3924TIP3    H211714   4.249   3.593   3.985
 3925TIP3   OH211715   7.089   0.710   2.083
 3925TIP3    H111716   6.995   0.733   2.086
 3925TIP3    H211717   7.117   0.716   2.174
 3926TIP3   OH211718   2.283   5.660   5.555
 3926TIP3    H111719   2.241   5.715   5.621
 3926TIP3    H211720   2.234   5.678   5.474
 3927TIP3   OH211721   0.238   3.712   2.016
 3927TIP3    H111722   0.230   3.687   1.924
 3927TIP3    H211723   0.331   3.731   2.028
 3928TIP3   OH211724   7.037   0.296   3.039
 3928TIP3    H111725   6.952   0.274   3.002
 3928TIP3    H211726   7.047   0.235   3.113
 3929TIP3   OH211727   7.627   4.275   5.932
 3929TIP3    H111728   7.533   4.275   5.918
 3929TIP3    H211729   7.644   4.196   5.984
 3930TIP3   OH211730   5.733   0.089   3.697
 3930TIP3    H111731   5.656   0.136   3.664
 3930TIP3    H211732   5.715  -0.003   3.678
 3931TIP3   OH211733   0.668   2.232   1.026
 3931TIP3    H111734   0.686   2.215   1.118
 3931TIP3    H211735   0.718   2.165   0.979
 3932TIP3   OH211736   8.063   5.428   4.463
 3932TIP3    H111737   8.137   5.367   4.463
 3932TIP3    H211738   8.028   5.423   4.374
 3933TIP3   OH211739   4.196   2.745   0.568
 3933TIP3    H111740   4.279   2.790   0.549
 3933TIP3    H211741   4.211   2.704   0.653
 3934TIP3   OH211742   4.888   4.068   4.494
 3934TIP3    H111743   4.921   4.082   4.583
 3934TIP3    H211744   4.896   3.974   4.480
 3935TIP3   OH211745   1.599   3.289   0.482
 3935TIP3    H111746   1.672   3.343   0.511
 3935TIP3    H211747   1.616   3.203   0.520
 3936TIP3   OH211748   0.847   5.969   3.614
 3936TIP3    H111749   0.761   5.980   3.573
 3936TIP3    H211750   0.844   6.023   3.693
 3937TIP3   OH211751   5.528   7.867   0.309
 3937TIP3    H111752   5.534   7.960   0.331
 3937TIP3    H211753   5.482   7.865   0.225
 3938TIP3   OH211754   0.708   3.211   4.509
 3938TIP3    H111755   0.633   3.208   4.568
 3938TIP3    H211756   0.680   3.162   4.431
 3939TIP3   OH211757   0.662   3.438   2.721
 3939TIP3    H111758   0.567   3.437   2.734
 3939TIP3    H211759   0.697   3.397   2.801
 3940TIP3   OH211760   7.315   3.807   4.315
 3940TIP3    H111761   7.341   3.884   4.265
 3940TIP3    H211762   7.366   3.814   4.396
 3941TIP3   OH211763   0.841   0.876   0.747
 3941TIP3    H111764   0.916   0.863   0.805
 3941TIP3    H211765   0.821   0.969   0.754
 3942TIP3   OH211766   4.080   1.051   5.945
 3942TIP3    H111767   4.012   1.116   5.927
 3942TIP3    H211768   4.126   1.042   5.861
 3943TIP3   OH211769   4.864   3.578   4.821
 3943TIP3    H111770   4.894   3.604   4.734
 3943TIP3    H211771   4.833   3.488   4.810
 3944TIP3   OH211772   0.475   1.623   5.885
 3944TIP3    H111773   0.538   1.568   5.932
 3944TIP3    H211774   0.424   1.666   5.954
 3945TIP3   OH211775   8.266   2.533   5.045
 3945TIP3    H111776   8.263   2.450   4.997
 3945TIP3    H211777   8.327   2.517   5.116
 3946TIP3   OH211778   7.098   1.516   0.439
 3946TIP3    H111779   7.083   1.421   0.443
 3946TIP3    H211780   7.025   1.553   0.489
 3947TIP3   OH211781   6.864   0.847   3.383
 3947TIP3    H111782   6.823   0.761   3.398
 3947TIP3    H211783   6.946   0.826   3.339
 3948TIP3   OH211784   4.806   4.055   0.705
 3948TIP3    H111785   4.781   3.988   0.769
 3948TIP3    H211786   4.899   4.040   0.690
 3949TIP3   OH211787   1.965   1.606   4.279
 3949TIP3    H111788   1.958   1.514   4.302
 3949TIP3    H211789   1.958   1.608   4.183
 3950TIP3   OH211790   5.413   2.331   3.588
 3950TIP3    H111791   5.411   2.318   3.682
 3950TIP3    H211792   5.490   2.283   3.558
 3951TIP3   OH211793   6.099   0.231   0.782
 3951TIP3    H111794   6.138   0.221   0.695
 3951TIP3    H211795   6.161   0.287   0.829
 3952TIP3   OH211796   0.749   6.170   2.363
 3952TIP3    H111797   0.770   6.260   2.388
 3952TIP3    H211798   0.779   6.116   2.436
 3953TIP3   OH211799   7.376   4.229   2.573
 3953TIP3    H111800   7.435   4.290   2.616
 3953TIP3    H211801   7.423   4.201   2.494
 3954TIP3   OH211802   2.141   6.253   2.982
 3954TIP3    H111803   2.167   6.225   3.069
 3954TIP3    H211804   2.202   6.209   2.923
 3955TIP3   OH211805   6.766   3.614   4.533
 3955TIP3    H111806   6.834   3.558   4.496
 3955TIP3    H211807   6.696   3.554   4.558
 3956TIP3   OH211808   5.319   7.315   5.408
 3956TIP3    H111809   5.307   7.384   5.473
 3956TIP3    H211810   5.272   7.346   5.330
 3957TIP3   OH211811   5.247   2.692   4.377
 3957TIP3    H111812   5.245   2.661   4.287
 3957TIP3    H211813   5.234   2.614   4.430
 3958TIP3   OH211814   3.732   2.593   5.757
 3958TIP3    H111815   3.766   2.571   5.844
 3958TIP3    H211816   3.689   2.513   5.728
 3959TIP3   OH211817   3.960   6.016   4.054
 3959TIP3    H111818   3.872   6.054   4.054
 3959TIP3    H211819   3.999   6.047   3.972
 3960TIP3   OH211820   0.272   1.098   2.791
 3960TIP3    H111821   0.366   1.107   2.773
 3960TIP3    H211822   0.230   1.154   2.727
 3961TIP3   OH211823   0.139   5.633   5.227
 3961TIP3    H111824   0.124   5.594   5.313
 3961TIP3    H211825   0.216   5.587   5.193
 3962TIP3   OH211826   1.704   4.411   2.966
 3962TIP3    H111827   1.790   4.374   2.946
 3962TIP3    H211828   1.642   4.340   2.951
 3963TIP3   OH211829   2.817   5.839   5.791
 3963TIP3    H111830   2.811   5.921   5.840
 3963TIP3    H211831   2.741   5.839   5.734
 3964TIP3   OH211832   0.685   1.319   0.120
 3964TIP3    H111833   0.634   1.399   0.133
 3964TIP3    H211834   0.749   1.319   0.191
 3965TIP3   OH211835   3.816   1.481   6.414
 3965TIP3    H111836   3.784   1.425   6.485
 3965TIP3    H211837   3.738   1.525   6.381
 3966TIP3   OH211838   4.032   5.873   2.591
 3966TIP3    H111839   4.074   5.867   2.505
 3966TIP3    H211840   3.948   5.916   2.574
 3967TIP3   OH211841   4.398   1.301   3.520
 3967TIP3    H111842   4.367   1.278   3.432
 3967TIP3    H211843   4.460   1.232   3.543
 3968TIP3   OH211844   2.397   6.086   6.026
 3968TIP3    H111845   2.451   6.030   5.970
 3968TIP3    H211846   2.328   6.028   6.058
 3969TIP3   OH211847   3.431   5.388   3.380
 3969TIP3    H111848   3.479   5.426   3.453
 3969TIP3    H211849   3.453   5.443   3.305
 3970TIP3   OH211850   6.679   2.680   4.648
 3970TIP3    H111851   6.769   2.650   4.637
 3970TIP3    H211852   6.631   2.601   4.676
 3971TIP3   OH211853   6.565   6.037   1.897
 3971TIP3    H111854   6.513   6.058   1.974
 3971TIP3    H211855   6.502   5.999   1.835
 3972TIP3   OH211856   2.979   6.910   6.287
 3972TIP3    H111857   2.948   6.985   6.236
 3972TIP3    H211858   2.978   6.941   6.377
 3973TIP3   OH211859   4.668   6.072   4.042
 3973TIP3    H111860   4.578   6.093   4.015
 3973TIP3    H211861   4.720   6.084   3.962
 3974TIP3   OH211862   7.112   7.281   6.439
 3974TIP3    H111863   7.143   7.214   6.500
 3974TIP3    H211864   7.035   7.242   6.398
 3975TIP3   OH211865   5.789   6.053   0.252
 3975TIP3    H111866   5.846   6.129   0.244
 3975TIP3    H211867   5.731   6.058   0.175
 3976TIP3   OH211868   7.237   3.846   3.995
 3976TIP3    H111869   7.262   3.864   3.905
 3976TIP3    H211870   7.296   3.900   4.048
 3977TIP3   OH211871   5.352   2.881   3.779
 3977TIP3    H111872   5.389   2.969   3.772
 3977TIP3    H211873   5.427   2.823   3.775
 3978TIP3   OH211874   6.134   4.065   5.367
 3978TIP3    H111875   6.058   4.108   5.406
 3978TIP3    H211876   6.112   4.056   5.274
 3979TIP3   OH211877   1.018   3.911   0.706
 3979TIP3    H111878   0.952   3.900   0.638
 3979TIP3    H211879   0.997   3.995   0.747
 3980TIP3   OH211880   6.552   4.115   3.226
 3980TIP3    H111881   6.588   4.178   3.164
 3980TIP3    H211882   6.626   4.062   3.253
 3981TIP3   OH211883   7.012   1.556   3.460
 3981TIP3    H111884   6.951   1.579   3.530
 3981TIP3    H211885   6.975   1.596   3.382
 3982TIP3   OH211886   2.565   7.568   3.695
 3982TIP3    H111887   2.482   7.591   3.736
 3982TIP3    H211888   2.605   7.506   3.757
 3983TIP3   OH211889   6.601   4.716   3.561
 3983TIP3    H111890   6.575   4.652   3.495
 3983TIP3    H211891   6.680   4.756   3.526
 3984TIP3   OH211892   0.829   5.068   6.794
 3984TIP3    H111893   0.791   5.154   6.805
 3984TIP3    H211894   0.866   5.070   6.705
 3985TIP3   OH211895   5.793   2.755   3.305
 3985TIP3    H111896   5.765   2.793   3.222
 3985TIP3    H211897   5.733   2.792   3.369
 3986TIP3   OH211898   0.030   4.448   1.568
 3986TIP3    H111899   0.026   4.542   1.583
 3986TIP3    H211900  -0.024   4.434   1.490
 3987TIP3   OH211901   4.265   5.478   2.765
 3987TIP3    H111902   4.176   5.508   2.747
 3987TIP3    H211903   4.313   5.558   2.788
 3988TIP3   OH211904   0.144   3.652   2.590
 3988TIP3    H111905   0.197   3.731   2.600
 3988TIP3    H211906   0.062   3.683   2.553
 3989TIP3   OH211907   0.470   5.372   0.036
 3989TIP3    H111908   0.535   5.427  -0.008
 3989TIP3    H211909   0.485   5.387   0.129
 3990TIP3   OH211910   4.494   1.839   5.803
 3990TIP3    H111911   4.551   1.781   5.752
 3990TIP3    H211912   4.424   1.782   5.834
 3991TIP3   OH211913   5.724   7.068   1.908
 3991TIP3    H111914   5.751   6.986   1.866
 3991TIP3    H211915   5.691   7.041   1.993
 3992TIP3   OH211916   7.631   4.074   0.977
 3992TIP3    H111917   7.692   4.091   0.905
 3992TIP3    H211918   7.652   3.985   1.005
 3993TIP3   OH211919   7.512   3.502   2.993
 3993TIP3    H111920   7.567   3.451   3.051
 3993TIP3    H211921   7.548   3.591   2.997
 3994TIP3   OH211922   6.794   2.755   2.946
 3994TIP3    H111923   6.752   2.687   3.000
 3994TIP3    H211924   6.722   2.812   2.920
 3995TIP3   OH211925   2.966   5.698   4.487
 3995TIP3    H111926   3.021   5.634   4.534
 3995TIP3    H211927   3.005   5.703   4.400
 3996TIP3   OH211928   2.797   1.616   5.067
 3996TIP3    H111929   2.816   1.545   5.128
 3996TIP3    H211930   2.808   1.696   5.119
 3997TIP3   OH211931   1.238   5.849   1.559
 3997TIP3    H111932   1.297   5.804   1.500
 3997TIP3    H211933   1.190   5.779   1.604
 3998TIP3   OH211934   5.776   1.204   4.964
 3998TIP3    H111935   5.858   1.248   4.940
 3998TIP3    H211936   5.718   1.276   4.991
 3999TIP3   OH211937   7.736   2.057   6.260
 3999TIP3    H111938   7.800   1.997   6.298
 3999TIP3    H211939   7.788   2.130   6.227
 4000TIP3   OH211940   1.466   0.234   2.498
 4000TIP3    H111941   1.424   0.181   2.431
 4000TIP3    H211942   1.558   0.241   2.469
 4001TIP3   OH211943   5.176   5.833   4.766
 4001TIP3    H111944   5.225   5.803   4.844
 4001TIP3    H211945   5.244   5.845   4.699
 4002TIP3   OH211946   7.359   5.691   2.619
 4002TIP3    H111947   7.437   5.670   2.672
 4002TIP3    H211948   7.395   5.730   2.539
 4003TIP3   OH211949   5.154   5.299   5.969
 4003TIP3    H111950   5.211   5.238   6.016
 4003TIP3    H211951   5.104   5.343   6.037
 4004TIP3   OH211952   1.197   3.931   1.175
 4004TIP3    H111953   1.272   3.875   1.195
 4004TIP3    H211954   1.213   4.012   1.224
 4005TIP3   OH211955   6.574   5.669   5.937
 4005TIP3    H111956   6.640   5.625   5.990
 4005TIP3    H211957   6.534   5.733   5.997
 4006TIP3   OH211958   0.832   7.248   1.062
 4006TIP3    H111959   0.914   7.253   1.112
 4006TIP3    H211960   0.838   7.320   0.999
 4007TIP3   OH211961   5.260   6.861   5.315
 4007TIP3    H111962   5.278   6.844   5.222
 4007TIP3    H211963   5.224   6.779   5.348
 4008TIP3   OH211964   0.109   4.752   2.898
 4008TIP3    H111965   0.059   4.834   2.904
 4008TIP3    H211966   0.148   4.741   2.984
 4009TIP3   OH211967   5.859   5.214   1.898
 4009TIP3    H111968   5.842   5.300   1.859
 4009TIP3    H211969   5.867   5.232   1.992
 4010TIP3   OH211970   2.356   1.860   1.219
 4010TIP3    H111971   2.418   1.898   1.156
 4010TIP3    H211972   2.298   1.933   1.242
 4011TIP3   OH211973   3.671   0.705   1.544
 4011TIP3    H111974   3.623   0.787   1.531
 4011TIP3    H211975   3.760   0.732   1.567
 4012TIP3   OH211976   5.895   4.594   1.568
 4012TIP3    H111977   5.912   4.593   1.662
 4012TIP3    H211978   5.817   4.649   1.559
 4013TIP3   OH211979   1.546   2.371   1.335
 4013TIP3    H111980   1.606   2.331   1.271
 4013TIP3    H211981   1.526   2.457   1.297
 4014TIP3   OH211982   5.001   0.707   3.846
 4014TIP3    H111983   5.093   0.686   3.860
 4014TIP3    H211984   4.998   0.803   3.845
 4015TIP3   OH211985   2.137   4.051   6.042
 4015TIP3    H111986   2.160   4.125   5.985
 4015TIP3    H211987   2.143   3.974   5.985
 4016TIP3   OH211988   8.310   3.930   3.001
 4016TIP3    H111989   8.361   3.859   3.040
 4016TIP3    H211990   8.376   3.988   2.962
 4017TIP3   OH211991   0.340   5.780   4.896
 4017TIP3    H111992   0.269   5.721   4.922
 4017TIP3    H211993   0.309   5.867   4.922
 4018TIP3   OH211994   1.702   0.881   5.654
 4018TIP3    H111995   1.664   0.794   5.661
 4018TIP3    H211996   1.792   0.866   5.626
 4019TIP3   OH211997   4.817   2.330   1.890
 4019TIP3    H111998   4.853   2.250   1.853
 4019TIP3    H211999   4.834   2.323   1.984
 4020TIP3   OH212000   0.817   1.272   3.861
 4020TIP3    H112001   0.729   1.236   3.871
 4020TIP3    H212002   0.836   1.264   3.768
 4021TIP3   OH212003   7.201   2.631   1.832
 4021TIP3    H112004   7.157   2.579   1.899
 4021TIP3    H212005   7.228   2.711   1.878
 4022TIP3   OH212006   1.859   7.423   6.325
 4022TIP3    H112007   1.884   7.352   6.265
 4022TIP3    H212008   1.935   7.480   6.327
 4023TIP3   OH212009   7.389   7.375   0.868
 4023TIP3    H112010   7.330   7.306   0.838
 4023TIP3    H212011   7.415   7.348   0.956
 4024TIP3   OH212012   7.298   0.205   3.774
 4024TIP3    H112013   7.369   0.160   3.820
 4024TIP3    H212014   7.319   0.195   3.681
 4025TIP3   OH212015   6.965   2.935   4.712
 4025TIP3    H112016   6.895   2.986   4.670
 4025TIP3    H212017   6.973   2.972   4.800
 4026TIP3   OH212018   0.620   2.065   1.556
 4026TIP3    H112019   0.533   2.044   1.523
 4026TIP3    H212020   0.626   2.018   1.640
 4027TIP3   OH212021   7.374   0.664   3.422
 4027TIP3    H112022   7.345   0.600   3.486
 4027TIP3    H212023   7.332   0.746   3.448
 4028TIP3   OH212024   2.126   0.681   2.995
 4028TIP3    H112025   2.161   0.748   2.936
 4028TIP3    H212026   2.201   0.624   3.014
 4029TIP3   OH212027   4.291   5.698   1.733
 4029TIP3    H112028   4.369   5.695   1.788
 4029TIP3    H212029   4.255   5.610   1.737
 4030TIP3   OH212030   2.629   1.193   1.585
 4030TIP3    H112031   2.541   1.171   1.556
 4030TIP3    H212032   2.648   1.131   1.656
 4031TIP3   OH212033   0.994   2.298   1.425
 4031TIP3    H112034   1.087   2.301   1.448
 4031TIP3    H212035   0.954   2.367   1.477
 4032TIP3   OH212036   5.291   3.099   4.835
 4032TIP3    H112037   5.317   3.085   4.744
 4032TIP3    H212038   5.210   3.149   4.830
 4033TIP3   OH212039   4.711   0.151   0.640
 4033TIP3    H112040   4.687   0.060   0.625
 4033TIP3    H212041   4.730   0.185   0.553
 4034TIP3   OH212042   5.152   7.828   3.846
 4034TIP3    H112043   5.099   7.749   3.857
 4034TIP3    H212044   5.088   7.898   3.833
 4035TIP3   OH212045   8.245   5.693   5.630
 4035TIP3    H112046   8.166   5.655   5.589
 4035TIP3    H212047   8.296   5.617   5.657
 4036TIP3   OH212048   6.361   5.514   5.837
 4036TIP3    H112049   6.436   5.545   5.887
 4036TIP3    H212050   6.378   5.421   5.823
 4037TIP3   OH212051   0.750   4.670   5.776
 4037TIP3    H112052   0.736   4.658   5.870
 4037TIP3    H212053   0.842   4.695   5.768
 4038TIP3   OH212054   8.078   6.141   3.581
 4038TIP3    H112055   8.013   6.095   3.529
 4038TIP3    H212056   8.069   6.233   3.556
 4039TIP3   OH212057   1.171   2.174   3.187
 4039TIP3    H112058   1.117   2.095   3.176
 4039TIP3    H212059   1.239   2.166   3.120
 4040TIP3   OH212060   6.441  -0.024   6.580
 4040TIP3    H112061   6.367   0.024   6.617
 4040TIP3    H212062   6.495   0.043   6.540
 4041TIP3   OH212063   2.265   7.382   2.412
 4041TIP3    H112064   2.322   7.344   2.345
 4041TIP3    H212065   2.235   7.307   2.463
 4042TIP3   OH212066   6.346   5.708   0.401
 4042TIP3    H112067   6.284   5.765   0.356
 4042TIP3    H212068   6.409   5.683   0.333
 4043TIP3   OH212069   1.962   6.944   2.120
 4043TIP3    H112070   2.038   6.885   2.118
 4043TIP3    H212071   1.913   6.923   2.040
 4044TIP3   OH212072   1.454   3.522   5.268
 4044TIP3    H112073   1.406   3.499   5.348
 4044TIP3    H212074   1.542   3.542   5.298
 4045TIP3   OH212075   4.399   7.765   0.420
 4045TIP3    H112076   4.373   7.843   0.370
 4045TIP3    H212077   4.366   7.781   0.508
 4046TIP3   OH212078   5.788   7.624   5.045
 4046TIP3    H112079   5.700   7.621   5.007
 4046TIP3    H212080   5.815   7.532   5.049
 4047TIP3   OH212081   6.883   3.655   2.074
 4047TIP3    H112082   6.847   3.573   2.042
 4047TIP3    H212083   6.806   3.709   2.094
 4048TIP3   OH212084   0.489   5.201   6.672
 4048TIP3    H112085   0.502   5.263   6.600
 4048TIP3    H212086   0.548   5.128   6.652
 4049TIP3   OH212087   2.510   1.978   3.996
 4049TIP3    H112088   2.553   1.928   4.065
 4049TIP3    H212089   2.529   1.930   3.916
 4050TIP3   OH212090   0.941   2.619   5.272
 4050TIP3    H112091   0.965   2.668   5.350
 4050TIP3    H212092   1.012   2.635   5.210
 4051TIP3   OH212093   0.778   1.105   0.902
 4051TIP3    H112094   0.823   1.155   0.970
 4051TIP3    H212095   0.705   1.063   0.948
 4052TIP3   OH212096   8.087   6.039   3.849
 4052TIP3    H112097   8.073   6.079   3.764
 4052TIP3    H212098   8.147   6.098   3.894
 4053TIP3   OH212099   7.736   5.723   3.438
 4053TIP3    H112100   7.756   5.658   3.370
 4053TIP3    H212101   7.641   5.736   3.433
 4054TIP3   OH212102   6.006   6.848   6.172
 4054TIP3    H112103   5.920   6.835   6.133
 4054TIP3    H212104   6.056   6.893   6.105
 4055TIP3   OH212105   4.852   2.243   3.807
 4055TIP3    H112106   4.932   2.266   3.854
 4055TIP3    H212107   4.793   2.211   3.875
 4056TIP3   OH212108   5.389   3.476   0.110
 4056TIP3    H112109   5.335   3.437   0.179
 4056TIP3    H212110   5.328   3.492   0.038
 4057TIP3   OH212111   1.140   2.981   4.953
 4057TIP3    H112112   1.213   2.984   5.016
 4057TIP3    H212113   1.141   3.067   4.911
 4058TIP3   OH212114   0.061   1.229   5.724
 4058TIP3    H112115   0.027   1.157   5.779
 4058TIP3    H212116   0.116   1.185   5.659
 4059TIP3   OH212117   3.563   5.870   2.017
 4059TIP3    H112118   3.630   5.806   1.991
 4059TIP3    H212119   3.510   5.824   2.082
 4060TIP3   OH212120   2.567   3.866   4.750
 4060TIP3    H112121   2.479   3.828   4.745
 4060TIP3    H212122   2.554   3.952   4.790
 4061TIP3   OH212123   1.300   1.870   3.312
 4061TIP3    H112124   1.297   1.886   3.218
 4061TIP3    H212125   1.369   1.928   3.344
 4062TIP3   OH212126   2.101   2.812   5.882
 4062TIP3    H112127   2.026   2.782   5.831
 4062TIP3    H212128   2.148   2.871   5.823
 4063TIP3   OH212129   1.604   5.669   6.609
 4063TIP3    H112130   1.556   5.645   6.530
 4063TIP3    H212131   1.536   5.675   6.677
 4064TIP3   OH212132   4.381   0.168   3.052
 4064TIP3    H112133   4.409   0.196   3.139
 4064TIP3    H212134   4.375   0.073   3.057
 4065TIP3   OH212135   3.635   2.684   1.999
 4065TIP3    H112136   3.711   2.662   2.053
 4065TIP3    H212137   3.562   2.687   2.060
 4066TIP3   OH212138   0.029   0.921   3.067
 4066TIP3    H112139   0.020   1.006   3.108
 4066TIP3    H212140   0.030   0.939   2.973
 4067TIP3   OH212141   5.703   0.644   2.390
 4067TIP3    H112142   5.771   0.663   2.326
 4067TIP3    H212143   5.627   0.621   2.338
 4068TIP3   OH212144   5.212   2.795   6.037
 4068TIP3    H112145   5.262   2.843   6.103
 4068TIP3    H212146   5.240   2.833   5.954
 4069TIP3   OH212147   4.221   6.156   6.594
 4069TIP3    H112148   4.129   6.163   6.620
 4069TIP3    H212149   4.221   6.094   6.521
 4070TIP3   OH212150   3.873   3.877   0.593
 4070TIP3    H112151   3.830   3.924   0.521
 4070TIP3    H212152   3.918   3.804   0.551
 4071TIP3   OH212153   7.028   0.150   5.134
 4071TIP3    H112154   7.119   0.154   5.161
 4071TIP3    H212155   7.026   0.194   5.049
 4072TIP3   OH212156   4.720   1.602   5.011
 4072TIP3    H112157   4.697   1.521   4.967
 4072TIP3    H212158   4.642   1.626   5.060
 4073TIP3   OH212159   1.717   1.538   1.765
 4073TIP3    H112160   1.811   1.517   1.770
 4073TIP3    H212161   1.677   1.461   1.724
 4074TIP3   OH212162   0.282   0.716   1.188
 4074TIP3    H112163   0.362   0.742   1.234
 4074TIP3    H212164   0.255   0.635   1.231
 4075TIP3   OH212165   4.773   5.237   0.665
 4075TIP3    H112166   4.868   5.229   0.661
 4075TIP3    H212167   4.751   5.214   0.755
 4076TIP3   OH212168   4.272   6.193   0.057
 4076TIP3    H112169   4.240   6.173   0.145
 4076TIP3    H212170   4.199   6.170  -0.001
 4077TIP3   OH212171   1.923   6.142   0.857
 4077TIP3    H112172   1.828   6.152   0.864
 4077TIP3    H212173   1.941   6.056   0.897
 4078TIP3   OH212174   1.139   4.982   4.915
 4078TIP3    H112175   1.171   5.001   4.827
 4078TIP3    H212176   1.130   4.887   4.916
 4079TIP3   OH212177   1.305   3.924   5.328
 4079TIP3    H112178   1.314   3.861   5.257
 4079TIP3    H212179   1.211   3.925   5.348
 4080TIP3   OH212180   5.432   0.643   6.151
 4080TIP3    H112181   5.343   0.667   6.123
 4080TIP3    H212182   5.427   0.644   6.247
 4081TIP3   OH212183   0.496   0.094   4.272
 4081TIP3    H112184   0.576   0.128   4.311
 4081TIP3    H212185   0.511   0.101   4.178
 4082TIP3   OH212186   0.236   3.753   5.716
 4082TIP3    H112187   0.252   3.662   5.692
 4082TIP3    H212188   0.192   3.749   5.800
 4083TIP3   OH212189   8.310   7.251   4.136
 4083TIP3    H112190   8.350   7.337   4.144
 4083TIP3    H212191   8.374   7.200   4.086
 4084TIP3   OH212192   6.116   5.723   2.921
 4084TIP3    H112193   6.034   5.677   2.940
 4084TIP3    H212194   6.183   5.656   2.931
 4085TIP3   OH212195   6.439   3.495   0.425
 4085TIP3    H112196   6.366   3.513   0.366
 4085TIP3    H212197   6.403   3.510   0.513
 4086TIP3   OH212198   0.831   7.661   3.040
 4086TIP3    H112199   0.843   7.569   3.064
 4086TIP3    H212200   0.915   7.702   3.058
 4087TIP3   OH212201   3.742   4.692   5.718
 4087TIP3    H112202   3.691   4.649   5.650
 4087TIP3    H212203   3.726   4.786   5.705
 4088TIP3   OH212204   2.236   4.419   2.832
 4088TIP3    H112205   2.266   4.433   2.922
 4088TIP3    H212206   2.140   4.419   2.839
 4089TIP3   OH212207   5.074   3.399   1.457
 4089TIP3    H112208   5.098   3.446   1.377
 4089TIP3    H212209   5.043   3.467   1.517
 4090TIP3   OH212210   7.584   4.301   5.360
 4090TIP3    H112211   7.528   4.294   5.437
 4090TIP3    H212212   7.651   4.364   5.384
 4091TIP3   OH212213   8.142   5.296   5.594
 4091TIP3    H112214   8.072   5.283   5.658
 4091TIP3    H212215   8.108   5.362   5.534
 4092TIP3   OH212216   0.827   6.422   6.124
 4092TIP3    H112217   0.795   6.341   6.084
 4092TIP3    H212218   0.756   6.449   6.183
 4093TIP3   OH212219   6.898   2.990   5.638
 4093TIP3    H112220   6.884   3.018   5.547
 4093TIP3    H212221   6.982   2.944   5.636
 4094TIP3   OH212222   4.013   6.026   3.601
 4094TIP3    H112223   3.930   5.980   3.593
 4094TIP3    H212224   4.050   5.995   3.684
 4095TIP3   OH212225   2.179   4.649   4.660
 4095TIP3    H112226   2.195   4.712   4.589
 4095TIP3    H212227   2.195   4.699   4.740
 4096TIP3   OH212228   3.495   2.387   5.378
 4096TIP3    H112229   3.446   2.314   5.417
 4096TIP3    H212230   3.558   2.411   5.445
 4097TIP3   OH212231   7.139   6.524   3.688
 4097TIP3    H112232   7.082   6.593   3.722
 4097TIP3    H212233   7.219   6.569   3.663
 4098TIP3   OH212234   7.654   1.429   0.456
 4098TIP3    H112235   7.673   1.347   0.410
 4098TIP3    H212236   7.577   1.409   0.509
 4099TIP3   OH212237   3.792   6.988   6.700
 4099TIP3    H112238   3.760   7.073   6.731
 4099TIP3    H212239   3.773   6.927   6.772
 4100TIP3   OH212240   1.480   6.366   3.468
 4100TIP3    H112241   1.563   6.327   3.494
 4100TIP3    H212242   1.414   6.319   3.520
 4101TIP3   OH212243   5.610   4.328   6.123
 4101TIP3    H112244   5.526   4.374   6.125
 4101TIP3    H212245   5.594   4.252   6.066
 4102TIP3   OH212246   5.971   0.293   0.341
 4102TIP3    H112247   5.977   0.324   0.432
 4102TIP3    H212248   5.970   0.373   0.289
 4103TIP3   OH212249   4.322   7.023   2.936
 4103TIP3    H112250   4.293   6.983   3.018
 4103TIP3    H212251   4.395   7.079   2.961
 4104TIP3   OH212252   6.213   0.015   5.719
 4104TIP3    H112253   6.295   0.058   5.744
 4104TIP3    H212254   6.149   0.049   5.782
 4105TIP3   OH212255   2.089   6.767   0.038
 4105TIP3    H112256   2.007   6.793  -0.005
 4105TIP3    H212257   2.064   6.694   0.095
 4106TIP3   OH212258   7.630   5.325   6.159
 4106TIP3    H112259   7.631   5.248   6.215
 4106TIP3    H212260   7.537   5.340   6.140
 4107TIP3   OH212261   3.391   1.209   5.757
 4107TIP3    H112262   3.369   1.119   5.731
 4107TIP3    H212263   3.324   1.231   5.822
 4108TIP3   OH212264   0.279   1.761   3.845
 4108TIP3    H112265   0.243   1.837   3.798
 4108TIP3    H212266   0.216   1.745   3.915
 4109TIP3   OH212267   4.324   0.083   1.774
 4109TIP3    H112268   4.276   0.122   1.847
 4109TIP3    H212269   4.266   0.015   1.741
 4110TIP3   OH212270   3.681   2.559   0.469
 4110TIP3    H112271   3.743   2.613   0.420
 4110TIP3    H212272   3.693   2.470   0.434
 4111TIP3   OH212273   4.195   5.161   4.688
 4111TIP3    H112274   4.256   5.153   4.761
 4111TIP3    H212275   4.123   5.214   4.723
 4112TIP3   OH212276   1.878   7.011   0.261
 4112TIP3    H112277   1.798   6.984   0.306
 4112TIP3    H212278   1.949   6.986   0.320
 4113TIP3   OH212279   3.120   4.751   6.345
 4113TIP3    H112280   3.214   4.758   6.362
 4113TIP3    H212281   3.080   4.810   6.409
 4114TIP3   OH212282   4.671   4.383   5.615
 4114TIP3    H112283   4.735   4.454   5.611
 4114TIP3    H212284   4.619   4.403   5.692
 4115TIP3   OH212285   5.362   4.193   6.515
 4115TIP3    H112286   5.409   4.271   6.544
 4115TIP3    H212287   5.321   4.219   6.433
 4116TIP3   OH212288   3.433   4.082   2.853
 4116TIP3    H112289   3.440   4.161   2.799
 4116TIP3    H212290   3.518   4.040   2.845
 4117TIP3   OH212291   0.395   2.919   0.053
 4117TIP3    H112292   0.362   2.849  -0.004
 4117TIP3    H212293   0.328   2.986   0.049
 4118TIP3   OH212294   0.682   7.401   5.091
 4118TIP3    H112295   0.736   7.410   5.170
 4118TIP3    H212296   0.712   7.472   5.034
 4119TIP3   OH212297   0.656   0.880   4.674
 4119TIP3    H112298   0.746   0.868   4.643
 4119TIP3    H212299   0.603   0.829   4.613
 4120TIP3   OH212300   4.044   0.628   0.112
 4120TIP3    H112301   3.999   0.602   0.032
 4120TIP3    H212302   4.059   0.546   0.159
 4121TIP3   OH212303   4.884   7.651   1.308
 4121TIP3    H112304   4.894   7.560   1.335
 4121TIP3    H212305   4.792   7.658   1.281
 4122TIP3   OH212306   4.371   7.191   2.557
 4122TIP3    H112307   4.281   7.184   2.524
 4122TIP3    H212308   4.398   7.280   2.534
 4123TIP3   OH212309   1.331   3.512   3.684
 4123TIP3    H112310   1.235   3.513   3.682
 4123TIP3    H212311   1.354   3.441   3.743
 4124TIP3   OH212312   1.625   1.053   2.660
 4124TIP3    H112313   1.601   1.051   2.567
 4124TIP3    H212314   1.700   1.112   2.663
 4125TIP3   OH212315   5.421   2.681   0.101
 4125TIP3    H112316   5.465   2.610   0.054
 4125TIP3    H212317   5.485   2.752   0.102
 4126TIP3   OH212318   4.463   7.154   1.507
 4126TIP3    H112319   4.400   7.221   1.482
 4126TIP3    H212320   4.467   7.159   1.602
 4127TIP3   OH212321   1.326   1.092   5.231
 4127TIP3    H112322   1.330   1.115   5.324
 4127TIP3    H212323   1.290   1.170   5.189
 4128TIP3   OH212324   2.063   7.269   3.166
 4128TIP3    H112325   2.096   7.358   3.179
 4128TIP3    H212326   1.970   7.275   3.187
 4129TIP3   OH212327   5.006   5.131   1.177
 4129TIP3    H112328   4.942   5.061   1.191
 4129TIP3    H212329   5.087   5.085   1.154
 4130TIP3   OH212330   8.360   6.972   6.692
 4130TIP3    H112331   8.380   6.879   6.678
 4130TIP3    H212332   8.441   7.018   6.671
 4131TIP3   OH212333   7.469   2.598   5.459
 4131TIP3    H112334   7.516   2.548   5.393
 4131TIP3    H212335   7.421   2.532   5.509
 4132TIP3   OH212336   7.543   0.020   6.567
 4132TIP3    H112337   7.474   0.080   6.596
 4132TIP3    H212338   7.584   0.064   6.492
 4133TIP3   OH212339   3.047   7.015   1.071
 4133TIP3    H112340   3.030   7.109   1.067
 4133TIP3    H212341   3.080   7.001   1.160
 4134TIP3   OH212342   2.173   3.468   5.526
 4134TIP3    H112343   2.230   3.391   5.528
 4134TIP3    H212344   2.115   3.457   5.602
 4135TIP3   OH212345   3.141   1.501   1.159
 4135TIP3    H112346   3.057   1.463   1.184
 4135TIP3    H212347   3.158   1.567   1.226
 4136TIP3   OH212348   2.645   2.433   5.206
 4136TIP3    H112349   2.675   2.521   5.186
 4136TIP3    H212350   2.594   2.442   5.286
 4137TIP3   OH212351   7.523   4.217   5.100
 4137TIP3    H112352   7.530   4.305   5.063
 4137TIP3    H212353   7.528   4.230   5.195
 4138TIP3   OH212354   0.074   3.140   1.034
 4138TIP3    H112355   0.139   3.071   1.021
 4138TIP3    H212356   0.082   3.195   0.957
 4139TIP3   OH212357   6.724   1.237   1.309
 4139TIP3    H112358   6.819   1.228   1.309
 4139TIP3    H212359   6.698   1.223   1.401
 4140TIP3   OH212360   4.874   3.542   0.218
 4140TIP3    H112361   4.852   3.609   0.283
 4140TIP3    H212362   4.859   3.584   0.133
 4141TIP3   OH212363   4.019   1.795   1.280
 4141TIP3    H112364   4.065   1.733   1.224
 4141TIP3    H212365   4.004   1.747   1.362
 4142TIP3   OH212366   3.025   0.307   2.111
 4142TIP3    H112367   3.055   0.360   2.037
 4142TIP3    H212368   3.008   0.220   2.073
 4143TIP3   OH212369   0.442   0.346   0.805
 4143TIP3    H112370   0.393   0.298   0.871
 4143TIP3    H212371   0.439   0.290   0.727
 4144TIP3   OH212372   6.807   2.000   0.446
 4144TIP3    H112373   6.791   1.906   0.439
 4144TIP3    H212374   6.807   2.032   0.356
 4145TIP3   OH212375   3.737   3.588   3.461
 4145TIP3    H112376   3.728   3.539   3.379
 4145TIP3    H212377   3.749   3.679   3.433
 4146TIP3   OH212378   4.575   5.501   3.892
 4146TIP3    H112379   4.481   5.499   3.912
 4146TIP3    H212380   4.618   5.489   3.977
 4147TIP3   OH212381   8.108   3.985   1.876
 4147TIP3    H112382   8.054   4.012   1.801
 4147TIP3    H212383   8.179   3.934   1.836
 4148TIP3   OH212384   6.431   4.703   4.026
 4148TIP3    H112385   6.467   4.675   3.942
 4148TIP3    H212386   6.361   4.764   4.003
 4149TIP3   OH212387   0.454   7.544   1.316
 4149TIP3    H112388   0.492   7.631   1.321
 4149TIP3    H212389   0.530   7.485   1.312
 4150TIP3   OH212390   1.085   0.062   0.563
 4150TIP3    H112391   1.166   0.100   0.597
 4150TIP3    H212392   1.113  -0.001   0.498
 4151TIP3   OH212393   0.202   5.911   6.166
 4151TIP3    H112394   0.173   5.845   6.103
 4151TIP3    H212395   0.136   5.908   6.236
 4152TIP3   OH212396   7.574   1.377   3.322
 4152TIP3    H112397   7.504   1.339   3.374
 4152TIP3    H212398   7.614   1.443   3.379
 4153TIP3   OH212399   0.394   2.387   1.470
 4153TIP3    H112400   0.440   2.471   1.468
 4153TIP3    H212401   0.419   2.345   1.387
 4154TIP3   OH212402   4.611   6.239   4.439
 4154TIP3    H112403   4.655   6.289   4.371
 4154TIP3    H212404   4.569   6.166   4.392
 4155TIP3   OH212405   2.230   5.545   2.882
 4155TIP3    H112406   2.307   5.502   2.919
 4155TIP3    H212407   2.228   5.632   2.922
 4156TIP3   OH212408   7.451   3.667   3.409
 4156TIP3    H112409   7.483   3.754   3.386
 4156TIP3    H212410   7.408   3.636   3.330
 4157TIP3   OH212411   8.173   4.742   4.468
 4157TIP3    H112412   8.085   4.707   4.459
 4157TIP3    H212413   8.180   4.769   4.559
 4158TIP3   OH212414   5.918   0.964   4.717
 4158TIP3    H112415   5.906   1.057   4.699
 4158TIP3    H212416   6.010   0.947   4.698
 4159TIP3   OH212417   2.639   5.905   3.217
 4159TIP3    H112418   2.732   5.918   3.236
 4159TIP3    H212419   2.637   5.881   3.124
 4160TIP3   OH212420   2.161   0.042   2.411
 4160TIP3    H112421   2.244   0.010   2.447
 4160TIP3    H212422   2.111   0.071   2.487
 4161TIP3   OH212423   1.776   6.976   5.499
 4161TIP3    H112424   1.859   6.938   5.471
 4161TIP3    H212425   1.738   7.013   5.420
 4162TIP3   OH212426   3.203   1.273   1.446
 4162TIP3    H112427   3.243   1.332   1.382
 4162TIP3    H212428   3.121   1.315   1.470
 4163TIP3   OH212429   1.569   7.301   3.284
 4163TIP3    H112430   1.572   7.239   3.211
 4163TIP3    H212431   1.658   7.301   3.320
 4164TIP3   OH212432   3.303   4.119   6.478
 4164TIP3    H112433   3.284   4.201   6.523
 4164TIP3    H212434   3.249   4.054   6.522
 4165TIP3   OH212435   5.623   7.384   0.590
 4165TIP3    H112436   5.715   7.393   0.564
 4165TIP3    H212437   5.590   7.313   0.536
 4166TIP3   OH212438   1.033   4.091   6.807
 4166TIP3    H112439   1.089   4.060   6.878
 4166TIP3    H212440   1.089   4.149   6.756
 4167TIP3   OH212441   0.643   2.746   1.431
 4167TIP3    H112442   0.728   2.789   1.440
 4167TIP3    H212443   0.656   2.679   1.364
 4168TIP3   OH212444   4.738   0.249   6.760
 4168TIP3    H112445   4.758   0.311   6.690
 4168TIP3    H212446   4.673   0.294   6.814
 4169TIP3   OH212447   1.018   3.026   2.490
 4169TIP3    H112448   1.054   3.100   2.538
 4169TIP3    H212449   1.060   2.949   2.528
 4170TIP3   OH212450   5.147   7.739   1.328
 4170TIP3    H112451   5.137   7.829   1.296
 4170TIP3    H212452   5.060   7.701   1.318
 4171TIP3   OH212453   0.930   5.638   6.159
 4171TIP3    H112454   0.892   5.551   6.174
 4171TIP3    H212455   0.976   5.629   6.075
 4172TIP3   OH212456   1.843   5.025   4.869
 4172TIP3    H112457   1.844   4.931   4.850
 4172TIP3    H212458   1.797   5.064   4.795
 4173TIP3   OH212459   7.412   2.088   5.647
 4173TIP3    H112460   7.389   2.181   5.651
 4173TIP3    H212461   7.502   2.087   5.616
 4174TIP3   OH212462   1.758   6.241   4.752
 4174TIP3    H112463   1.792   6.151   4.753
 4174TIP3    H212464   1.828   6.293   4.712
 4175TIP3   OH212465   2.789   1.306   0.803
 4175TIP3    H112466   2.861   1.298   0.741
 4175TIP3    H212467   2.830   1.295   0.889
 4176TIP3   OH212468   4.131   3.160   0.437
 4176TIP3    H112469   4.097   3.249   0.447
 4176TIP3    H212470   4.180   3.144   0.517
 4177TIP3   OH212471   2.557   4.411   4.076
 4177TIP3    H112472   2.649   4.399   4.098
 4177TIP3    H212473   2.515   4.328   4.100
 4178TIP3   OH212474   4.545   0.167   1.600
 4178TIP3    H112475   4.466   0.154   1.652
 4178TIP3    H212476   4.582   0.080   1.589
 4179TIP3   OH212477   3.999   0.087   3.541
 4179TIP3    H112478   3.923   0.084   3.600
 4179TIP3    H212479   4.061   0.145   3.585
 4180TIP3   OH212480   0.588   0.603   3.020
 4180TIP3    H112481   0.679   0.588   3.048
 4180TIP3    H212482   0.584   0.567   2.931
 4181TIP3   OH212483   3.060   3.156   6.331
 4181TIP3    H112484   3.104   3.103   6.398
 4181TIP3    H212485   3.128   3.172   6.265
 4182TIP3   OH212486   0.420   3.985   5.131
 4182TIP3    H112487   0.371   4.003   5.051
 4182TIP3    H212488   0.399   3.894   5.151
 4183TIP3   OH212489   0.964   1.753   2.256
 4183TIP3    H112490   1.023   1.776   2.328
 4183TIP3    H212491   0.980   1.660   2.240
 4184TIP3   OH212492   2.639   2.486   3.358
 4184TIP3    H112493   2.587   2.468   3.436
 4184TIP3    H212494   2.728   2.460   3.380
 4185TIP3   OH212495   7.273   5.316   1.620
 4185TIP3    H112496   7.307   5.354   1.701
 4185TIP3    H212497   7.202   5.375   1.594
 4186TIP3   OH212498   1.796   3.005   2.421
 4186TIP3    H112499   1.763   3.089   2.388
 4186TIP3    H212500   1.864   3.029   2.484
 4187TIP3   OH212501   5.474   2.670   6.435
 4187TIP3    H112502   5.406   2.604   6.424
 4187TIP3    H212503   5.556   2.623   6.417
 4188TIP3   OH212504   7.367   6.121   3.032
 4188TIP3    H112505   7.414   6.205   3.037
 4188TIP3    H212506   7.275   6.146   3.022
 4189TIP3   OH212507   0.986   6.757   5.735
 4189TIP3    H112508   1.033   6.841   5.733
 4189TIP3    H212509   0.962   6.741   5.644
 4190TIP3   OH212510   6.830   5.681   2.558
 4190TIP3    H112511   6.898   5.745   2.576
 4190TIP3    H212512   6.805   5.647   2.644
 4191TIP3   OH212513   2.776   6.960   1.134
 4191TIP3    H112514   2.792   7.054   1.143
 4191TIP3    H212515   2.712   6.954   1.062
 4192TIP3   OH212516   5.248   6.245   6.311
 4192TIP3    H112517   5.156   6.267   6.327
 4192TIP3    H212518   5.274   6.302   6.239
 4193TIP3   OH212519   1.112   4.556   3.967
 4193TIP3    H112520   1.139   4.483   4.022
 4193TIP3    H212521   1.189   4.613   3.962
 4194TIP3   OH212522   6.033   3.082   0.153
 4194TIP3    H112523   6.127   3.066   0.147
 4194TIP3    H212524   6.023   3.177   0.147
 4195TIP3   OH212525   6.844   5.404   4.507
 4195TIP3    H112526   6.802   5.318   4.505
 4195TIP3    H212527   6.789   5.459   4.452
 4196TIP3   OH212528   0.985   3.957   3.137
 4196TIP3    H112529   0.939   3.945   3.221
 4196TIP3    H212530   1.058   3.895   3.141
 4197TIP3   OH212531   8.027   3.404   1.418
 4197TIP3    H112532   8.053   3.376   1.330
 4197TIP3    H212533   8.029   3.499   1.414
 4198TIP3   OH212534   5.447   3.917   3.718
 4198TIP3    H112535   5.387   3.864   3.667
 4198TIP3    H212536   5.511   3.950   3.654
 4199TIP3   OH212537   6.590   1.742   3.827
 4199TIP3    H112538   6.645   1.674   3.788
 4199TIP3    H212539   6.596   1.816   3.767
 4200TIP3   OH212540   3.313   6.231   1.829
 4200TIP3    H112541   3.352   6.281   1.901
 4200TIP3    H212542   3.250   6.173   1.871
 4201TIP3   OH212543   0.767   4.743   4.788
 4201TIP3    H112544   0.681   4.734   4.828
 4201TIP3    H212545   0.769   4.833   4.755
 4202TIP3   OH212546   0.418   5.938   2.110
 4202TIP3    H112547   0.399   5.903   2.023
 4202TIP3    H212548   0.379   5.876   2.171
 4203TIP3   OH212549   4.014   3.808   1.157
 4203TIP3    H112550   3.965   3.861   1.220
 4203TIP3    H212551   4.075   3.869   1.117
 4204TIP3   OH212552   2.788   3.994   0.691
 4204TIP3    H112553   2.858   4.038   0.643
 4204TIP3    H212554   2.831   3.958   0.768
 4205TIP3   OH212555   7.302   0.365   1.630
 4205TIP3    H112556   7.302   0.457   1.657
 4205TIP3    H212557   7.381   0.355   1.578
 4206TIP3   OH212558   2.276   5.514   3.407
 4206TIP3    H112559   2.214   5.467   3.350
 4206TIP3    H212560   2.317   5.578   3.350
 4207TIP3   OH212561   4.635   6.535   2.417
 4207TIP3    H112562   4.683   6.494   2.489
 4207TIP3    H212563   4.694   6.603   2.385
 4208TIP3   OH212564   3.035   3.870   1.974
 4208TIP3    H112565   3.059   3.850   2.064
 4208TIP3    H212566   3.089   3.812   1.920
 4209TIP3   OH212567   2.348   5.317   1.857
 4209TIP3    H112568   2.261   5.276   1.850
 4209TIP3    H212569   2.359   5.331   1.951
 4210TIP3   OH212570   7.685   4.942   5.032
 4210TIP3    H112571   7.693   4.920   4.940
 4210TIP3    H212572   7.693   4.858   5.078
 4211TIP3   OH212573   1.810   0.699   5.262
 4211TIP3    H112574   1.803   0.624   5.204
 4211TIP3    H212575   1.720   0.728   5.275
 4212TIP3   OH212576   4.029   4.386   1.046
 4212TIP3    H112577   4.072   4.451   1.103
 4212TIP3    H212578   4.101   4.333   1.012
 4213TIP3   OH212579   2.474   1.655   5.680
 4213TIP3    H112580   2.435   1.572   5.652
 4213TIP3    H212581   2.430   1.676   5.762
 4214TIP3   OH212582   0.481   3.051   3.659
 4214TIP3    H112583   0.489   2.978   3.720
 4214TIP3    H212584   0.508   3.128   3.710
 4215TIP3   OH212585   0.431   7.420   6.403
 4215TIP3    H112586   0.353   7.376   6.437
 4215TIP3    H212587   0.400   7.508   6.380
 4216TIP3   OH212588   7.921   1.813   2.894
 4216TIP3    H112589   7.828   1.810   2.874
 4216TIP3    H212590   7.939   1.729   2.937
 4217TIP3   OH212591   4.996   7.545   0.274
 4217TIP3    H112592   4.901   7.540   0.262
 4217TIP3    H212593   5.023   7.454   0.289
 4218TIP3   OH212594   4.401   5.202   3.372
 4218TIP3    H112595   4.344   5.278   3.387
 4218TIP3    H212596   4.442   5.186   3.457
 4219TIP3   OH212597   6.102   1.874   3.976
 4219TIP3    H112598   6.080   1.956   3.932
 4219TIP3    H212599   6.126   1.900   4.065
 4220TIP3   OH212600   4.865   5.275   4.956
 4220TIP3    H112601   4.931   5.241   5.016
 4220TIP3    H212602   4.886   5.367   4.947
 4221TIP3   OH212603   2.771   7.526   6.682
 4221TIP3    H112604   2.815   7.543   6.766
 4221TIP3    H212605   2.840   7.539   6.616
 4222TIP3   OH212606   2.410   5.803   0.648
 4222TIP3    H112607   2.434   5.866   0.580
 4222TIP3    H212608   2.370   5.855   0.717
 4223TIP3   OH212609   3.539   5.227   5.365
 4223TIP3    H112610   3.607   5.169   5.330
 4223TIP3    H212611   3.577   5.261   5.446
 4224TIP3   OH212612   1.783   7.288   3.033
 4224TIP3    H112613   1.741   7.205   3.055
 4224TIP3    H212614   1.805   7.327   3.118
 4225TIP3   OH212615   3.620   4.908   5.271
 4225TIP3    H112616   3.595   4.819   5.295
 4225TIP3    H212617   3.695   4.928   5.327
 4226TIP3   OH212618   5.495   5.208   3.645
 4226TIP3    H112619   5.579   5.162   3.649
 4226TIP3    H212620   5.437   5.149   3.597
 4227TIP3   OH212621   2.371   5.531   0.710
 4227TIP3    H112622   2.355   5.624   0.722
 4227TIP3    H212623   2.298   5.488   0.756
 4228TIP3   OH212624   2.061   0.211   0.107
 4228TIP3    H112625   2.111   0.251   0.036
 4228TIP3    H212626   1.970   0.218   0.080
 4229TIP3   OH212627   0.007   1.215   2.154
 4229TIP3    H112628  -0.069   1.249   2.106
 4229TIP3    H212629   0.059   1.170   2.088
 4230TIP3   OH212630   2.383   7.126   3.377
 4230TIP3    H112631   2.374   7.031   3.368
 4230TIP3    H212632   2.307   7.153   3.428
 4231TIP3   OH212633   3.245   4.503   5.907
 4231TIP3    H112634   3.324   4.458   5.937
 4231TIP3    H212635   3.217   4.556   5.981
 4232TIP3   OH212636   5.271   3.431   5.898
 4232TIP3    H112637   5.249   3.525   5.904
 4232TIP3    H212638   5.203   3.394   5.841
 4233TIP3   OH212639   6.321   1.979   1.279
 4233TIP3    H112640   6.293   1.892   1.306
 4233TIP3    H212641   6.412   1.968   1.251
 4234TIP3   OH212642   0.904   3.655   1.311
 4234TIP3    H112643   0.910   3.577   1.366
 4234TIP3    H212644   0.979   3.649   1.252
 4235TIP3   OH212645   7.528   3.084   3.588
 4235TIP3    H112646   7.550   3.047   3.502
 4235TIP3    H212647   7.566   3.024   3.651
 4236TIP3   OH212648   4.580   1.816   0.082
 4236TIP3    H112649   4.525   1.886   0.117
 4236TIP3    H212650   4.668   1.838   0.112
 4237TIP3   OH212651   6.604   3.733   2.031
 4237TIP3    H112652   6.559   3.685   1.962
 4237TIP3    H212653   6.559   3.817   2.035
 4238TIP3   OH212654   7.022   2.234   2.477
 4238TIP3    H112655   7.097   2.272   2.431
 4238TIP3    H212656   6.950   2.241   2.415
 4239TIP3   OH212657   4.588   1.335   5.405
 4239TIP3    H112658   4.679   1.364   5.400
 4239TIP3    H212659   4.588   1.266   5.472
 4240TIP3   OH212660   5.420   3.887   6.819
 4240TIP3    H112661   5.510   3.857   6.810
 4240TIP3    H212662   5.404   3.887   6.913
 4241TIP3   OH212663   2.740   6.363   4.249
 4241TIP3    H112664   2.833   6.353   4.227
 4241TIP3    H212665   2.731   6.322   4.335
 4242TIP3   OH212666   0.231   0.380   2.627
 4242TIP3    H112667   0.276   0.463   2.608
 4242TIP3    H212668   0.283   0.341   2.698
 4243TIP3   OH212669   3.129   1.777   4.436
 4243TIP3    H112670   3.153   1.849   4.494
 4243TIP3    H212671   3.209   1.725   4.427
 4244TIP3   OH212672   7.187   2.056   0.900
 4244TIP3    H112673   7.219   1.998   0.968
 4244TIP3    H212674   7.155   1.998   0.831
 4245TIP3   OH212675   6.561   1.124   6.066
 4245TIP3    H112676   6.576   1.208   6.109
 4245TIP3    H212677   6.647   1.084   6.060
 4246TIP3   OH212678   3.146   1.239   6.728
 4246TIP3    H112679   3.099   1.221   6.646
 4246TIP3    H212680   3.237   1.250   6.701
 4247TIP3   OH212681   4.238   4.463   6.251
 4247TIP3    H112682   4.274   4.508   6.327
 4247TIP3    H212683   4.241   4.370   6.274
 4248TIP3   OH212684   1.253   5.600   6.235
 4248TIP3    H112685   1.195   5.645   6.296
 4248TIP3    H212686   1.283   5.669   6.176
 4249TIP3   OH212687   1.337   2.571   2.226
 4249TIP3    H112688   1.385   2.502   2.271
 4249TIP3    H212689   1.268   2.597   2.288
 4250TIP3   OH212690   0.799  -0.005   4.177
 4250TIP3    H112691   0.848  -0.005   4.095
 4250TIP3    H212692   0.803   0.086   4.207
 4251TIP3   OH212693   2.718   7.209   6.853
 4251TIP3    H112694   2.640   7.257   6.826
 4251TIP3    H212695   2.778   7.218   6.779
 4252TIP3   OH212696   5.284   4.614   2.780
 4252TIP3    H112697   5.298   4.661   2.698
 4252TIP3    H212698   5.190   4.615   2.792
 4253TIP3   OH212699   4.041   3.960   3.727
 4253TIP3    H112700   4.131   3.976   3.754
 4253TIP3    H212701   4.024   3.869   3.751
 4254TIP3   OH212702   7.533   4.204   3.558
 4254TIP3    H112703   7.463   4.141   3.573
 4254TIP3    H212704   7.600   4.155   3.510
 4255TIP3   OH212705   7.975   4.317   6.597
 4255TIP3    H112706   7.889   4.355   6.580
 4255TIP3    H212707   8.016   4.378   6.659
 4256TIP3   OH212708   2.745   5.094   4.968
 4256TIP3    H112709   2.829   5.075   5.011
 4256TIP3    H212710   2.699   5.150   5.031
 4257TIP3   OH212711   3.988   3.916   0.839
 4257TIP3    H112712   4.008   4.009   0.842
 4257TIP3    H212713   3.960   3.900   0.749
 4258TIP3   OH212714   2.750   7.720   1.390
 4258TIP3    H112715   2.709   7.793   1.436
 4258TIP3    H212716   2.709   7.721   1.303
 4259TIP3   OH212717   3.003   0.772   6.169
 4259TIP3    H112718   3.036   0.860   6.152
 4259TIP3    H212719   3.028   0.754   6.260
 4260TIP3   OH212720   2.137   6.940   5.684
 4260TIP3    H112721   2.092   6.999   5.745
 4260TIP3    H212722   2.229   6.947   5.708
 4261TIP3   OH212723   0.723   2.264   3.372
 4261TIP3    H112724   0.671   2.282   3.450
 4261TIP3    H212725   0.791   2.203   3.402
 4262TIP3   OH212726   7.521   5.099   0.247
 4262TIP3    H112727   7.474   5.094   0.164
 4262TIP3    H212728   7.566   5.015   0.254
 4263TIP3   OH212729   4.024   6.248   0.775
 4263TIP3    H112730   4.070   6.310   0.718
 4263TIP3    H212731   3.997   6.177   0.717
 4264TIP3   OH212732   2.495   4.109   2.265
 4264TIP3    H112733   2.418   4.104   2.323
 4264TIP3    H212734   2.527   4.198   2.275
 4265TIP3   OH212735   7.584   2.655   0.269
 4265TIP3    H112736   7.663   2.669   0.321
 4265TIP3    H212737   7.604   2.578   0.215
 4266TIP3   OH212738   0.187   1.840   0.382
 4266TIP3    H112739   0.226   1.856   0.468
 4266TIP3    H212740   0.094   1.856   0.394
 4267TIP3   OH212741   4.937   3.365   6.486
 4267TIP3    H112742   4.910   3.380   6.395
 4267TIP3    H212743   5.032   3.368   6.484
 4268TIP3   OH212744   7.458   6.172   0.812
 4268TIP3    H112745   7.546   6.140   0.793
 4268TIP3    H212746   7.420   6.105   0.869
 4269TIP3   OH212747   6.318   6.162   2.811
 4269TIP3    H112748   6.255   6.107   2.859
 4269TIP3    H212749   6.273   6.183   2.729
 4270TIP3   OH212750   7.685   0.079   3.498
 4270TIP3    H112751   7.716   0.162   3.534
 4270TIP3    H212752   7.747   0.014   3.532
 4271TIP3   OH212753   6.366   4.791   0.575
 4271TIP3    H112754   6.392   4.770   0.664
 4271TIP3    H212755   6.298   4.727   0.554
 4272TIP3   OH212756   3.376   3.814   3.867
 4272TIP3    H112757   3.343   3.903   3.857
 4272TIP3    H212758   3.417   3.795   3.783
 4273TIP3   OH212759   2.231   0.097   3.167
 4273TIP3    H112760   2.173   0.028   3.196
 4273TIP3    H212761   2.266   0.066   3.083
 4274TIP3   OH212762   0.959   5.040   0.718
 4274TIP3    H112763   0.974   4.947   0.706
 4274TIP3    H212764   0.991   5.058   0.807
 4275TIP3   OH212765   7.952   6.374   6.546
 4275TIP3    H112766   7.998   6.382   6.463
 4275TIP3    H212767   7.893   6.450   6.547
 4276TIP3   OH212768   5.829   6.836   1.836
 4276TIP3    H112769   5.789   6.753   1.864
 4276TIP3    H212770   5.920   6.828   1.864
 4277TIP3   OH212771   3.728   3.684   2.347
 4277TIP3    H112772   3.816   3.665   2.315
 4277TIP3    H212773   3.693   3.599   2.373
 4278TIP3   OH212774   6.526   3.270   0.182
 4278TIP3    H112775   6.523   3.365   0.165
 4278TIP3    H212776   6.455   3.255   0.244
 4279TIP3   OH212777   8.013   5.098   2.152
 4279TIP3    H112778   8.045   5.037   2.085
 4279TIP3    H212779   7.974   5.169   2.102
 4280TIP3   OH212780   8.300   7.170   2.162
 4280TIP3    H112781   8.207   7.163   2.145
 4280TIP3    H212782   8.307   7.172   2.258
 4281TIP3   OH212783   5.784   1.467   0.119
 4281TIP3    H112784   5.859   1.408   0.125
 4281TIP3    H212785   5.731   1.433   0.047
 4282TIP3   OH212786   4.903   5.014   6.397
 4282TIP3    H112787   4.856   5.086   6.355
 4282TIP3    H212788   4.958   5.057   6.462
 4283TIP3   OH212789   3.116   6.397   3.620
 4283TIP3    H112790   3.173   6.413   3.545
 4283TIP3    H212791   3.028   6.417   3.589
 4284TIP3   OH212792   8.307   7.845   6.067
 4284TIP3    H112793   8.348   7.930   6.083
 4284TIP3    H212794   8.332   7.792   6.143
 4285TIP3   OH212795   4.846   6.547   4.567
 4285TIP3    H112796   4.751   6.551   4.581
 4285TIP3    H212797   4.857   6.578   4.477
 4286TIP3   OH212798   5.950   7.091   2.228
 4286TIP3    H112799   5.878   7.033   2.203
 4286TIP3    H212800   5.955   7.085   2.323
 4287TIP3   OH212801   3.008   6.821   5.711
 4287TIP3    H112802   3.003   6.894   5.649
 4287TIP3    H212803   3.057   6.754   5.663
 4288TIP3   OH212804   5.311   4.072   4.532
 4288TIP3    H112805   5.328   4.042   4.621
 4288TIP3    H212806   5.278   4.161   4.543
 4289TIP3   OH212807   5.356   1.185   3.702
 4289TIP3    H112808   5.446   1.179   3.736
 4289TIP3    H212809   5.319   1.098   3.716
 4290TIP3   OH212810   7.962   0.276   6.289
 4290TIP3    H112811   7.999   0.295   6.376
 4290TIP3    H212812   7.889   0.217   6.306
 4291TIP3   OH212813   8.235   0.456   0.840
 4291TIP3    H112814   8.264   0.368   0.863
 4291TIP3    H212815   8.164   0.475   0.901
 4292TIP3   OH212816   7.814   5.590   4.814
 4292TIP3    H112817   7.798   5.532   4.740
 4292TIP3    H212818   7.830   5.531   4.888
 4293TIP3   OH212819   3.765   0.236   6.627
 4293TIP3    H112820   3.861   0.243   6.624
 4293TIP3    H212821   3.736   0.255   6.538
 4294TIP3   OH212822   3.688   6.064   3.572
 4294TIP3    H112823   3.732   6.147   3.552
 4294TIP3    H212824   3.733   6.000   3.516
 4295TIP3   OH212825   3.277   7.127   3.438
 4295TIP3    H112826   3.256   7.034   3.450
 4295TIP3    H212827   3.302   7.134   3.346
 4296TIP3   OH212828   0.539   4.512   5.235
 4296TIP3    H112829   0.486   4.439   5.267
 4296TIP3    H212830   0.531   4.579   5.302
 4297TIP3   OH212831   3.244   2.241   6.447
 4297TIP3    H112832   3.163   2.210   6.405
 4297TIP3    H212833   3.218   2.263   6.536
 4298TIP3   OH212834   7.448   5.870   1.258
 4298TIP3    H112835   7.525   5.840   1.306
 4298TIP3    H212836   7.389   5.794   1.256
 4299TIP3   OH212837   3.877   2.298   2.919
 4299TIP3    H112838   3.800   2.246   2.897
 4299TIP3    H212839   3.944   2.270   2.856
 4300TIP3   OH212840   3.239   6.272   4.560
 4300TIP3    H112841   3.223   6.327   4.636
 4300TIP3    H212842   3.280   6.331   4.496
 4301TIP3   OH212843   1.740   1.279   0.703
 4301TIP3    H112844   1.747   1.184   0.711
 4301TIP3    H212845   1.831   1.309   0.698
 4302TIP3   OH212846   7.824   7.162   1.084
 4302TIP3    H112847   7.877   7.093   1.124
 4302TIP3    H212848   7.862   7.174   0.997
 4303TIP3   OH212849   0.811   2.493   2.826
 4303TIP3    H112850   0.750   2.455   2.889
 4303TIP3    H212851   0.870   2.547   2.879
 4304TIP3   OH212852   4.948   4.174   5.757
 4304TIP3    H112853   5.027   4.188   5.811
 4304TIP3    H212854   4.982   4.167   5.668
 4305TIP3   OH212855   6.169   2.641   1.914
 4305TIP3    H112856   6.263   2.650   1.926
 4305TIP3    H212857   6.144   2.712   1.855
 4306TIP3   OH212858   3.241   3.601  -0.034
 4306TIP3    H112859   3.234   3.581   0.060
 4306TIP3    H212860   3.150   3.609  -0.063
 4307TIP3   OH212861   2.937   2.515   2.155
 4307TIP3    H112862   3.002   2.583   2.173
 4307TIP3    H212863   2.932   2.464   2.237
 4308TIP3   OH212864   6.199   7.514   0.567
 4308TIP3    H112865   6.293   7.524   0.580
 4308TIP3    H212866   6.179   7.563   0.488
 4309TIP3   OH212867   3.874   5.385   1.323
 4309TIP3    H112868   3.853   5.338   1.404
 4309TIP3    H212869   3.899   5.316   1.262
 4310TIP3   OH212870   7.279   5.359   4.089
 4310TIP3    H112871   7.337   5.407   4.030
 4310TIP3    H212872   7.235   5.295   4.033
 4311TIP3   OH212873   6.942   6.610   1.568
 4311TIP3    H112874   7.025   6.657   1.556
 4311TIP3    H212875   6.961   6.546   1.636
 4312TIP3   OH212876   6.440   4.608   6.436
 4312TIP3    H112877   6.376   4.632   6.370
 4312TIP3    H212878   6.479   4.691   6.463
 4313TIP3   OH212879   7.167   4.222   3.175
 4313TIP3    H112880   7.260   4.200   3.174
 4313TIP3    H212881   7.128   4.156   3.232
 4314TIP3   OH212882   5.529   6.630   6.328
 4314TIP3    H112883   5.525   6.714   6.373
 4314TIP3    H212884   5.453   6.582   6.359
 4315TIP3   OH212885   5.070   2.412   1.317
 4315TIP3    H112886   5.032   2.396   1.230
 4315TIP3    H212887   4.996   2.405   1.377
 4316TIP3   OH212888   2.984   2.698   1.767
 4316TIP3    H112889   3.069   2.715   1.808
 4316TIP3    H212890   2.991   2.608   1.734
 4317TIP3   OH212891   2.572   0.238   2.651
 4317TIP3    H112892   2.588   0.284   2.733
 4317TIP3    H212893   2.654   0.193   2.632
 4318TIP3   OH212894   4.595   5.060   6.480
 4318TIP3    H112895   4.638   5.131   6.433
 4318TIP3    H212896   4.664   4.995   6.494
 4319TIP3   OH212897   3.258   6.164   0.130
 4319TIP3    H112898   3.351   6.139   0.123
 4319TIP3    H212899   3.258   6.237   0.192
 4320TIP3   OH212900   0.747   2.299   1.768
 4320TIP3    H112901   0.683   2.255   1.712
 4320TIP3    H212902   0.700   2.318   1.849
 4321TIP3   OH212903   3.753   0.289   4.445
 4321TIP3    H112904   3.695   0.234   4.499
 4321TIP3    H212905   3.841   0.268   4.475
 4322TIP3   OH212906   1.873   5.184   0.034
 4322TIP3    H112907   1.869   5.254  -0.032
 4322TIP3    H212908   1.887   5.230   0.117
 4323TIP3   OH212909   6.030   4.437   0.236
 4323TIP3    H112910   6.020   4.532   0.231
 4323TIP3    H212911   6.008   4.405   0.149
 4324TIP3   OH212912   5.382   5.263   2.300
 4324TIP3    H112913   5.409   5.343   2.344
 4324TIP3    H212914   5.288   5.255   2.318
 4325TIP3   OH212915   4.487   2.760   3.454
 4325TIP3    H112916   4.519   2.678   3.492
 4325TIP3    H212917   4.512   2.755   3.362
 4326TIP3   OH212918   5.391   5.489   2.848
 4326TIP3    H112919   5.455   5.440   2.899
 4326TIP3    H212920   5.439   5.567   2.818
 4327TIP3   OH212921   2.325   6.317   3.199
 4327TIP3    H112922   2.383   6.300   3.125
 4327TIP3    H212923   2.333   6.411   3.215
 4328TIP3   OH212924   5.780   3.058   6.792
 4328TIP3    H112925   5.786   3.153   6.795
 4328TIP3    H212926   5.724   3.035   6.866
 4329TIP3   OH212927   0.461   6.533   0.184
 4329TIP3    H112928   0.422   6.470   0.244
 4329TIP3    H212929   0.538   6.488   0.149
 4330TIP3   OH212930   4.099   3.479   1.843
 4330TIP3    H112931   4.042   3.552   1.864
 4330TIP3    H212932   4.100   3.426   1.923
 4331TIP3   OH212933   1.024   5.116   5.474
 4331TIP3    H112934   1.004   5.080   5.561
 4331TIP3    H212935   0.942   5.155   5.446
 4332TIP3   OH212936   6.587   2.416   5.842
 4332TIP3    H112937   6.602   2.509   5.857
 4332TIP3    H212938   6.662   2.372   5.883
 4333TIP3   OH212939   5.942   7.101   2.493
 4333TIP3    H112940   6.012   7.064   2.547
 4333TIP3    H212941   5.875   7.034   2.490
 4334TIP3   OH212942   4.198   2.497   5.282
 4334TIP3    H112943   4.159   2.426   5.332
 4334TIP3    H212944   4.186   2.574   5.338
 4335TIP3   OH212945   2.285   2.433   5.895
 4335TIP3    H112946   2.294   2.338   5.889
 4335TIP3    H212947   2.192   2.450   5.883
 4336TIP3   OH212948   7.611   2.079   2.680
 4336TIP3    H112949   7.555   2.085   2.757
 4336TIP3    H212950   7.562   2.125   2.611
 4337TIP3   OH212951   7.231   1.071   2.052
 4337TIP3    H112952   7.154   1.075   2.109
 4337TIP3    H212953   7.305   1.077   2.112
 4338TIP3   OH212954   5.492   1.071   6.375
 4338TIP3    H112955   5.490   1.128   6.451
 4338TIP3    H212956   5.405   1.080   6.336
 4339TIP3   OH212957   5.168   1.932   0.337
 4339TIP3    H112958   5.239   1.925   0.273
 4339TIP3    H212959   5.211   1.924   0.422
 4340TIP3   OH212960   0.695   1.575   4.773
 4340TIP3    H112961   0.752   1.522   4.829
 4340TIP3    H212962   0.715   1.547   4.684
 4341TIP3   OH212963   5.948   2.024   5.963
 4341TIP3    H112964   6.043   2.013   5.974
 4341TIP3    H212965   5.924   1.960   5.896
 4342TIP3   OH212966   2.830   2.658   3.531
 4342TIP3    H112967   2.745   2.697   3.548
 4342TIP3    H212968   2.863   2.633   3.618
 4343TIP3   OH212969   1.816   5.531   6.672
 4343TIP3    H112970   1.826   5.452   6.619
 4343TIP3    H212971   1.737   5.574   6.638
 4344TIP3   OH212972   2.540   5.152   1.131
 4344TIP3    H112973   2.630   5.157   1.163
 4344TIP3    H212974   2.505   5.071   1.168
 4345TIP3   OH212975   6.521   7.098   2.790
 4345TIP3    H112976   6.457   7.169   2.792
 4345TIP3    H212977   6.505   7.054   2.706
 4346TIP3   OH212978   6.089   1.512   3.665
 4346TIP3    H112979   6.043   1.563   3.598
 4346TIP3    H212980   6.078   1.563   3.745
 4347TIP3   OH212981   6.535   5.939   4.185
 4347TIP3    H112982   6.492   5.976   4.109
 4347TIP3    H212983   6.620   5.982   4.188
 4348TIP3   OH212984   0.021   6.646   1.772
 4348TIP3    H112985   0.046   6.658   1.680
 4348TIP3    H212986   0.099   6.671   1.821
 4349TIP3   OH212987   7.420   0.298   4.286
 4349TIP3    H112988   7.328   0.274   4.276
 4349TIP3    H212989   7.439   0.352   4.208
 4350TIP3   OH212990   3.327   4.468   5.446
 4350TIP3    H112991   3.291   4.508   5.525
 4350TIP3    H212992   3.262   4.402   5.421
 4351TIP3   OH212993   1.074   6.270   3.079
 4351TIP3    H112994   1.057   6.361   3.055
 4351TIP3    H212995   1.133   6.237   3.012
 4352TIP3   OH212996   3.005   2.381   3.011
 4352TIP3    H112997   3.075   2.322   3.041
 4352TIP3    H212998   3.052   2.451   2.965
 4353TIP3   OH212999   3.723   0.865   2.893
 4353TIP3    H113000   3.637   0.891   2.926
 4353TIP3    H213001   3.773   0.946   2.891
 4354TIP3   OH213002   1.718   2.709   1.003
 4354TIP3    H113003   1.731   2.632   0.947
 4354TIP3    H213004   1.677   2.675   1.082
 4355TIP3   OH213005   2.487   2.475   3.078
 4355TIP3    H113006   2.558   2.510   3.132
 4355TIP3    H213007   2.506   2.505   2.990
 4356TIP3   OH213008   2.618   4.492   1.420
 4356TIP3    H113009   2.657   4.419   1.371
 4356TIP3    H213010   2.551   4.451   1.475
 4357TIP3   OH213011   0.472   1.489   0.156
 4357TIP3    H113012   0.454   1.575   0.194
 4357TIP3    H213013   0.413   1.430   0.203
 4358TIP3   OH213014   2.813   4.312   2.417
 4358TIP3    H113015   2.820   4.291   2.324
 4358TIP3    H213016   2.779   4.231   2.456
 4359TIP3   OH213017   7.016   7.660   2.840
 4359TIP3    H113018   6.959   7.608   2.896
 4359TIP3    H213019   7.093   7.677   2.894
 4360TIP3   OH213020   4.377   4.246   6.552
 4360TIP3    H113021   4.420   4.176   6.503
 4360TIP3    H213022   4.446   4.310   6.568
 4361TIP3   OH213023   2.020   0.401   4.816
 4361TIP3    H113024   1.941   0.359   4.850
 4361TIP3    H213025   2.059   0.444   4.892
 4362TIP3   OH213026   7.178   3.333   3.757
 4362TIP3    H113027   7.084   3.345   3.753
 4362TIP3    H213028   7.213   3.399   3.696
 4363TIP3   OH213029   2.637   4.625   2.626
 4363TIP3    H113030   2.673   4.689   2.688
 4363TIP3    H213031   2.649   4.541   2.670
 4364TIP3   OH213032   5.868   1.146   3.761
 4364TIP3    H113033   5.869   1.058   3.723
 4364TIP3    H213034   5.908   1.202   3.694
 4365TIP3   OH213035   7.739   1.096   6.537
 4365TIP3    H113036   7.820   1.129   6.576
 4365TIP3    H213037   7.678   1.089   6.611
 4366TIP3   OH213038   4.745   4.737   4.363
 4366TIP3    H113039   4.680   4.786   4.413
 4366TIP3    H213040   4.698   4.708   4.285
 4367TIP3   OH213041   8.219   5.387   0.723
 4367TIP3    H113042   8.162   5.332   0.670
 4367TIP3    H213043   8.241   5.334   0.799
 4368TIP3   OH213044   2.741   7.545   5.191
 4368TIP3    H113045   2.796   7.598   5.134
 4368TIP3    H213046   2.712   7.472   5.136
 4369TIP3   OH213047   7.921   5.846   5.845
 4369TIP3    H113048   7.985   5.875   5.910
 4369TIP3    H213049   7.969   5.845   5.763
 4370TIP3   OH213050   2.991   3.725   0.766
 4370TIP3    H113051   2.959   3.670   0.695
 4370TIP3    H213052   3.017   3.807   0.724
 4371TIP3   OH213053   6.653   0.361   1.724
 4371TIP3    H113054   6.670   0.455   1.712
 4371TIP3    H213055   6.574   0.344   1.673
 4372TIP3   OH213056   2.312   3.509   1.639
 4372TIP3    H113057   2.279   3.471   1.557
 4372TIP3    H213058   2.375   3.575   1.611
 4373TIP3   OH213059   1.466   2.663   1.475
 4373TIP3    H113060   1.460   2.626   1.563
 4373TIP3    H213061   1.413   2.742   1.478
 4374TIP3   OH213062   7.559   4.140   1.654
 4374TIP3    H113063   7.622   4.177   1.717
 4374TIP3    H213064   7.474   4.151   1.697
 4375TIP3   OH213065   0.814   7.615   0.792
 4375TIP3    H113066   0.742   7.573   0.745
 4375TIP3    H213067   0.883   7.549   0.793
 4376TIP3   OH213068   2.798   4.233   5.186
 4376TIP3    H113069   2.754   4.280   5.115
 4376TIP3    H213070   2.870   4.291   5.212
 4377TIP3   OH213071   1.521   3.952   2.042
 4377TIP3    H113072   1.441   3.983   2.084
 4377TIP3    H213073   1.516   3.857   2.047
 4378TIP3   OH213074   3.009   4.874   4.792
 4378TIP3    H113075   2.961   4.931   4.732
 4378TIP3    H213076   3.088   4.849   4.744
 4379TIP3   OH213077   2.692   3.274   6.695
 4379TIP3    H113078   2.703   3.252   6.602
 4379TIP3    H213079   2.780   3.274   6.731
 4380TIP3   OH213080   5.066   6.681   2.212
 4380TIP3    H113081   4.995   6.687   2.277
 4380TIP3    H213082   5.127   6.751   2.237
 4381TIP3   OH213083   4.227   1.330   6.068
 4381TIP3    H113084   4.257   1.240   6.081
 4381TIP3    H213085   4.307   1.381   6.057
 4382TIP3   OH213086   3.725   3.712   1.986
 4382TIP3    H113087   3.744   3.797   2.025
 4382TIP3    H213088   3.663   3.730   1.916
 4383TIP3   OH213089   4.316   3.319   5.872
 4383TIP3    H113090   4.338   3.226   5.875
 4383TIP3    H213091   4.268   3.335   5.954
 4384TIP3   OH213092   4.711   2.464   4.387
 4384TIP3    H113093   4.646   2.396   4.407
 4384TIP3    H213094   4.786   2.442   4.442
 4385TIP3   OH213095   3.522   0.585   4.687
 4385TIP3    H113096   3.491   0.544   4.768
 4385TIP3    H213097   3.498   0.523   4.618
 4386TIP3   OH213098   4.611   4.451   4.329
 4386TIP3    H113099   4.575   4.460   4.241
 4386TIP3    H213100   4.543   4.489   4.386
 4387TIP3   OH213101   7.730   1.785   0.814
 4387TIP3    H113102   7.796   1.830   0.867
 4387TIP3    H213103   7.671   1.855   0.785
 4388TIP3   OH213104   4.003   0.671   1.761
 4388TIP3    H113105   4.071   0.608   1.735
 4388TIP3    H213106   3.948   0.622   1.822
 4389TIP3   OH213107   7.582   3.523   6.771
 4389TIP3    H113108   7.628   3.440   6.755
 4389TIP3    H213109   7.501   3.515   6.722
 4390TIP3   OH213110   6.060   5.498   5.911
 4390TIP3    H113111   6.100   5.569   5.961
 4390TIP3    H213112   6.099   5.503   5.824
 4391TIP3   OH213113   6.198   2.030   0.643
 4391TIP3    H113114   6.107   2.001   0.647
 4391TIP3    H213115   6.211   2.056   0.552
 4392TIP3   OH213116   7.539   1.242   2.577
 4392TIP3    H113117   7.547   1.270   2.668
 4392TIP3    H213118   7.446   1.247   2.558
 4393TIP3   OH213119   6.363   5.825   1.162
 4393TIP3    H113120   6.455   5.803   1.178
 4393TIP3    H213121   6.346   5.901   1.218
 4394TIP3   OH213122   4.223   6.866   6.292
 4394TIP3    H113123   4.277   6.944   6.288
 4394TIP3    H213124   4.285   6.793   6.295
 4395TIP3   OH213125   7.738   5.744   6.461
 4395TIP3    H113126   7.753   5.650   6.450
 4395TIP3    H213127   7.671   5.765   6.396
 4396TIP3   OH213128   3.002   6.277   3.847
 4396TIP3    H113129   2.907   6.286   3.834
 4396TIP3    H213130   3.041   6.323   3.774
 4397TIP3   OH213131   6.921   5.396   6.557
 4397TIP3    H113132   7.006   5.415   6.597
 4397TIP3    H213133   6.916   5.301   6.556
 4398TIP3   OH213134   2.094   2.909   6.340
 4398TIP3    H113135   2.145   2.850   6.396
 4398TIP3    H213136   2.047   2.966   6.401
 4399TIP3   OH213137   1.300   6.709   0.283
 4399TIP3    H113138   1.217   6.717   0.235
 4399TIP3    H213139   1.317   6.615   0.288
 4400TIP3   OH213140   6.460   7.675   3.550
 4400TIP3    H113141   6.423   7.737   3.487
 4400TIP3    H213142   6.540   7.718   3.581
 4401TIP3   OH213143   4.480   3.667   2.965
 4401TIP3    H113144   4.499   3.573   2.965
 4401TIP3    H213145   4.424   3.680   2.888
 4402TIP3   OH213146   6.525   5.720   1.495
 4402TIP3    H113147   6.553   5.794   1.549
 4402TIP3    H213148   6.552   5.743   1.406
 4403TIP3   OH213149   4.731   7.273   6.275
 4403TIP3    H113150   4.823   7.250   6.266
 4403TIP3    H213151   4.707   7.248   6.364
 4404TIP3   OH213152   5.372   4.208   2.297
 4404TIP3    H113153   5.341   4.142   2.360
 4404TIP3    H213154   5.325   4.288   2.321
 4405TIP3   OH213155   5.710   1.652   0.779
 4405TIP3    H113156   5.686   1.737   0.816
 4405TIP3    H213157   5.633   1.597   0.795
 4406TIP3   OH213158   5.511   0.695   2.947
 4406TIP3    H113159   5.578   0.740   2.997
 4406TIP3    H213160   5.522   0.603   2.970
 4407TIP3   OH213161   8.119   4.474   2.196
 4407TIP3    H113162   8.160   4.418   2.261
 4407TIP3    H213163   8.054   4.525   2.245
 4408TIP3   OH213164   6.875   1.542   5.936
 4408TIP3    H113165   6.837   1.583   5.858
 4408TIP3    H213166   6.965   1.572   5.938
 4409TIP3   OH213167   8.113   4.492   2.500
 4409TIP3    H113168   8.051   4.434   2.543
 4409TIP3    H213169   8.076   4.580   2.512
 4410TIP3   OH213170   8.139   5.084   3.170
 4410TIP3    H113171   8.072   5.024   3.138
 4410TIP3    H213172   8.178   5.039   3.245
 4411TIP3   OH213173   2.015   3.578   0.165
 4411TIP3    H113174   1.969   3.660   0.147
 4411TIP3    H213175   2.083   3.601   0.227
 4412TIP3   OH213176   2.271   4.151   3.762
 4412TIP3    H113177   2.231   4.233   3.790
 4412TIP3    H213178   2.341   4.135   3.824
 4413TIP3   OH213179   2.040   0.732   1.489
 4413TIP3    H113180   1.985   0.699   1.559
 4413TIP3    H213181   2.004   0.694   1.409
 4414TIP3   OH213182   2.999   6.295   2.910
 4414TIP3    H113183   2.991   6.260   2.998
 4414TIP3    H213184   3.052   6.230   2.863
 4415TIP3   OH213185   0.035   3.644   3.837
 4415TIP3    H113186   0.047   3.612   3.926
 4415TIP3    H213187   0.047   3.738   3.843
 4416TIP3   OH213188   7.359   5.880   2.163
 4416TIP3    H113189   7.301   5.950   2.192
 4416TIP3    H213190   7.414   5.921   2.096
 4417TIP3   OH213191   3.844   5.831   1.687
 4417TIP3    H113192   3.792   5.911   1.687
 4417TIP3    H213193   3.924   5.855   1.639
 4418TIP3   OH213194   5.176   6.844   6.628
 4418TIP3    H113195   5.110   6.816   6.692
 4418TIP3    H213196   5.168   6.782   6.556
 4419TIP3   OH213197   4.952   2.749   6.455
 4419TIP3    H113198   4.988   2.716   6.372
 4419TIP3    H213199   5.030   2.774   6.506
 4420TIP3   OH213200   6.772   4.723   6.156
 4420TIP3    H113201   6.723   4.646   6.183
 4420TIP3    H213202   6.734   4.749   6.072
 4421TIP3   OH213203   3.311   0.638   6.767
 4421TIP3    H113204   3.281   0.698   6.834
 4421TIP3    H213205   3.405   0.656   6.757
 4422TIP3   OH213206   6.257   2.009   0.938
 4422TIP3    H113207   6.321   1.939   0.928
 4422TIP3    H213208   6.177   1.966   0.966
 4423TIP3   OH213209   6.230   3.062   5.292
 4423TIP3    H113210   6.200   3.060   5.383
 4423TIP3    H213211   6.150   3.068   5.240
 4424TIP3   OH213212   6.739   2.753   0.776
 4424TIP3    H113213   6.676   2.708   0.720
 4424TIP3    H213214   6.764   2.831   0.727
 4425TIP3   OH213215   7.795   4.933   3.744
 4425TIP3    H113216   7.713   4.886   3.728
 4425TIP3    H213217   7.793   4.954   3.837
 4426TIP3   OH213218   5.434   4.975   5.294
 4426TIP3    H113219   5.373   4.962   5.367
 4426TIP3    H213220   5.380   5.014   5.225
 4427TIP3   OH213221   7.777   0.533   0.621
 4427TIP3    H113222   7.708   0.502   0.563
 4427TIP3    H213223   7.849   0.557   0.562
 4428TIP3   OH213224   4.084   3.177   4.891
 4428TIP3    H113225   4.059   3.085   4.879
 4428TIP3    H213226   4.132   3.178   4.974
 4429TIP3   OH213227   2.720   7.809   0.512
 4429TIP3    H113228   2.784   7.871   0.547
 4429TIP3    H213229   2.764   7.768   0.438
 4430TIP3   OH213230   0.791   5.358   5.728
 4430TIP3    H113231   0.823   5.374   5.639
 4430TIP3    H213232   0.703   5.397   5.730
 4431TIP3   OH213233   6.179   0.665   2.374
 4431TIP3    H113234   6.206   0.583   2.332
 4431TIP3    H213235   6.254   0.690   2.428
 4432TIP3   OH213236   0.541   3.811   4.213
 4432TIP3    H113237   0.501   3.725   4.227
 4432TIP3    H213238   0.623   3.793   4.168
 4433TIP3   OH213239   1.261   6.942   1.861
 4433TIP3    H113240   1.276   6.852   1.892
 4433TIP3    H213241   1.214   6.932   1.779
 4434TIP3   OH213242   0.165   7.051   3.285
 4434TIP3    H113243   0.242   7.042   3.228
 4434TIP3    H213244   0.134   7.140   3.270
 4435TIP3   OH213245   3.897   3.452   5.963
 4435TIP3    H113246   3.906   3.449   6.058
 4435TIP3    H213247   3.954   3.525   5.936
 4436TIP3   OH213248   2.927   5.273   4.140
 4436TIP3    H113249   2.992   5.325   4.093
 4436TIP3    H213250   2.934   5.302   4.231
 4437TIP3   OH213251   3.336   1.330   6.568
 4437TIP3    H113252   3.308   1.345   6.477
 4437TIP3    H213253   3.304   1.406   6.616
 4438TIP3   OH213254   7.510   5.901   3.662
 4438TIP3    H113255   7.501   5.890   3.567
 4438TIP3    H213256   7.445   5.967   3.685
 4439TIP3   OH213257   3.382   1.585   5.753
 4439TIP3    H113258   3.295   1.559   5.724
 4439TIP3    H213259   3.368   1.622   5.840
 4440TIP3   OH213260   0.641   4.346   6.333
 4440TIP3    H113261   0.638   4.349   6.429
 4440TIP3    H213262   0.735   4.344   6.313
 4441TIP3   OH213263   5.741   2.588   5.069
 4441TIP3    H113264   5.737   2.579   5.164
 4441TIP3    H213265   5.652   2.568   5.039
 4442TIP3   OH213266   8.355   1.560   4.686
 4442TIP3    H113267   8.380   1.613   4.610
 4442TIP3    H213268   8.395   1.474   4.670
 4443TIP3   OH213269   2.996   6.973   4.045
 4443TIP3    H113270   2.993   6.879   4.025
 4443TIP3    H213271   2.948   7.014   3.973
 4444TIP3   OH213272   0.975   2.736   2.105
 4444TIP3    H113273   1.047   2.790   2.138
 4444TIP3    H213274   0.896   2.777   2.142
 4445TIP3   OH213275   3.673   5.308   4.100
 4445TIP3    H113276   3.735   5.345   4.037
 4445TIP3    H213277   3.672   5.370   4.173
 4446TIP3   OH213278   6.132   3.235   6.042
 4446TIP3    H113279   6.097   3.230   5.952
 4446TIP3    H213280   6.062   3.200   6.096
 4447TIP3   OH213281   2.895   6.807   2.281
 4447TIP3    H113282   2.955   6.758   2.338
 4447TIP3    H213283   2.825   6.836   2.339
 4448TIP3   OH213284   2.331   3.916   5.168
 4448TIP3    H113285   2.405   3.967   5.137
 4448TIP3    H213286   2.368   3.858   5.235
 4449TIP3   OH213287   1.918   0.303   6.124
 4449TIP3    H113288   1.842   0.335   6.076
 4449TIP3    H213289   1.972   0.381   6.137
 4450TIP3   OH213290   4.963   5.955   5.530
 4450TIP3    H113291   4.983   5.874   5.577
 4450TIP3    H213292   5.048   5.991   5.507
 4451TIP3   OH213293   4.660   5.217   3.062
 4451TIP3    H113294   4.624   5.306   3.060
 4451TIP3    H213295   4.697   5.208   3.149
 4452TIP3   OH213296   6.025   6.371   3.678
 4452TIP3    H113297   6.008   6.330   3.593
 4452TIP3    H213298   5.985   6.313   3.742
 4453TIP3   OH213299   3.647   0.456   5.850
 4453TIP3    H113300   3.579   0.521   5.871
 4453TIP3    H213301   3.702   0.453   5.929
 4454TIP3   OH213302   3.041   4.062   2.426
 4454TIP3    H113303   3.042   4.105   2.511
 4454TIP3    H213304   3.109   3.995   2.432
 4455TIP3   OH213305   3.333   2.958   1.208
 4455TIP3    H113306   3.368   2.885   1.259
 4455TIP3    H213307   3.349   3.035   1.263
 4456TIP3   OH213308   3.266   2.323   3.748
 4456TIP3    H113309   3.269   2.301   3.841
 4456TIP3    H213310   3.354   2.355   3.727
 4457TIP3   OH213311   8.057   6.990   1.200
 4457TIP3    H113312   8.126   6.945   1.151
 4457TIP3    H213313   8.079   6.973   1.292
 4458TIP3   OH213314   3.913   4.275   0.618
 4458TIP3    H113315   3.895   4.359   0.576
 4458TIP3    H213316   3.906   4.211   0.547
 4459TIP3   OH213317   5.290   0.252   4.377
 4459TIP3    H113318   5.204   0.216   4.353
 4459TIP3    H213319   5.294   0.336   4.331
 4460TIP3   OH213320   4.387   0.022   4.982
 4460TIP3    H113321   4.324   0.091   4.958
 4460TIP3    H213322   4.462   0.038   4.925
 4461TIP3   OH213323   4.075   4.970   3.789
 4461TIP3    H113324   4.127   4.901   3.829
 4461TIP3    H213325   4.117   4.986   3.705
 4462TIP3   OH213326   1.863   3.062   6.416
 4462TIP3    H113327   1.907   3.105   6.489
 4462TIP3    H213328   1.789   3.119   6.395
 4463TIP3   OH213329   0.068   4.069   6.061
 4463TIP3    H113330   0.141   4.128   6.039
 4463TIP3    H213331   0.037   4.036   5.977
 4464TIP3   OH213332   8.048   7.583   4.047
 4464TIP3    H113333   8.029   7.645   4.118
 4464TIP3    H213334   8.042   7.497   4.089
 4465TIP3   OH213335   7.685   4.283   2.909
 4465TIP3    H113336   7.730   4.343   2.968
 4465TIP3    H213337   7.608   4.332   2.879
 4466TIP3   OH213338   4.795   5.900   0.254
 4466TIP3    H113339   4.716   5.847   0.261
 4466TIP3    H213340   4.801   5.945   0.339
 4467TIP3   OH213341   4.256   1.043   0.310
 4467TIP3    H113342   4.333   0.987   0.323
 4467TIP3    H213343   4.200   0.994   0.251
 4468TIP3   OH213344   6.981   7.092   1.924
 4468TIP3    H113345   6.973   7.167   1.865
 4468TIP3    H213346   7.036   7.030   1.876
 4469TIP3   OH213347   0.936   0.991   3.304
 4469TIP3    H113348   0.900   1.046   3.234
 4469TIP3    H213349   0.899   0.905   3.288
 4470TIP3   OH213350   6.160   5.334   6.807
 4470TIP3    H113351   6.132   5.275   6.736
 4470TIP3    H213352   6.080   5.377   6.836
 4471TIP3   OH213353   7.109   6.288   4.252
 4471TIP3    H113354   7.192   6.335   4.243
 4471TIP3    H213355   7.131   6.196   4.236
 4472TIP3   OH213356   1.459   3.304   5.691
 4472TIP3    H113357   1.409   3.374   5.649
 4472TIP3    H213358   1.392   3.243   5.723
 4473TIP3   OH213359   0.334   6.706   3.492
 4473TIP3    H113360   0.384   6.760   3.553
 4473TIP3    H213361   0.244   6.738   3.500
 4474TIP3   OH213362   0.451   2.068   3.785
 4474TIP3    H113363   0.498   2.133   3.733
 4474TIP3    H213364   0.397   2.021   3.721
 4475TIP3   OH213365   6.010   0.138   4.476
 4475TIP3    H113366   5.954   0.094   4.413
 4475TIP3    H213367   5.967   0.126   4.560
 4476TIP3   OH213368   2.204   1.165   4.029
 4476TIP3    H113369   2.281   1.115   4.001
 4476TIP3    H213370   2.169   1.202   3.948
 4477TIP3   OH213371   8.207   0.188   2.411
 4477TIP3    H113372   8.298   0.160   2.423
 4477TIP3    H213373   8.173   0.129   2.343
 4478TIP3   OH213374   8.071   5.003   5.460
 4478TIP3    H113375   8.044   4.917   5.428
 4478TIP3    H213376   8.161   4.990   5.490
 4479TIP3   OH213377   3.247   4.162   0.323
 4479TIP3    H113378   3.215   4.073   0.309
 4479TIP3    H213379   3.217   4.185   0.410
 4480TIP3   OH213380   1.125   2.153   0.649
 4480TIP3    H113381   1.068   2.099   0.703
 4480TIP3    H213382   1.146   2.098   0.573
 4481TIP3   OH213383   1.501   5.740   3.195
 4481TIP3    H113384   1.536   5.719   3.281
 4481TIP3    H213385   1.418   5.785   3.212
 4482TIP3   OH213386   6.503   5.939   6.323
 4482TIP3    H113387   6.524   5.953   6.231
 4482TIP3    H213388   6.469   5.849   6.326
 4483TIP3   OH213389   4.312   5.086   2.822
 4483TIP3    H113390   4.313   5.103   2.916
 4483TIP3    H213391   4.404   5.081   2.797
 4484TIP3   OH213392   2.897   1.817   5.575
 4484TIP3    H113393   2.874   1.890   5.632
 4484TIP3    H213394   2.853   1.742   5.613
 4485TIP3   OH213395   5.934   5.009   0.407
 4485TIP3    H113396   5.981   5.075   0.357
 4485TIP3    H213397   5.843   5.037   0.406
 4486TIP3   OH213398   3.968   6.272   0.415
 4486TIP3    H113399   4.035   6.217   0.376
 4486TIP3    H213400   3.894   6.213   0.432
 4487TIP3   OH213401   7.372   0.679   3.926
 4487TIP3    H113402   7.375   0.745   3.994
 4487TIP3    H213403   7.325   0.606   3.966
 4488TIP3   OH213404   6.581   0.781   4.324
 4488TIP3    H113405   6.567   0.850   4.389
 4488TIP3    H213406   6.513   0.795   4.259
 4489TIP3   OH213407   6.138   0.984   3.765
 4489TIP3    H113408   6.181   0.916   3.713
 4489TIP3    H213409   6.136   1.061   3.708
 4490TIP3   OH213410   4.518   4.043   3.820
 4490TIP3    H113411   4.477   3.957   3.825
 4490TIP3    H213412   4.566   4.042   3.737
 4491TIP3   OH213413   2.597   2.823   0.299
 4491TIP3    H113414   2.603   2.796   0.207
 4491TIP3    H213415   2.658   2.897   0.306
 4492TIP3   OH213416   1.813   6.794  -0.018
 4492TIP3    H113417   1.758   6.856   0.029
 4492TIP3    H213418   1.814   6.716   0.038
 4493TIP3   OH213419   6.631   3.636   5.586
 4493TIP3    H113420   6.627   3.658   5.679
 4493TIP3    H213421   6.569   3.565   5.575
 4494TIP3   OH213422   4.628   4.028   5.729
 4494TIP3    H113423   4.685   4.081   5.785
 4494TIP3    H213424   4.670   4.030   5.643
 4495TIP3   OH213425   7.292   3.624   5.593
 4495TIP3    H113426   7.270   3.548   5.540
 4495TIP3    H213427   7.223   3.688   5.574
 4496TIP3   OH213428   7.255   4.773   1.192
 4496TIP3    H113429   7.217   4.856   1.163
 4496TIP3    H213430   7.243   4.774   1.287
 4497TIP3   OH213431   4.017   5.274   4.101
 4497TIP3    H113432   3.975   5.322   4.030
 4497TIP3    H213433   4.084   5.334   4.135
 4498TIP3   OH213434   0.458   2.616   4.526
 4498TIP3    H113435   0.506   2.631   4.445
 4498TIP3    H213436   0.392   2.551   4.503
 4499TIP3   OH213437   2.752   5.760   1.259
 4499TIP3    H113438   2.818   5.717   1.205
 4499TIP3    H213439   2.786   5.752   1.349
 4500TIP3   OH213440   6.887   4.232   2.062
 4500TIP3    H113441   6.945   4.170   2.105
 4500TIP3    H213442   6.906   4.316   2.104
 4501TIP3   OH213443   0.589   4.810   1.306
 4501TIP3    H113444   0.632   4.768   1.232
 4501TIP3    H213445   0.515   4.752   1.327
 4502TIP3   OH213446   1.034   3.854   6.012
 4502TIP3    H113447   1.125   3.884   6.012
 4502TIP3    H213448   1.012   3.842   5.920
 4503TIP3   OH213449   1.222   7.291   3.965
 4503TIP3    H113450   1.267   7.268   3.883
 4503TIP3    H213451   1.247   7.382   3.982
 4504TIP3   OH213452   6.062   4.119   4.230
 4504TIP3    H113453   6.020   4.109   4.144
 4504TIP3    H213454   6.154   4.098   4.213
 4505TIP3   OH213455   5.238   7.807   1.641
 4505TIP3    H113456   5.295   7.841   1.572
 4505TIP3    H213457   5.263   7.715   1.649
 4506TIP3   OH213458   0.156   5.976   3.924
 4506TIP3    H113459   0.083   5.915   3.913
 4506TIP3    H213460   0.178   6.003   3.835
 4507TIP3   OH213461   4.179   1.626   3.089
 4507TIP3    H113462   4.208   1.714   3.110
 4507TIP3    H213463   4.084   1.630   3.097
 4508TIP3   OH213464   2.855   1.473   0.099
 4508TIP3    H113465   2.891   1.558   0.075
 4508TIP3    H213466   2.908   1.444   0.173
 4509TIP3   OH213467   6.398   0.344   4.315
 4509TIP3    H113468   6.314   0.299   4.308
 4509TIP3    H213469   6.383   0.430   4.276
 4510TIP3   OH213470   7.836   6.273   1.876
 4510TIP3    H113471   7.920   6.308   1.846
 4510TIP3    H213472   7.856   6.183   1.902
 4511TIP3   OH213473   7.011   3.492   2.256
 4511TIP3    H113474   6.955   3.530   2.324
 4511TIP3    H213475   6.993   3.546   2.179
 4512TIP3   OH213476   7.714   1.738   4.040
 4512TIP3    H113477   7.704   1.833   4.044
 4512TIP3    H213478   7.675   1.706   4.121
 4513TIP3   OH213479   1.951   3.086   4.323
 4513TIP3    H113480   2.040   3.092   4.358
 4513TIP3    H213481   1.952   3.005   4.272
 4514TIP3   OH213482   3.897   6.262   2.555
 4514TIP3    H113483   3.988   6.251   2.528
 4514TIP3    H213484   3.900   6.332   2.621
 4515TIP3   OH213485   1.062   7.516   5.719
 4515TIP3    H113486   1.093   7.535   5.631
 4515TIP3    H213487   1.068   7.600   5.765
 4516TIP3   OH213488   0.840   7.174   0.642
 4516TIP3    H113489   0.934   7.171   0.624
 4516TIP3    H213490   0.800   7.123   0.572
 4517TIP3   OH213491   1.757   7.674   3.237
 4517TIP3    H113492   1.757   7.758   3.283
 4517TIP3    H213493   1.712   7.693   3.154
 4518TIP3   OH213494   4.357   6.180   2.232
 4518TIP3    H113495   4.267   6.147   2.240
 4518TIP3    H213496   4.391   6.138   2.154
 4519TIP3   OH213497   7.159   5.523   2.581
 4519TIP3    H113498   7.239   5.573   2.596
 4519TIP3    H213499   7.095   5.588   2.553
 4520TIP3   OH213500   4.353   7.067   4.131
 4520TIP3    H113501   4.322   7.022   4.053
 4520TIP3    H213502   4.334   7.007   4.203
 4521TIP3   OH213503   7.551   7.504   6.361
 4521TIP3    H113504   7.514   7.417   6.347
 4521TIP3    H213505   7.519   7.556   6.288
 4522TIP3   OH213506   1.359   3.188   2.953
 4522TIP3    H113507   1.338   3.131   3.027
 4522TIP3    H213508   1.398   3.130   2.888
 4523TIP3   OH213509   1.804   1.782   1.865
 4523TIP3    H113510   1.817   1.830   1.783
 4523TIP3    H213511   1.754   1.705   1.840
 4524TIP3   OH213512   6.224   0.361   3.903
 4524TIP3    H113513   6.148   0.355   3.962
 4524TIP3    H213514   6.241   0.455   3.897
 4525TIP3   OH213515   1.784   3.503   6.410
 4525TIP3    H113516   1.755   3.524   6.499
 4525TIP3    H213517   1.703   3.483   6.363
 4526TIP3   OH213518   6.636   2.089   0.867
 4526TIP3    H113519   6.647   2.128   0.781
 4526TIP3    H213520   6.600   2.160   0.921
 4527TIP3   OH213521   1.159   2.995   0.295
 4527TIP3    H113522   1.064   3.004   0.293
 4527TIP3    H213523   1.184   3.020   0.384
 4528TIP3   OH213524   6.249   0.218   6.301
 4528TIP3    H113525   6.285   0.205   6.388
 4528TIP3    H213526   6.322   0.251   6.249
 4529TIP3   OH213527   2.334   1.884   2.322
 4529TIP3    H113528   2.305   1.930   2.401
 4529TIP3    H213529   2.366   1.952   2.264
 4530TIP3   OH213530   5.509   3.667   4.771
 4530TIP3    H113531   5.538   3.604   4.704
 4530TIP3    H213532   5.484   3.612   4.846
 4531TIP3   OH213533   0.399   5.318   6.131
 4531TIP3    H113534   0.379   5.355   6.217
 4531TIP3    H213535   0.435   5.391   6.081
 4532TIP3   OH213536   8.008   3.875   0.830
 4532TIP3    H113537   8.038   3.965   0.840
 4532TIP3    H213538   8.073   3.823   0.877
 4533TIP3   OH213539   5.213   1.328   2.404
 4533TIP3    H113540   5.173   1.248   2.370
 4533TIP3    H213541   5.287   1.345   2.345
 4534TIP3   OH213542   4.347   3.275   1.636
 4534TIP3    H113543   4.301   3.304   1.558
 4534TIP3    H213544   4.413   3.214   1.604
 4535TIP3   OH213545   0.201   0.353   6.150
 4535TIP3    H113546   0.189   0.431   6.204
 4535TIP3    H213547   0.240   0.386   6.069
 4536TIP3   OH213548   5.100   4.068   0.676
 4536TIP3    H113549   5.175   4.010   0.662
 4536TIP3    H213550   5.136   4.156   0.666
 4537TIP3   OH213551   2.540   0.899   3.570
 4537TIP3    H113552   2.591   0.904   3.489
 4537TIP3    H213553   2.511   0.989   3.586
 4538TIP3   OH213554   3.231   6.257   5.622
 4538TIP3    H113555   3.148   6.233   5.580
 4538TIP3    H213556   3.274   6.315   5.558
 4539TIP3   OH213557   6.637   5.089   4.770
 4539TIP3    H113558   6.718   5.138   4.756
 4539TIP3    H213559   6.664   4.997   4.767
 4540TIP3   OH213560   2.429   6.453   0.478
 4540TIP3    H113561   2.451   6.533   0.526
 4540TIP3    H213562   2.463   6.382   0.532
 4541TIP3   OH213563   4.730   5.542   1.843
 4541TIP3    H113564   4.641   5.507   1.850
 4541TIP3    H213565   4.783   5.467   1.814
 4542TIP3   OH213566   6.686   4.895   1.385
 4542TIP3    H113567   6.694   4.986   1.356
 4542TIP3    H213568   6.594   4.874   1.372
 4543TIP3   OH213569   4.124   0.092   2.924
 4543TIP3    H113570   4.213   0.078   2.955
 4543TIP3    H213571   4.115   0.031   2.851
 4544TIP3   OH213572   5.973   6.714   3.443
 4544TIP3    H113573   5.906   6.656   3.481
 4544TIP3    H213574   5.979   6.686   3.351
 4545TIP3   OH213575   6.630   2.530   3.958
 4545TIP3    H113576   6.567   2.468   3.995
 4545TIP3    H213577   6.619   2.610   4.010
 4546TIP3   OH213578   4.755   7.561   6.212
 4546TIP3    H113579   4.765   7.468   6.235
 4546TIP3    H213580   4.702   7.598   6.283
 4547TIP3   OH213581   6.741   3.007   2.558
 4547TIP3    H113582   6.837   3.013   2.552
 4547TIP3    H213583   6.712   3.097   2.575
 4548TIP3   OH213584   4.538   2.799   6.525
 4548TIP3    H113585   4.625   2.765   6.505
 4548TIP3    H213586   4.555   2.879   6.574
 4549TIP3   OH213587   1.217   1.663   6.764
 4549TIP3    H113588   1.268   1.691   6.688
 4549TIP3    H213589   1.281   1.623   6.823
 4550TIP3   OH213590   1.735   7.850   3.463
 4550TIP3    H113591   1.645   7.882   3.473
 4550TIP3    H213592   1.782   7.921   3.420
 4551TIP3   OH213593   8.083   2.693   3.222
 4551TIP3    H113594   8.118   2.634   3.288
 4551TIP3    H213595   8.065   2.774   3.270
 4552TIP3   OH213596   8.144   7.528   0.933
 4552TIP3    H113597   8.229   7.518   0.974
 4552TIP3    H213598   8.125   7.622   0.939
 4553TIP3   OH213599   0.248   3.259   3.188
 4553TIP3    H113600   0.286   3.346   3.173
 4553TIP3    H213601   0.211   3.234   3.103
 4554TIP3   OH213602   7.003   1.974   4.164
 4554TIP3    H113603   7.017   1.879   4.163
 4554TIP3    H213604   7.085   2.010   4.129
 4555TIP3   OH213605   1.626   3.727   5.605
 4555TIP3    H113606   1.707   3.710   5.653
 4555TIP3    H213607   1.570   3.772   5.668
 4556TIP3   OH213608   6.251   7.874   2.800
 4556TIP3    H113609   6.189   7.866   2.873
 4556TIP3    H213610   6.310   7.944   2.826
 4557TIP3   OH213611   6.342   3.476   2.952
 4557TIP3    H113612   6.341   3.561   2.907
 4557TIP3    H213613   6.435   3.459   2.968
 4558TIP3   OH213614   4.453   1.580   1.386
 4558TIP3    H113615   4.451   1.675   1.397
 4558TIP3    H213616   4.486   1.547   1.469
 4559TIP3   OH213617   6.903   4.160   4.875
 4559TIP3    H113618   6.864   4.241   4.909
 4559TIP3    H213619   6.988   4.154   4.918
 4560TIP3   OH213620   5.783   6.751   3.188
 4560TIP3    H113621   5.720   6.683   3.165
 4560TIP3    H213622   5.868   6.709   3.180
 4561TIP3   OH213623   2.163   1.376   1.416
 4561TIP3    H113624   2.078   1.387   1.459
 4561TIP3    H213625   2.155   1.422   1.333
 4562TIP3   OH213626   1.900   1.016   4.802
 4562TIP3    H113627   1.937   0.941   4.849
 4562TIP3    H213628   1.925   1.092   4.854
 4563TIP3   OH213629   7.448   2.404   4.855
 4563TIP3    H113630   7.535   2.401   4.895
 4563TIP3    H213631   7.417   2.493   4.871
 4564TIP3   OH213632   3.371   4.386   3.875
 4564TIP3    H113633   3.342   4.374   3.785
 4564TIP3    H213634   3.359   4.480   3.892
 4565TIP3   OH213635   3.188   1.934   5.445
 4565TIP3    H113636   3.140   1.903   5.523
 4565TIP3    H213637   3.177   1.864   5.381
 4566TIP3   OH213638   8.283   6.957   2.534
 4566TIP3    H113639   8.199   6.928   2.571
 4566TIP3    H213640   8.299   7.042   2.575
 4567TIP3   OH213641   8.007   0.990   1.916
 4567TIP3    H113642   8.092   0.945   1.919
 4567TIP3    H213643   7.985   0.992   1.823
 4568TIP3   OH213644   7.508   5.124   6.304
 4568TIP3    H113645   7.459   5.197   6.341
 4568TIP3    H213646   7.441   5.059   6.282
 4569TIP3   OH213647   8.035   1.201   3.482
 4569TIP3    H113648   8.009   1.198   3.574
 4569TIP3    H213649   7.956   1.230   3.436
 4570TIP3   OH213650   3.972   7.824   0.183
 4570TIP3    H113651   4.057   7.805   0.222
 4570TIP3    H213652   3.983   7.802   0.090
 4571TIP3   OH213653   0.199   3.506   5.689
 4571TIP3    H113654   0.281   3.487   5.735
 4571TIP3    H213655   0.181   3.427   5.639
 4572TIP3   OH213656   7.531   6.563   2.759
 4572TIP3    H113657   7.528   6.539   2.852
 4572TIP3    H213658   7.457   6.518   2.720
 4573TIP3   OH213659   8.069   2.335   4.669
 4573TIP3    H113660   7.998   2.315   4.608
 4573TIP3    H213661   8.143   2.282   4.637
 4574TIP3   OH213662   7.165   6.527   0.552
 4574TIP3    H113663   7.211   6.445   0.570
 4574TIP3    H213664   7.082   6.499   0.512
 4575TIP3   OH213665   2.006   1.801   5.996
 4575TIP3    H113666   1.962   1.885   5.982
 4575TIP3    H213667   1.970   1.744   5.927
 4576TIP3   OH213668   5.648   1.663   5.191
 4576TIP3    H113669   5.699   1.712   5.256
 4576TIP3    H213670   5.712   1.637   5.125
 4577TIP3   OH213671   1.887   5.403   2.716
 4577TIP3    H113672   1.927   5.479   2.673
 4577TIP3    H213673   1.958   5.363   2.766
 4578TIP3   OH213674   4.009   2.321   5.384
 4578TIP3    H113675   3.974   2.401   5.425
 4578TIP3    H213676   3.992   2.252   5.448
 4579TIP3   OH213677   5.432   4.701   5.545
 4579TIP3    H113678   5.521   4.681   5.572
 4579TIP3    H213679   5.407   4.778   5.598
 4580TIP3   OH213680   7.720   6.570   5.020
 4580TIP3    H113681   7.760   6.626   4.953
 4580TIP3    H213682   7.740   6.481   4.991
 4581TIP3   OH213683   5.670   7.835   3.637
 4581TIP3    H113684   5.653   7.929   3.640
 4581TIP3    H213685   5.674   7.809   3.729
 4582TIP3   OH213686   6.589   1.525   0.588
 4582TIP3    H113687   6.561   1.596   0.646
 4582TIP3    H213688   6.555   1.549   0.502
 4583TIP3   OH213689   1.037   0.796   1.309
 4583TIP3    H113690   1.024   0.888   1.285
 4583TIP3    H213691   0.977   0.782   1.383
 4584TIP3   OH213692   7.103   2.209   0.152
 4584TIP3    H113693   7.085   2.210   0.058
 4584TIP3    H213694   7.175   2.146   0.162
 4585TIP3   OH213695   8.140   1.900   0.579
 4585TIP3    H113696   8.230   1.871   0.596
 4585TIP3    H213697   8.086   1.843   0.634
 4586TIP3   OH213698   7.422   3.463   2.260
 4586TIP3    H113699   7.410   3.463   2.355
 4586TIP3    H213700   7.490   3.398   2.244
 4587TIP3   OH213701   7.629   6.441   6.469
 4587TIP3    H113702   7.682   6.510   6.509
 4587TIP3    H213703   7.668   6.360   6.499
 4588TIP3   OH213704   4.629   1.319   2.288
 4588TIP3    H113705   4.549   1.269   2.269
 4588TIP3    H213706   4.603   1.410   2.280
 4589TIP3   OH213707   6.837   6.227   0.108
 4589TIP3    H113708   6.801   6.219   0.196
 4589TIP3    H213709   6.841   6.321   0.092
 4590TIP3   OH213710   8.161   2.560   3.768
 4590TIP3    H113711   8.147   2.651   3.793
 4590TIP3    H213712   8.148   2.558   3.674
 4591TIP3   OH213713   4.604   1.245   2.901
 4591TIP3    H113714   4.635   1.171   2.848
 4591TIP3    H213715   4.660   1.318   2.875
 4592TIP3   OH213716   5.874   4.930   3.380
 4592TIP3    H113717   5.943   4.873   3.346
 4592TIP3    H213718   5.825   4.874   3.440
 4593TIP3   OH213719   4.140   1.800   0.674
 4593TIP3    H113720   4.152   1.894   0.686
 4593TIP3    H213721   4.172   1.782   0.586
 4594TIP3   OH213722   6.397   7.535   6.122
 4594TIP3    H113723   6.345   7.615   6.111
 4594TIP3    H213724   6.487   7.565   6.133
 4595TIP3   OH213725   4.450   6.613   2.093
 4595TIP3    H113726   4.541   6.629   2.118
 4595TIP3    H213727   4.455   6.580   2.003
 4596TIP3   OH213728   1.047   6.521   1.396
 4596TIP3    H113729   0.958   6.486   1.403
 4596TIP3    H213730   1.066   6.555   1.483
 4597TIP3   OH213731   2.921   1.076   2.591
 4597TIP3    H113732   2.832   1.065   2.625
 4597TIP3    H213733   2.909   1.107   2.501
 4598TIP3   OH213734   6.986   4.683   1.471
 4598TIP3    H113735   6.958   4.592   1.458
 4598TIP3    H213736   6.979   4.697   1.566
 4599TIP3   OH213737   5.156   3.516   5.029
 4599TIP3    H113738   5.181   3.584   5.091
 4599TIP3    H213739   5.094   3.559   4.970
 4600TIP3   OH213740   2.099   5.999   5.951
 4600TIP3    H113741   2.096   6.082   5.998
 4600TIP3    H213742   2.028   5.947   5.990
 4601TIP3   OH213743   6.898   7.694   0.060
 4601TIP3    H113744   6.925   7.664   0.147
 4601TIP3    H213745   6.831   7.759   0.078
 4602TIP3   OH213746   8.179   7.896   3.428
 4602TIP3    H113747   8.093   7.878   3.464
 4602TIP3    H213748   8.219   7.809   3.415
 4603TIP3   OH213749   1.039   7.219   1.956
 4603TIP3    H113750   0.964   7.242   2.011
 4603TIP3    H213751   1.011   7.140   1.910
 4604TIP3   OH213752   3.336   1.571   4.338
 4604TIP3    H113753   3.342   1.604   4.249
 4604TIP3    H213754   3.426   1.573   4.371
 4605TIP3   OH213755   6.394   3.824   5.685
 4605TIP3    H113756   6.361   3.878   5.614
 4605TIP3    H213757   6.375   3.735   5.659
 4606TIP3   OH213758   3.090   4.858   1.850
 4606TIP3    H113759   3.148   4.784   1.868
 4606TIP3    H213760   3.004   4.829   1.881
 4607TIP3   OH213761   1.434   5.277   5.546
 4607TIP3    H113762   1.398   5.208   5.491
 4607TIP3    H213763   1.503   5.234   5.597
 4608TIP3   OH213764   6.662   1.365   6.220
 4608TIP3    H113765   6.751   1.389   6.248
 4608TIP3    H213766   6.635   1.299   6.284
 4609TIP3   OH213767   2.163   2.705   5.529
 4609TIP3    H113768   2.132   2.624   5.570
 4609TIP3    H213769   2.250   2.683   5.495
 4610TIP3   OH213770   4.753   7.212   2.676
 4610TIP3    H113771   4.724   7.156   2.604
 4610TIP3    H213772   4.792   7.288   2.633
 4611TIP3   OH213773   1.024   2.415   1.172
 4611TIP3    H113774   1.004   2.383   1.260
 4611TIP3    H213775   1.120   2.422   1.170
 4612TIP3   OH213776   1.653   4.604   1.273
 4612TIP3    H113777   1.561   4.588   1.254
 4612TIP3    H213778   1.688   4.517   1.292
 4613TIP3   OH213779   7.164   6.463  -0.001
 4613TIP3    H113780   7.239   6.433  -0.052
 4613TIP3    H213781   7.195   6.468   0.089
 4614TIP3   OH213782   6.940   1.455   2.118
 4614TIP3    H113783   6.926   1.418   2.205
 4614TIP3    H213784   7.030   1.485   2.118
 4615TIP3   OH213785   3.600   3.188   0.874
 4615TIP3    H113786   3.600   3.229   0.960
 4615TIP3    H213787   3.609   3.262   0.813
 4616TIP3   OH213788   5.677   0.736   3.336
 4616TIP3    H113789   5.609   0.739   3.403
 4616TIP3    H213790   5.641   0.680   3.267
 4617TIP3   OH213791   4.145   2.396   6.072
 4617TIP3    H113792   4.176   2.479   6.035
 4617TIP3    H213793   4.214   2.333   6.052
 4618TIP3   OH213794   1.126   3.875   4.144
 4618TIP3    H113795   1.053   3.818   4.120
 4618TIP3    H213796   1.202   3.817   4.150
 4619TIP3   OH213797   0.771   6.384   1.149
 4619TIP3    H113798   0.771   6.290   1.134
 4619TIP3    H213799   0.862   6.411   1.133
 4620TIP3   OH213800   7.408   2.029   1.937
 4620TIP3    H113801   7.369   2.112   1.963
 4620TIP3    H213802   7.395   2.025   1.842
 4621TIP3   OH213803   5.892   5.845   0.065
 4621TIP3    H113804   5.812   5.796   0.086
 4621TIP3    H213805   5.889   5.920   0.123
 4622TIP3   OH213806   3.662   6.041   1.658
 4622TIP3    H113807   3.640   6.045   1.751
 4622TIP3    H213808   3.638   6.127   1.624
 4623TIP3   OH213809   2.204   6.413   3.507
 4623TIP3    H113810   2.114   6.407   3.538
 4623TIP3    H213811   2.225   6.324   3.476
 4624TIP3   OH213812   7.838   2.854   0.025
 4624TIP3    H113813   7.832   2.759   0.016
 4624TIP3    H213814   7.925   2.870   0.062
 4625TIP3   OH213815   6.905   5.575   5.386
 4625TIP3    H113816   6.985   5.523   5.378
 4625TIP3    H213817   6.880   5.567   5.478
 4626TIP3   OH213818   4.885   1.933   4.467
 4626TIP3    H113819   4.845   1.881   4.537
 4626TIP3    H213820   4.816   1.942   4.402
 4627TIP3   OH213821   2.785   2.775   5.704
 4627TIP3    H113822   2.760   2.694   5.748
 4627TIP3    H213823   2.703   2.810   5.670
 4628TIP3   OH213824   1.983   3.037   5.013
 4628TIP3    H113825   1.940   3.107   5.061
 4628TIP3    H213826   2.071   3.070   4.995
 4629TIP3   OH213827   1.471   1.049   4.835
 4629TIP3    H113828   1.451   1.133   4.875
 4629TIP3    H213829   1.467   0.986   4.908
 4630TIP3   OH213830   5.604   3.548   3.740
 4630TIP3    H113831   5.522   3.573   3.781
 4630TIP3    H213832   5.665   3.535   3.812
 4631TIP3   OH213833   6.159   6.516   0.574
 4631TIP3    H113834   6.074   6.479   0.599
 4631TIP3    H213835   6.209   6.517   0.655
 4632TIP3   OH213836   6.734   0.937   6.762
 4632TIP3    H113837   6.823   0.900   6.755
 4632TIP3    H213838   6.677   0.867   6.729
 4633TIP3   OH213839   2.503   4.566   4.731
 4633TIP3    H113840   2.496   4.619   4.810
 4633TIP3    H213841   2.493   4.629   4.659
 4634TIP3   OH213842   4.922   4.167   2.659
 4634TIP3    H113843   4.986   4.238   2.650
 4634TIP3    H213844   4.854   4.188   2.596
 4635TIP3   OH213845   1.772   4.976   6.792
 4635TIP3    H113846   1.744   4.888   6.817
 4635TIP3    H213847   1.855   4.988   6.837
 4636TIP3   OH213848   0.978   0.657   6.480
 4636TIP3    H113849   1.034   0.613   6.416
 4636TIP3    H213850   0.889   0.645   6.446
 4637TIP3   OH213851   5.427   7.874   4.605
 4637TIP3    H113852   5.423   7.907   4.695
 4637TIP3    H213853   5.476   7.792   4.612
 4638TIP3   OH213854   1.088   1.285   6.053
 4638TIP3    H113855   1.066   1.378   6.039
 4638TIP3    H213856   1.022   1.255   6.115
 4639TIP3   OH213857   4.463   5.157   2.055
 4639TIP3    H113858   4.391   5.100   2.083
 4639TIP3    H213859   4.517   5.101   1.998
 4640TIP3   OH213860   0.889   2.548   4.805
 4640TIP3    H113861   0.944   2.548   4.726
 4640TIP3    H213862   0.859   2.638   4.813
 4641TIP3   OH213863   7.883   4.914   4.472
 4641TIP3    H113864   7.907   4.833   4.426
 4641TIP3    H213865   7.821   4.958   4.414
 4642TIP3   OH213866   7.899   1.516   5.290
 4642TIP3    H113867   7.991   1.528   5.268
 4642TIP3    H213868   7.853   1.580   5.235
 4643TIP3   OH213869   0.347   3.969   4.094
 4643TIP3    H113870   0.403   3.896   4.120
 4643TIP3    H213871   0.289   3.983   4.168
 4644TIP3   OH213872   6.326   1.426   6.016
 4644TIP3    H113873   6.406   1.420   6.068
 4644TIP3    H213874   6.260   1.378   6.067
 4645TIP3   OH213875   0.894   0.073   1.521
 4645TIP3    H113876   0.929   0.145   1.469
 4645TIP3    H213877   0.903  -0.004   1.465
 4646TIP3   OH213878   4.929   6.169   4.810
 4646TIP3    H113879   4.897   6.258   4.825
 4646TIP3    H213880   4.945   6.165   4.716
 4647TIP3   OH213881   6.117   4.460   1.331
 4647TIP3    H113882   6.055   4.527   1.362
 4647TIP3    H213883   6.167   4.437   1.409
 4648TIP3   OH213884   1.472   2.073   4.952
 4648TIP3    H113885   1.434   2.017   5.019
 4648TIP3    H213886   1.485   2.157   4.995
 4649TIP3   OH213887   5.677   0.141   4.911
 4649TIP3    H113888   5.612   0.185   4.966
 4649TIP3    H213889   5.656   0.170   4.822
 4650TIP3   OH213890   7.631   1.867   2.866
 4650TIP3    H113891   7.561   1.913   2.818
 4650TIP3    H213892   7.622   1.899   2.956
 4651TIP3   OH213893   2.934   6.078   6.477
 4651TIP3    H113894   2.917   6.166   6.444
 4651TIP3    H213895   3.029   6.074   6.487
 4652TIP3   OH213896   6.003   7.578   5.615
 4652TIP3    H113897   5.908   7.566   5.616
 4652TIP3    H213898   6.029   7.564   5.706
 4653TIP3   OH213899   7.250   3.369   5.508
 4653TIP3    H113900   7.154   3.375   5.509
 4653TIP3    H213901   7.271   3.311   5.581
 4654TIP3   OH213902   3.007   5.324   4.996
 4654TIP3    H113903   2.940   5.297   4.933
 4654TIP3    H213904   3.022   5.247   5.050
 4655TIP3   OH213905   4.884   4.423   0.446
 4655TIP3    H113906   4.799   4.381   0.437
 4655TIP3    H213907   4.866   4.504   0.493
 4656TIP3   OH213908   3.013   0.034   6.299
 4656TIP3    H113909   2.941   0.075   6.251
 4656TIP3    H213910   2.980   0.026   6.389
 4657TIP3   OH213911   3.646   6.470   1.300
 4657TIP3    H113912   3.709   6.401   1.321
 4657TIP3    H213913   3.589   6.475   1.376
 4658TIP3   OH213914   1.868   3.965   5.519
 4658TIP3    H113915   1.931   3.894   5.508
 4658TIP3    H213916   1.829   3.976   5.432
 4659TIP3   OH213917   3.002   3.873   3.698
 4659TIP3    H113918   2.920   3.827   3.679
 4659TIP3    H213919   3.046   3.818   3.763
 4660TIP3   OH213920   1.059   0.039   5.706
 4660TIP3    H113921   0.991   0.008   5.646
 4660TIP3    H213922   1.064   0.133   5.691
 4661TIP3   OH213923   2.223   3.844   5.872
 4661TIP3    H113924   2.306   3.799   5.857
 4661TIP3    H213925   2.215   3.904   5.799
 4662TIP3   OH213926   6.163   2.280   3.684
 4662TIP3    H113927   6.116   2.341   3.627
 4662TIP3    H213928   6.239   2.330   3.715
 4663TIP3   OH213929   3.242   1.570   0.283
 4663TIP3    H113930   3.223   1.664   0.280
 4663TIP3    H213931   3.228   1.540   0.193
 4664TIP3   OH213932   0.184   4.722   5.896
 4664TIP3    H113933   0.099   4.746   5.934
 4664TIP3    H213934   0.175   4.629   5.875
 4665TIP3   OH213935   3.559   4.570   5.091
 4665TIP3    H113936   3.530   4.637   5.154
 4665TIP3    H213937   3.646   4.544   5.121
 4666TIP3   OH213938   0.215   2.962   1.574
 4666TIP3    H113939   0.131   2.999   1.599
 4666TIP3    H213940   0.215   2.963   1.478
 4667TIP3   OH213941   2.157   6.607   1.099
 4667TIP3    H113942   2.235   6.617   1.046
 4667TIP3    H213943   2.105   6.540   1.054
 4668TIP3   OH213944   8.302   3.209   4.463
 4668TIP3    H113945   8.251   3.289   4.450
 4668TIP3    H213946   8.378   3.220   4.407
 4669TIP3   OH213947   0.442   5.156   1.718
 4669TIP3    H113948   0.390   5.182   1.794
 4669TIP3    H213949   0.423   5.063   1.707
 4670TIP3   OH213950   1.063   5.551   1.056
 4670TIP3    H113951   0.992   5.495   1.025
 4670TIP3    H213952   1.033   5.640   1.037
 4671TIP3   OH213953   8.049   3.695   1.389
 4671TIP3    H113954   7.972   3.732   1.431
 4671TIP3    H213955   8.106   3.770   1.372
 4672TIP3   OH213956   5.329   6.333   3.402
 4672TIP3    H113957   5.402   6.287   3.442
 4672TIP3    H213958   5.370   6.397   3.344
 4673TIP3   OH213959   1.654   2.781   4.254
 4673TIP3    H113960   1.727   2.766   4.314
 4673TIP3    H213961   1.631   2.694   4.222
 4674TIP3   OH213962   5.804   4.954   2.649
 4674TIP3    H113963   5.875   4.989   2.703
 4674TIP3    H213964   5.763   4.887   2.703
 4675TIP3   OH213965   4.162   7.118   1.812
 4675TIP3    H113966   4.103   7.129   1.737
 4675TIP3    H213967   4.176   7.023   1.817
 4676TIP3   OH213968   1.661   5.055   4.654
 4676TIP3    H113969   1.701   5.130   4.610
 4676TIP3    H213970   1.569   5.078   4.662
 4677TIP3   OH213971   7.437   6.641   2.002
 4677TIP3    H113972   7.373   6.570   2.010
 4677TIP3    H213973   7.511   6.613   2.055
 4678TIP3   OH213974   2.070   2.675   2.097
 4678TIP3    H113975   2.001   2.731   2.133
 4678TIP3    H213976   2.082   2.607   2.163
 4679TIP3   OH213977   2.584   4.333   3.798
 4679TIP3    H113978   2.530   4.259   3.825
 4679TIP3    H213979   2.592   4.388   3.876
 4680TIP3   OH213980   3.643   1.631   3.270
 4680TIP3    H113981   3.707   1.559   3.269
 4680TIP3    H213982   3.695   1.709   3.253
 4681TIP3   OH213983   2.831   7.939   5.653
 4681TIP3    H113984   2.788   7.881   5.591
 4681TIP3    H213985   2.853   7.883   5.727
 4682TIP3   OH213986   5.313   6.397   1.710
 4682TIP3    H113987   5.219   6.415   1.721
 4682TIP3    H213988   5.317   6.333   1.640
 4683TIP3   OH213989   7.543   3.118   6.434
 4683TIP3    H113990   7.624   3.145   6.391
 4683TIP3    H213991   7.505   3.053   6.376
 4684TIP3   OH213992   7.408   1.068   2.266
 4684TIP3    H113993   7.401   1.011   2.343
 4684TIP3    H213994   7.500   1.060   2.239
 4685TIP3   OH213995   1.466   0.187   4.920
 4685TIP3    H113996   1.477   0.241   4.842
 4685TIP3    H213997   1.550   0.193   4.965
 4686TIP3   OH213998   7.748   4.828   0.669
 4686TIP3    H113999   7.702   4.910   0.652
 4686TIP3    H214000   7.690   4.760   0.634
 4687TIP3   OH214001   8.167   5.695   2.309
 4687TIP3    H114002   8.170   5.672   2.402
 4687TIP3    H214003   8.171   5.791   2.307
 4688TIP3   OH214004   4.320   0.337   4.842
 4688TIP3    H114005   4.277   0.393   4.907
 4688TIP3    H214006   4.341   0.396   4.770
 4689TIP3   OH214007   1.139   1.798   2.448
 4689TIP3    H114008   1.151   1.891   2.467
 4689TIP3    H214009   1.215   1.756   2.487
 4690TIP3   OH214010   4.748   7.872   4.235
 4690TIP3    H114011   4.674   7.925   4.266
 4690TIP3    H214012   4.708   7.804   4.182
 4691TIP3   OH214013   0.000   4.487   4.268
 4691TIP3    H114014   0.015   4.561   4.327
 4691TIP3    H214015   0.064   4.421   4.296
 4692TIP3   OH214016   4.880   0.632   4.181
 4692TIP3    H114017   4.971   0.648   4.202
 4692TIP3    H214018   4.879   0.615   4.087
 4693TIP3   OH214019   5.584   2.063   5.354
 4693TIP3    H114020   5.548   1.977   5.334
 4693TIP3    H214021   5.543   2.087   5.437
 4694TIP3   OH214022   1.744   3.119   3.028
 4694TIP3    H114023   1.712   3.030   3.012
 4694TIP3    H214024   1.835   3.117   3.000
 4695TIP3   OH214025   3.632   6.249   0.259
 4695TIP3    H114026   3.617   6.179   0.197
 4695TIP3    H214027   3.724   6.274   0.245
 4696TIP3   OH214028   1.568   6.052   6.415
 4696TIP3    H114029   1.515   5.975   6.433
 4696TIP3    H214030   1.505   6.119   6.387
 4697TIP3   OH214031   0.960   4.986   1.040
 4697TIP3    H114032   0.871   4.952   1.046
 4697TIP3    H214033   1.012   4.912   1.008
 4698TIP3   OH214034   4.180   0.112   4.739
 4698TIP3    H114035   4.218   0.197   4.760
 4698TIP3    H214036   4.242   0.073   4.677
 4699TIP3   OH214037   1.187   3.971   2.874
 4699TIP3    H114038   1.203   4.014   2.790
 4699TIP3    H214039   1.259   3.907   2.882
 4700TIP3   OH214040   6.668   7.408   3.415
 4700TIP3    H114041   6.741   7.413   3.478
 4700TIP3    H214042   6.627   7.324   3.434
 4701TIP3   OH214043   4.152   5.876   5.956
 4701TIP3    H114044   4.229   5.818   5.951
 4701TIP3    H214045   4.187   5.964   5.944
 4702TIP3   OH214046   2.574   0.090   3.765
 4702TIP3    H114047   2.519   0.012   3.773
 4702TIP3    H214048   2.554   0.142   3.843
 4703TIP3   OH214049   7.040   2.444   5.068
 4703TIP3    H114050   7.088   2.372   5.110
 4703TIP3    H214051   7.060   2.435   4.975
 4704TIP3   OH214052   0.935   3.990   6.224
 4704TIP3    H114053   0.946   3.922   6.157
 4704TIP3    H214054   0.999   3.968   6.292
 4705TIP3   OH214055   6.817   7.336   0.249
 4705TIP3    H114056   6.776   7.419   0.274
 4705TIP3    H214057   6.911   7.352   0.256
 4706TIP3   OH214058   1.213   1.483   3.502
 4706TIP3    H114059   1.186   1.418   3.437
 4706TIP3    H214060   1.178   1.450   3.585
 4707TIP3   OH214061   6.031   0.615   0.924
 4707TIP3    H114062   6.070   0.571   0.999
 4707TIP3    H214063   6.061   0.706   0.931
 4708TIP3   OH214064   2.177   7.198   2.861
 4708TIP3    H114065   2.206   7.288   2.846
 4708TIP3    H214066   2.259   7.147   2.862
 4709TIP3   OH214067   3.817   0.276   0.993
 4709TIP3    H114068   3.850   0.188   1.013
 4709TIP3    H214069   3.796   0.272   0.899
 4710TIP3   OH214070   0.166   0.721   0.264
 4710TIP3    H114071   0.115   0.754   0.190
 4710TIP3    H214072   0.112   0.652   0.301
 4711TIP3   OH214073   0.361   7.594   0.654
 4711TIP3    H114074   0.406   7.658   0.709
 4711TIP3    H214075   0.412   7.592   0.573
 4712TIP3   OH214076   4.904   1.134   5.662
 4712TIP3    H114077   4.998   1.130   5.650
 4712TIP3    H214078   4.880   1.048   5.697
 4713TIP3   OH214079   4.358   3.460   3.723
 4713TIP3    H114080   4.402   3.482   3.640
 4713TIP3    H214081   4.399   3.519   3.787
 4714TIP3   OH214082   5.368   5.392   5.397
 4714TIP3    H114083   5.364   5.366   5.489
 4714TIP3    H214084   5.461   5.392   5.376
 4715TIP3   OH214085   6.898   3.065   4.953
 4715TIP3    H114086   6.927   3.033   5.038
 4715TIP3    H214087   6.929   3.156   4.949
 4716TIP3   OH214088   3.826   7.779   4.018
 4716TIP3    H114089   3.846   7.773   4.111
 4716TIP3    H214090   3.769   7.855   4.010
 4717TIP3   OH214091   3.998   7.260   6.380
 4717TIP3    H114092   4.024   7.292   6.466
 4717TIP3    H214093   3.905   7.281   6.374
 4718TIP3   OH214094   2.831   5.680   6.108
 4718TIP3    H114095   2.817   5.618   6.180
 4718TIP3    H214096   2.851   5.763   6.151
 4719TIP3   OH214097   2.947   3.276   6.814
 4719TIP3    H114098   3.024   3.289   6.759
 4719TIP3    H214099   2.965   3.194   6.861
 4720TIP3   OH214100   3.404   6.394   2.033
 4720TIP3    H114101   3.382   6.463   2.095
 4720TIP3    H214102   3.500   6.390   2.034
 4721TIP3   OH214103   5.014   2.007   5.492
 4721TIP3    H114104   5.083   2.052   5.444
 4721TIP3    H214105   5.050   1.995   5.580
 4722TIP3   OH214106   4.973   3.503   2.690
 4722TIP3    H114107   5.044   3.544   2.738
 4722TIP3    H214108   4.960   3.419   2.734
 4723TIP3   OH214109   0.108   5.105   0.540
 4723TIP3    H114110   0.154   5.049   0.478
 4723TIP3    H214111   0.016   5.077   0.536
 4724TIP3   OH214112   7.971   6.546   4.449
 4724TIP3    H114113   8.063   6.571   4.440
 4724TIP3    H214114   7.972   6.473   4.511
 4725TIP3   OH214115   7.696   3.296   1.740
 4725TIP3    H114116   7.623   3.295   1.802
 4725TIP3    H214117   7.700   3.387   1.710
 4726TIP3   OH214118   4.373   4.529   0.203
 4726TIP3    H114119   4.366   4.442   0.163
 4726TIP3    H214120   4.347   4.516   0.294
 4727TIP3   OH214121   0.081   7.495   0.608
 4727TIP3    H114122   0.092   7.577   0.656
 4727TIP3    H214123   0.167   7.455   0.608
 4728TIP3   OH214124   3.927   7.552   0.710
 4728TIP3    H114125   3.931   7.619   0.641
 4728TIP3    H214126   3.837   7.520   0.707
 4729TIP3   OH214127   3.633   3.190   5.970
 4729TIP3    H114128   3.600   3.259   5.912
 4729TIP3    H214129   3.575   3.116   5.955
 4730TIP3   OH214130   2.488   6.197   3.937
 4730TIP3    H114131   2.512   6.277   3.984
 4730TIP3    H214132   2.439   6.146   4.001
 4731TIP3   OH214133   0.610   6.410   3.084
 4731TIP3    H114134   0.584   6.448   3.000
 4731TIP3    H214135   0.692   6.364   3.066
 4732TIP3   OH214136   7.917   6.662   5.235
 4732TIP3    H114137   7.857   6.736   5.236
 4732TIP3    H214138   7.885   6.606   5.164
 4733TIP3   OH214139   6.801   6.571   3.540
 4733TIP3    H114140   6.873   6.620   3.580
 4733TIP3    H214141   6.722   6.621   3.563
 4734TIP3   OH214142   1.149   4.208   3.345
 4734TIP3    H114143   1.055   4.211   3.362
 4734TIP3    H214144   1.187   4.267   3.410
 4735TIP3   OH214145   2.353   7.471   6.417
 4735TIP3    H114146   2.444   7.493   6.440
 4735TIP3    H214147   2.361   7.419   6.337
 4736TIP3   OH214148   4.620   1.562   2.830
 4736TIP3    H114149   4.632   1.523   2.744
 4736TIP3    H214150   4.608   1.656   2.813
 4737TIP3   OH214151   5.296   4.656   5.311
 4737TIP3    H114152   5.356   4.705   5.255
 4737TIP3    H214153   5.345   4.642   5.392
 4738TIP3   OH214154   2.603   3.330   5.177
 4738TIP3    H114155   2.592   3.311   5.083
 4738TIP3    H214156   2.697   3.348   5.187
 4739TIP3   OH214157   1.473   5.642   3.789
 4739TIP3    H114158   1.450   5.583   3.718
 4739TIP3    H214159   1.550   5.689   3.758
 4740TIP3   OH214160   8.076   0.586   5.836
 4740TIP3    H114161   7.993   0.634   5.838
 4740TIP3    H214162   8.059   0.506   5.884
 4741TIP3   OH214163   1.993   5.789   5.436
 4741TIP3    H114164   1.904   5.793   5.400
 4741TIP3    H214165   2.049   5.785   5.359
 4742TIP3   OH214166   5.433   1.149   5.325
 4742TIP3    H114167   5.495   1.215   5.295
 4742TIP3    H214168   5.447   1.075   5.266
 4743TIP3   OH214169   7.065   4.753   0.104
 4743TIP3    H114170   7.026   4.814   0.166
 4743TIP3    H214171   6.997   4.739   0.038
 4744TIP3   OH214172   2.698   3.818   1.280
 4744TIP3    H114173   2.665   3.863   1.358
 4744TIP3    H214174   2.785   3.854   1.266
 4745TIP3   OH214175   3.196   5.562   3.850
 4745TIP3    H114176   3.264   5.559   3.783
 4745TIP3    H214177   3.162   5.472   3.854
 4746TIP3   OH214178   6.309   5.671   0.948
 4746TIP3    H114179   6.298   5.716   1.032
 4746TIP3    H214180   6.221   5.670   0.910
 4747TIP3   OH214181   7.419   1.600   2.005
 4747TIP3    H114182   7.465   1.554   2.075
 4747TIP3    H214183   7.488   1.634   1.949
 4748TIP3   OH214184   2.559   3.544   5.543
 4748TIP3    H114185   2.491   3.542   5.475
 4748TIP3    H214186   2.516   3.507   5.620
 4749TIP3   OH214187   7.201   5.641   2.216
 4749TIP3    H114188   7.140   5.675   2.282
 4749TIP3    H214189   7.251   5.718   2.188
 4750TIP3   OH214190   8.164   5.773   1.291
 4750TIP3    H114191   8.246   5.738   1.324
 4750TIP3    H214192   8.100   5.704   1.308
 4751TIP3   OH214193   6.415   1.209   0.409
 4751TIP3    H114194   6.475   1.178   0.341
 4751TIP3    H214195   6.358   1.134   0.427
 4752TIP3   OH214196   6.493   2.859   4.771
 4752TIP3    H114197   6.560   2.810   4.723
 4752TIP3    H214198   6.494   2.822   4.859
 4753TIP3   OH214199   6.515   6.367   1.286
 4753TIP3    H114200   6.598   6.364   1.334
 4753TIP3    H214201   6.541   6.374   1.194
 4754TIP3   OH214202   4.636   5.082   1.196
 4754TIP3    H114203   4.670   5.046   1.279
 4754TIP3    H214204   4.599   5.167   1.220
 4755TIP3   OH214205   1.986   2.175   0.241
 4755TIP3    H114206   2.018   2.085   0.243
 4755TIP3    H214207   1.896   2.170   0.272
 4756TIP3   OH214208   7.705   1.081   4.326
 4756TIP3    H114209   7.796   1.075   4.356
 4756TIP3    H214210   7.655   1.028   4.388
 4757TIP3   OH214211   5.569   2.940   5.347
 4757TIP3    H114212   5.639   2.896   5.395
 4757TIP3    H214213   5.609   2.967   5.264
 4758TIP3   OH214214   7.435   5.335   6.762
 4758TIP3    H114215   7.452   5.335   6.668
 4758TIP3    H214216   7.372   5.406   6.774
 4759TIP3   OH214217   6.205   4.847   3.950
 4759TIP3    H114218   6.210   4.797   3.868
 4759TIP3    H214219   6.137   4.803   4.000
 4760TIP3   OH214220   6.987   4.876   5.925
 4760TIP3    H114221   6.981   4.787   5.959
 4760TIP3    H214222   7.056   4.917   5.978
 4761TIP3   OH214223   2.956   0.241   3.031
 4761TIP3    H114224   2.921   0.152   3.035
 4761TIP3    H214225   2.935   0.271   2.943
 4762TIP3   OH214226   4.580   2.770   2.254
 4762TIP3    H114227   4.674   2.786   2.242
 4762TIP3    H214228   4.566   2.683   2.218
 4763TIP3   OH214229   7.916   7.448   5.157
 4763TIP3    H114230   7.881   7.463   5.245
 4763TIP3    H214231   7.961   7.363   5.163
 4764TIP3   OH214232   0.240   0.162   3.757
 4764TIP3    H114233   0.192   0.190   3.836
 4764TIP3    H214234   0.317   0.218   3.755
 4765TIP3   OH214235   4.580   0.827   3.855
 4765TIP3    H114236   4.658   0.863   3.812
 4765TIP3    H214237   4.507   0.866   3.807
 4766TIP3   OH214238   4.702   7.272   0.461
 4766TIP3    H114239   4.796   7.253   0.468
 4766TIP3    H214240   4.675   7.291   0.551
 4767TIP3   OH214241   6.697   7.693   5.812
 4767TIP3    H114242   6.681   7.782   5.779
 4767TIP3    H214243   6.611   7.651   5.811
 4768TIP3   OH214244   1.146   6.793   6.087
 4768TIP3    H114245   1.070   6.764   6.138
 4768TIP3    H214246   1.139   6.888   6.087
 4769TIP3   OH214247   3.826   4.276   4.084
 4769TIP3    H114248   3.913   4.249   4.055
 4769TIP3    H214249   3.790   4.325   4.010
 4770TIP3   OH214250   2.684   1.812   4.115
 4770TIP3    H114251   2.757   1.774   4.164
 4770TIP3    H214252   2.621   1.741   4.107
 4771TIP3   OH214253   2.423   4.830   0.066
 4771TIP3    H114254   2.504   4.785   0.093
 4771TIP3    H214255   2.353   4.769   0.092
 4772TIP3   OH214256   1.994   7.263   5.024
 4772TIP3    H114257   2.032   7.243   5.110
 4772TIP3    H214258   2.066   7.300   4.973
 4773TIP3   OH214259   6.345   3.840   1.891
 4773TIP3    H114260   6.346   3.933   1.914
 4773TIP3    H214261   6.326   3.838   1.798
 4774TIP3   OH214262   7.589   6.008   3.982
 4774TIP3    H114263   7.527   6.016   4.055
 4774TIP3    H214264   7.559   5.932   3.934
 4775TIP3   OH214265   6.940   6.995   2.864
 4775TIP3    H114266   7.011   7.059   2.854
 4775TIP3    H214267   6.941   6.973   2.957
 4776TIP3   OH214268   5.637   1.910   0.865
 4776TIP3    H114269   5.702   1.980   0.873
 4776TIP3    H214270   5.566   1.950   0.814
 4777TIP3   OH214271   7.508   2.228   6.284
 4777TIP3    H114272   7.439   2.174   6.247
 4777TIP3    H214273   7.588   2.178   6.272
 4778TIP3   OH214274   4.738   7.520   2.949
 4778TIP3    H114275   4.797   7.448   2.973
 4778TIP3    H214276   4.650   7.485   2.964
 4779TIP3   OH214277   2.395   0.991   5.742
 4779TIP3    H114278   2.441   0.909   5.755
 4779TIP3    H214279   2.379   1.024   5.831
 4780TIP3   OH214280   1.365   1.058   6.103
 4780TIP3    H114281   1.282   1.027   6.066
 4780TIP3    H214282   1.427   1.054   6.031
 4781TIP3   OH214283   3.565   1.482   2.098
 4781TIP3    H114284   3.524   1.519   2.176
 4781TIP3    H214285   3.625   1.415   2.131
 4782TIP3   OH214286   0.096   2.676   1.309
 4782TIP3    H114287   0.177   2.724   1.290
 4782TIP3    H214288   0.041   2.738   1.355
 4783TIP3   OH214289   6.418   7.470   0.955
 4783TIP3    H114290   6.370   7.546   0.923
 4783TIP3    H214291   6.468   7.504   1.030
 4784TIP3   OH214292   2.195   1.328   0.623
 4784TIP3    H114293   2.209   1.422   0.613
 4784TIP3    H214294   2.139   1.321   0.701
 4785TIP3   OH214295   4.965   0.774   3.539
 4785TIP3    H114296   4.970   0.741   3.628
 4785TIP3    H214297   5.047   0.823   3.527
 4786TIP3   OH214298   2.006   7.891   2.823
 4786TIP3    H114299   1.932   7.837   2.797
 4786TIP3    H214300   2.083   7.843   2.793
 4787TIP3   OH214301   0.412   1.914   6.217
 4787TIP3    H114302   0.468   1.991   6.223
 4787TIP3    H214303   0.433   1.863   6.295
 4788TIP3   OH214304   5.829   1.559   5.014
 4788TIP3    H114305   5.814   1.577   4.921
 4788TIP3    H214306   5.895   1.490   5.014
 4789TIP3   OH214307   1.121   5.565   6.799
 4789TIP3    H114308   1.094   5.622   6.871
 4789TIP3    H214309   1.046   5.567   6.738
 4790TIP3   OH214310   4.085   4.176   0.808
 4790TIP3    H114311   4.041   4.222   0.736
 4790TIP3    H214312   4.173   4.215   0.810
 4791TIP3   OH214313   7.707   7.512   0.721
 4791TIP3    H114314   7.770   7.581   0.698
 4791TIP3    H214315   7.750   7.462   0.790
 4792TIP3   OH214316   6.018   6.302   6.193
 4792TIP3    H114317   5.927   6.310   6.222
 4792TIP3    H214318   6.062   6.377   6.234
 4793TIP3   OH214319   3.270   5.772   5.792
 4793TIP3    H114320   3.214   5.849   5.805
 4793TIP3    H214321   3.258   5.748   5.701
 4794TIP3   OH214322   6.958   7.567   5.290
 4794TIP3    H114323   6.981   7.631   5.357
 4794TIP3    H214324   6.965   7.616   5.208
 4795TIP3   OH214325   4.899   6.795   6.492
 4795TIP3    H114326   4.859   6.748   6.565
 4795TIP3    H214327   4.827   6.845   6.454
 4796TIP3   OH214328   8.086   6.643   3.954
 4796TIP3    H114329   8.083   6.716   3.891
 4796TIP3    H214330   8.010   6.590   3.931
 4797TIP3   OH214331   2.001   6.565   2.765
 4797TIP3    H114332   2.032   6.544   2.678
 4797TIP3    H214333   1.948   6.645   2.753
 4798TIP3   OH214334   4.716   5.591   2.179
 4798TIP3    H114335   4.805   5.597   2.213
 4798TIP3    H214336   4.722   5.535   2.102
 4799TIP3   OH214337   3.096   2.270   6.668
 4799TIP3    H114338   3.096   2.365   6.672
 4799TIP3    H214339   3.021   2.243   6.721
 4800TIP3   OH214340   6.642   0.778   2.394
 4800TIP3    H114341   6.586   0.848   2.427
 4800TIP3    H214342   6.681   0.739   2.472
 4801TIP3   OH214343   4.638   3.815   3.430
 4801TIP3    H114344   4.709   3.857   3.479
 4801TIP3    H214345   4.635   3.863   3.347
 4802TIP3   OH214346   1.112   5.056   3.281
 4802TIP3    H114347   1.103   4.964   3.255
 4802TIP3    H214348   1.034   5.098   3.245
 4803TIP3   OH214349   0.456   1.147   6.209
 4803TIP3    H114350   0.503   1.094   6.273
 4803TIP3    H214351   0.450   1.091   6.131
 4804TIP3   OH214352   8.153   7.782   2.678
 4804TIP3    H114353   8.197   7.784   2.763
 4804TIP3    H214354   8.224   7.776   2.614
 4805TIP3   OH214355   6.378   0.048   1.961
 4805TIP3    H114356   6.428   0.129   1.951
 4805TIP3    H214357   6.439  -0.021   1.936
 4806TIP3   OH214358   7.849   0.624   2.015
 4806TIP3    H114359   7.910   0.600   2.085
 4806TIP3    H214360   7.875   0.569   1.941
 4807TIP3   OH214361   7.916   3.650   4.993
 4807TIP3    H114362   7.835   3.686   5.030
 4807TIP3    H214363   7.935   3.707   4.918
 4808TIP3   OH214364   6.743   0.898   1.813
 4808TIP3    H114365   6.788   0.882   1.730
 4808TIP3    H214366   6.652   0.872   1.796
 4809TIP3   OH214367   2.056   1.917   3.341
 4809TIP3    H114368   2.003   1.933   3.419
 4809TIP3    H214369   2.146   1.932   3.369
 4810TIP3   OH214370   6.216   2.052   3.028
 4810TIP3    H114371   6.174   2.002   2.958
 4810TIP3    H214372   6.254   1.985   3.085
 4811TIP3   OH214373   1.149   2.196   5.789
 4811TIP3    H114374   1.193   2.138   5.852
 4811TIP3    H214375   1.125   2.272   5.840
 4812TIP3   OH214376   6.318   0.042   1.212
 4812TIP3    H114377   6.359   0.049   1.126
 4812TIP3    H214378   6.389   0.061   1.274
 4813TIP3   OH214379   7.909   1.413   4.875
 4813TIP3    H114380   7.984   1.466   4.848
 4813TIP3    H214381   7.844   1.427   4.806
 4814TIP3   OH214382   5.618   6.965   0.528
 4814TIP3    H114383   5.583   6.932   0.445
 4814TIP3    H214384   5.704   7.000   0.506
 4815TIP3   OH214385   7.439   5.512   3.660
 4815TIP3    H114386   7.496   5.438   3.639
 4815TIP3    H214387   7.434   5.563   3.579
 4816TIP3   OH214388   3.744   1.286   2.191
 4816TIP3    H114389   3.698   1.235   2.125
 4816TIP3    H214390   3.728   1.239   2.273
 4817TIP3   OH214391   2.841   0.508   2.204
 4817TIP3    H114392   2.767   0.474   2.255
 4817TIP3    H214393   2.898   0.433   2.191
 4818TIP3   OH214394   0.825   5.500   1.688
 4818TIP3    H114395   0.742   5.538   1.659
 4818TIP3    H214396   0.803   5.453   1.769
 4819TIP3   OH214397   0.317   1.542   1.094
 4819TIP3    H114398   0.403   1.531   1.053
 4819TIP3    H214399   0.336   1.578   1.181
 4820TIP3   OH214400   4.235   5.682   4.327
 4820TIP3    H114401   4.324   5.659   4.357
 4820TIP3    H214402   4.212   5.759   4.378
 4821TIP3   OH214403   2.312   3.391   6.642
 4821TIP3    H114404   2.351   3.346   6.567
 4821TIP3    H214405   2.325   3.332   6.716
 4822TIP3   OH214406   7.203   5.767   5.836
 4822TIP3    H114407   7.125   5.721   5.868
 4822TIP3    H214408   7.188   5.775   5.741
 4823TIP3   OH214409   0.242   5.149   4.278
 4823TIP3    H114410   0.151   5.152   4.249
 4823TIP3    H214411   0.272   5.240   4.272
 4824TIP3   OH214412   7.694   0.716   3.274
 4824TIP3    H114413   7.706   0.719   3.179
 4824TIP3    H214414   7.698   0.808   3.300
 4825TIP3   OH214415   4.256   1.667   0.442
 4825TIP3    H114416   4.191   1.614   0.395
 4825TIP3    H214417   4.273   1.741   0.384
 4826TIP3   OH214418   0.170   3.747   3.587
 4826TIP3    H114419   0.197   3.670   3.537
 4826TIP3    H214420   0.088   3.721   3.629
 4827TIP3   OH214421   6.317   0.784   3.669
 4827TIP3    H114422   6.330   0.689   3.660
 4827TIP3    H214423   6.403   0.822   3.650
 4828TIP3   OH214424   4.086   0.545   3.165
 4828TIP3    H114425   4.105   0.636   3.142
 4828TIP3    H214426   4.014   0.519   3.108
 4829TIP3   OH214427   5.199   0.771   6.021
 4829TIP3    H114428   5.107   0.759   5.998
 4829TIP3    H214429   5.221   0.858   5.988
 4830TIP3   OH214430   7.337   6.079   1.557
 4830TIP3    H114431   7.255   6.078   1.606
 4830TIP3    H214432   7.313   6.114   1.471
 4831TIP3   OH214433   0.700   1.518   5.991
 4831TIP3    H114434   0.669   1.440   6.039
 4831TIP3    H214435   0.744   1.483   5.914
 4832TIP3   OH214436   7.829   5.251   0.930
 4832TIP3    H114437   7.785   5.182   0.979
 4832TIP3    H214438   7.906   5.274   0.982
 4833TIP3   OH214439   1.291   4.675   5.803
 4833TIP3    H114440   1.257   4.660   5.715
 4833TIP3    H214441   1.347   4.600   5.821
 4834TIP3   OH214442   2.564   1.553   3.809
 4834TIP3    H114443   2.490   1.517   3.760
 4834TIP3    H214444   2.632   1.486   3.803
 4835TIP3   OH214445   7.939   6.441   0.061
 4835TIP3    H114446   7.885   6.477   0.132
 4835TIP3    H214447   7.876   6.397   0.004
 4836TIP3   OH214448   2.146   1.675   6.229
 4836TIP3    H114449   2.088   1.604   6.258
 4836TIP3    H214450   2.095   1.724   6.166
 4837TIP3   OH214451   6.027   6.085   4.504
 4837TIP3    H114452   5.974   6.084   4.424
 4837TIP3    H214453   5.974   6.039   4.568
 4838TIP3   OH214454   3.141   1.012   1.323
 4838TIP3    H114455   3.175   1.090   1.366
 4838TIP3    H214456   3.046   1.016   1.336
 4839TIP3   OH214457   0.952   3.313   1.036
 4839TIP3    H114458   1.043   3.341   1.036
 4839TIP3    H214459   0.947   3.250   1.108
 4840TIP3   OH214460   0.161   1.094   2.343
 4840TIP3    H114461   0.213   1.172   2.363
 4840TIP3    H214462   0.109   1.119   2.267
 4841TIP3   OH214463   1.621   1.320   4.485
 4841TIP3    H114464   1.626   1.261   4.409
 4841TIP3    H214465   1.611   1.261   4.560
 4842TIP3   OH214466   3.743   3.241   6.788
 4842TIP3    H114467   3.731   3.147   6.772
 4842TIP3    H214468   3.833   3.248   6.818
 4843TIP3   OH214469   3.464   2.232   6.281
 4843TIP3    H114470   3.542   2.223   6.337
 4843TIP3    H214471   3.394   2.259   6.341
 4844TIP3   OH214472   6.999   7.387   2.139
 4844TIP3    H114473   7.084   7.343   2.142
 4844TIP3    H214474   7.020   7.480   2.148
 4845TIP3   OH214475   4.674   3.052   2.842
 4845TIP3    H114476   4.621   3.000   2.781
 4845TIP3    H214477   4.705   3.126   2.789
 4846TIP3   OH214478   5.094   2.441   5.711
 4846TIP3    H114479   5.110   2.528   5.674
 4846TIP3    H214480   5.049   2.459   5.794
 4847TIP3   OH214481   7.283   3.489   3.541
 4847TIP3    H114482   7.354   3.535   3.496
 4847TIP3    H214483   7.212   3.487   3.477
 4848TIP3   OH214484   6.165   0.227   1.318
 4848TIP3    H114485   6.198   0.152   1.269
 4848TIP3    H214486   6.238   0.290   1.319
 4849TIP3   OH214487   1.024   2.506   4.536
 4849TIP3    H114488   1.072   2.588   4.525
 4849TIP3    H214489   1.071   2.443   4.482
 4850TIP3   OH214490   4.782   1.895   2.523
 4850TIP3    H114491   4.838   1.876   2.447
 4850TIP3    H214492   4.723   1.964   2.494
 4851TIP3   OH214493   7.888   2.813   6.682
 4851TIP3    H114494   7.808   2.775   6.719
 4851TIP3    H214495   7.949   2.817   6.756
 4852TIP3   OH214496   4.104   5.614   2.188
 4852TIP3    H114497   4.172   5.664   2.233
 4852TIP3    H214498   4.064   5.561   2.256
 4853TIP3   OH214499   7.147   0.954   4.078
 4853TIP3    H114500   7.198   1.008   4.018
 4853TIP3    H214501   7.211   0.894   4.117
 4854TIP3   OH214502   1.269   7.055   6.588
 4854TIP3    H114503   1.282   7.074   6.681
 4854TIP3    H214504   1.345   7.002   6.564
 4855TIP3   OH214505   6.302   2.712   1.571
 4855TIP3    H114506   6.230   2.690   1.512
 4855TIP3    H214507   6.378   2.720   1.514
 4856TIP3   OH214508   4.387   1.996   3.393
 4856TIP3    H114509   4.387   2.087   3.420
 4856TIP3    H214510   4.311   1.958   3.436
 4857TIP3   OH214511   6.497   0.301   1.941
 4857TIP3    H114512   6.531   0.332   1.857
 4857TIP3    H214513   6.553   0.343   2.006
 4858TIP3   OH214514   2.936   0.534   4.776
 4858TIP3    H114515   2.990   0.613   4.771
 4858TIP3    H214516   2.997   0.465   4.803
 4859TIP3   OH214517   6.517   4.594   3.801
 4859TIP3    H114518   6.431   4.571   3.767
 4859TIP3    H214519   6.553   4.656   3.738
 4860TIP3   OH214520   0.305   7.269   3.023
 4860TIP3    H114521   0.354   7.190   3.047
 4860TIP3    H214522   0.322   7.280   2.930
 4861TIP3   OH214523   4.088   1.800   2.227
 4861TIP3    H114524   4.085   1.825   2.320
 4861TIP3    H214525   4.025   1.729   2.220
 4862TIP3   OH214526   6.626   1.685   0.810
 4862TIP3    H114527   6.687   1.735   0.864
 4862TIP3    H214528   6.552   1.744   0.797
 4863TIP3   OH214529   1.505   4.356   3.455
 4863TIP3    H114530   1.558   4.297   3.402
 4863TIP3    H214531   1.440   4.299   3.496
 4864TIP3   OH214532   7.863   7.587   6.079
 4864TIP3    H114533   7.861   7.534   6.000
 4864TIP3    H214534   7.814   7.666   6.056
 4865TIP3   OH214535   1.086   1.686   4.779
 4865TIP3    H114536   1.074   1.749   4.708
 4865TIP3    H214537   1.159   1.631   4.751
 4866TIP3   OH214538   4.327   7.376   1.412
 4866TIP3    H114539   4.233   7.393   1.406
 4866TIP3    H214540   4.366   7.461   1.430
 4867TIP3   OH214541   7.543   5.912   0.168
 4867TIP3    H114542   7.471   5.900   0.231
 4867TIP3    H214543   7.515   5.864   0.090
 4868TIP3   OH214544   2.990   1.204   4.313
 4868TIP3    H114545   2.992   1.112   4.341
 4868TIP3    H214546   2.930   1.246   4.375
 4869TIP3   OH214547   4.906   4.069   5.043
 4869TIP3    H114548   4.954   3.987   5.044
 4869TIP3    H214549   4.964   4.130   4.996
 4870TIP3   OH214550   2.746   6.958   4.953
 4870TIP3    H114551   2.790   7.043   4.943
 4870TIP3    H214552   2.674   6.962   4.891
 4871TIP3   OH214553   1.697   4.357   1.361
 4871TIP3    H114554   1.718   4.272   1.322
 4871TIP3    H214555   1.662   4.335   1.448
 4872TIP3   OH214556   2.263   1.332   2.818
 4872TIP3    H114557   2.195   1.287   2.868
 4872TIP3    H214558   2.222   1.414   2.791
 4873TIP3   OH214559   3.507   1.786   1.154
 4873TIP3    H114560   3.512   1.723   1.083
 4873TIP3    H214561   3.429   1.760   1.204
 4874TIP3   OH214562   7.416   2.044   3.361
 4874TIP3    H114563   7.378   2.092   3.435
 4874TIP3    H214564   7.407   2.104   3.287
 4875TIP3   OH214565   0.297   7.332   5.783
 4875TIP3    H114566   0.361   7.348   5.852
 4875TIP3    H214567   0.215   7.316   5.830
 4876TIP3   OH214568   4.332   5.019   2.449
 4876TIP3    H114569   4.286   5.076   2.387
 4876TIP3    H214570   4.262   4.969   2.491
 4877TIP3   OH214571   1.149   3.990   1.831
 4877TIP3    H114572   1.194   3.911   1.803
 4877TIP3    H214573   1.141   4.043   1.752
 4878TIP3   OH214574   6.391   1.803   5.359
 4878TIP3    H114575   6.422   1.795   5.449
 4878TIP3    H214576   6.346   1.720   5.342
 4879TIP3   OH214577   0.669   7.129   5.155
 4879TIP3    H114578   0.678   7.213   5.109
 4879TIP3    H214579   0.754   7.115   5.197
 4880TIP3   OH214580   3.929   3.562   1.191
 4880TIP3    H114581   3.888   3.537   1.274
 4880TIP3    H214582   3.952   3.655   1.203
 4881TIP3   OH214583   5.973   4.478   1.073
 4881TIP3    H114584   5.998   4.460   1.164
 4881TIP3    H214585   6.052   4.459   1.023
 4882TIP3   OH214586   3.423   2.752   5.115
 4882TIP3    H114587   3.429   2.766   5.021
 4882TIP3    H214588   3.463   2.829   5.154
 4883TIP3   OH214589   5.613   2.857   4.530
 4883TIP3    H114590   5.686   2.814   4.486
 4883TIP3    H214591   5.610   2.945   4.493
 4884TIP3   OH214592   8.124   7.942   5.301
 4884TIP3    H114593   8.052   7.881   5.318
 4884TIP3    H214594   8.179   7.937   5.379
 4885TIP3   OH214595   6.795   0.224   5.548
 4885TIP3    H114596   6.845   0.165   5.604
 4885TIP3    H214597   6.800   0.185   5.461
 4886TIP3   OH214598   7.006   3.621   3.573
 4886TIP3    H114599   6.920   3.589   3.598
 4886TIP3    H214600   7.065   3.589   3.641
 4887TIP3   OH214601   2.643   4.435   5.391
 4887TIP3    H114602   2.732   4.400   5.386
 4887TIP3    H214603   2.638   4.497   5.319
 4888TIP3   OH214604   1.955   1.138   1.331
 4888TIP3    H114605   1.887   1.072   1.314
 4888TIP3    H214606   2.029   1.086   1.363
 4889TIP3   OH214607   4.181   1.238   2.278
 4889TIP3    H114608   4.244   1.183   2.231
 4889TIP3    H214609   4.107   1.247   2.218
 4890TIP3   OH214610   7.324   0.947   1.549
 4890TIP3    H114611   7.327   1.011   1.620
 4890TIP3    H214612   7.382   0.982   1.482
 4891TIP3   OH214613   1.125   0.602   3.984
 4891TIP3    H114614   1.139   0.507   3.986
 4891TIP3    H214615   1.072   0.616   3.906
 4892TIP3   OH214616   2.512   2.147   6.805
 4892TIP3    H114617   2.490   2.188   6.889
 4892TIP3    H214618   2.531   2.220   6.746
 4893TIP3   OH214619   1.213   0.896   5.683
 4893TIP3    H114620   1.164   0.945   5.749
 4893TIP3    H214621   1.155   0.825   5.657
 4894TIP3   OH214622   1.555   7.588   0.562
 4894TIP3    H114623   1.559   7.557   0.472
 4894TIP3    H214624   1.609   7.667   0.563
 4895TIP3   OH214625   3.603   3.456   2.422
 4895TIP3    H114626   3.516   3.424   2.401
 4895TIP3    H214627   3.662   3.386   2.395
 4896TIP3   OH214628   2.525   2.259   0.195
 4896TIP3    H114629   2.572   2.197   0.250
 4896TIP3    H214630   2.572   2.341   0.206
 4897TIP3   OH214631   4.011   5.563   1.129
 4897TIP3    H114632   4.009   5.542   1.036
 4897TIP3    H214633   4.104   5.574   1.149
 4898TIP3   OH214634   2.763   3.553   2.902
 4898TIP3    H114635   2.694   3.516   2.958
 4898TIP3    H214636   2.717   3.616   2.846
 4899TIP3   OH214637   6.091   6.097   4.094
 4899TIP3    H114638   6.023   6.152   4.134
 4899TIP3    H214639   6.170   6.117   4.144
 4900TIP3   OH214640   7.064   1.505   5.258
 4900TIP3    H114641   7.008   1.570   5.301
 4900TIP3    H214642   7.153   1.537   5.270
 4901TIP3   OH214643   7.828   5.602   6.105
 4901TIP3    H114644   7.910   5.553   6.114
 4901TIP3    H214645   7.759   5.538   6.122
 4902TIP3   OH214646   1.978   6.586   6.396
 4902TIP3    H114647   1.978   6.672   6.436
 4902TIP3    H214648   1.930   6.597   6.314
 4903TIP3   OH214649   5.560   1.644   6.263
 4903TIP3    H114650   5.592   1.675   6.178
 4903TIP3    H214651   5.638   1.645   6.319
 4904TIP3   OH214652   7.312   5.255   0.735
 4904TIP3    H114653   7.364   5.211   0.802
 4904TIP3    H214654   7.325   5.204   0.656
 4905TIP3   OH214655   2.885   2.466   6.457
 4905TIP3    H114656   2.791   2.480   6.443
 4905TIP3    H214657   2.900   2.497   6.547
 4906TIP3   OH214658   5.657   6.387   0.308
 4906TIP3    H114659   5.751   6.370   0.310
 4906TIP3    H214660   5.648   6.471   0.263
 4907TIP3   OH214661   4.122   3.340   3.826
 4907TIP3    H114662   4.196   3.387   3.788
 4907TIP3    H214663   4.144   3.332   3.919
 4908TIP3   OH214664   6.725   4.267   5.172
 4908TIP3    H114665   6.635   4.297   5.189
 4908TIP3    H214666   6.719   4.172   5.179
 4909TIP3   OH214667   5.884   6.996   0.948
 4909TIP3    H114668   5.828   6.929   0.908
 4909TIP3    H214669   5.892   7.063   0.880
 4910TIP3   OH214670   0.893   6.526   3.896
 4910TIP3    H114671   0.799   6.506   3.901
 4910TIP3    H214672   0.936   6.441   3.906
 4911TIP3   OH214673   4.403   3.067   5.841
 4911TIP3    H114674   4.432   3.021   5.762
 4911TIP3    H214675   4.315   3.034   5.856
 4912TIP3   OH214676   6.910   1.357   1.708
 4912TIP3    H114677   6.915   1.369   1.613
 4912TIP3    H214678   6.953   1.273   1.724
 4913TIP3   OH214679   4.104   0.970   1.147
 4913TIP3    H114680   4.109   1.036   1.216
 4913TIP3    H214681   4.042   0.905   1.179
 4914TIP3   OH214682   1.050   7.523   1.087
 4914TIP3    H114683   1.017   7.552   1.002
 4914TIP3    H214684   1.053   7.427   1.080
 4915TIP3   OH214685   0.408   6.795   1.551
 4915TIP3    H114686   0.350   6.786   1.626
 4915TIP3    H214687   0.495   6.771   1.583
 4916TIP3   OH214688   6.661   2.557   3.058
 4916TIP3    H114689   6.662   2.502   2.979
 4916TIP3    H214690   6.699   2.501   3.126
 4917TIP3   OH214691   1.370   6.829   3.161
 4917TIP3    H114692   1.380   6.735   3.175
 4917TIP3    H214693   1.362   6.865   3.250
 4918TIP3   OH214694   1.444   6.674   3.513
 4918TIP3    H114695   1.532   6.641   3.495
 4918TIP3    H214696   1.387   6.625   3.454
 4919TIP3   OH214697   4.335   1.630   5.895
 4919TIP3    H114698   4.253   1.597   5.858
 4919TIP3    H214699   4.318   1.636   5.989
 4920TIP3   OH214700   0.067   4.268   5.652
 4920TIP3    H114701  -0.010   4.229   5.693
 4920TIP3    H214702   0.140   4.214   5.683
 4921TIP3   OH214703   5.810   4.441   3.974
 4921TIP3    H114704   5.899   4.464   4.000
 4921TIP3    H214705   5.779   4.382   4.043
 4922TIP3   OH214706   3.377   2.593   2.757
 4922TIP3    H114707   3.464   2.603   2.795
 4922TIP3    H214708   3.317   2.627   2.825
 4923TIP3   OH214709   3.448   7.381   0.925
 4923TIP3    H114710   3.360   7.373   0.890
 4923TIP3    H214711   3.442   7.452   0.990
 4924TIP3   OH214712   5.320   6.745   1.378
 4924TIP3    H114713   5.307   6.651   1.373
 4924TIP3    H214714   5.280   6.779   1.298
 4925TIP3   OH214715   4.633   1.359   6.338
 4925TIP3    H114716   4.556   1.396   6.382
 4925TIP3    H214717   4.634   1.267   6.367
 4926TIP3   OH214718   3.042   6.913   2.744
 4926TIP3    H114719   3.039   6.902   2.839
 4926TIP3    H214720   2.981   6.847   2.710
 4927TIP3   OH214721   8.197   0.515   0.521
 4927TIP3    H114722   8.136   0.443   0.503
 4927TIP3    H214723   8.211   0.512   0.615
 4928TIP3   OH214724   1.001   6.982   2.194
 4928TIP3    H114725   0.969   6.938   2.115
 4928TIP3    H214726   0.957   7.067   2.193
 4929TIP3   OH214727   0.604   2.537   0.362
 4929TIP3    H114728   0.563   2.588   0.292
 4929TIP3    H214729   0.698   2.545   0.346
 4930TIP3   OH214730   0.321   4.805   1.749
 4930TIP3    H114731   0.401   4.815   1.697
 4930TIP3    H214732   0.353   4.792   1.839
 4931TIP3   OH214733   4.162   3.680   6.273
 4931TIP3    H114734   4.190   3.725   6.194
 4931TIP3    H214735   4.203   3.729   6.344
 4932TIP3   OH214736   0.382   0.256   4.682
 4932TIP3    H114737   0.315   0.194   4.713
 4932TIP3    H214738   0.451   0.200   4.647
 4933TIP3   OH214739   5.762   1.709   2.429
 4933TIP3    H114740   5.683   1.663   2.401
 4933TIP3    H214741   5.782   1.672   2.515
 4934TIP3   OH214742   5.904   4.300   2.797
 4934TIP3    H114743   5.973   4.335   2.854
 4934TIP3    H214744   5.908   4.206   2.809
 4935TIP3   OH214745   6.740   6.452   0.779
 4935TIP3    H114746   6.775   6.541   0.785
 4935TIP3    H214747   6.788   6.402   0.845
 4936TIP3   OH214748   2.417   5.995   3.714
 4936TIP3    H114749   2.452   6.074   3.755
 4936TIP3    H214750   2.491   5.959   3.664
 4937TIP3   OH214751   0.450   4.676  -0.016
 4937TIP3    H114752   0.434   4.713   0.071
 4937TIP3    H214753   0.363   4.657  -0.051
 4938TIP3   OH214754   5.127   1.481   0.876
 4938TIP3    H114755   5.050   1.427   0.859
 4938TIP3    H214756   5.182   1.426   0.932
 4939TIP3   OH214757   5.109   1.191   5.006
 4939TIP3    H114758   5.111   1.159   4.916
 4939TIP3    H214759   5.022   1.169   5.037
 4940TIP3   OH214760   8.267   2.145   5.233
 4940TIP3    H114761   8.328   2.218   5.236
 4940TIP3    H214762   8.322   2.067   5.236
 4941TIP3   OH214763   7.849   2.076   3.895
 4941TIP3    H114764   7.832   2.167   3.921
 4941TIP3    H214765   7.831   2.025   3.974
 4942TIP3   OH214766   0.606   0.198   1.309
 4942TIP3    H114767   0.625   0.182   1.402
 4942TIP3    H214768   0.512   0.217   1.306
 4943TIP3   OH214769   2.010   4.068   5.750
 4943TIP3    H114770   1.981   4.009   5.680
 4943TIP3    H214771   2.104   4.079   5.735
 4944TIP3   OH214772   6.113   7.509   2.957
 4944TIP3    H114773   6.047   7.559   2.910
 4944TIP3    H214774   6.066   7.434   2.994
 4945TIP3   OH214775   0.847   4.836   5.332
 4945TIP3    H114776   0.874   4.913   5.381
 4945TIP3    H214777   0.889   4.845   5.246
 4946TIP3   OH214778   0.417   6.568   1.958
 4946TIP3    H114779   0.370   6.592   2.038
 4946TIP3    H214780   0.474   6.497   1.984
 4947TIP3   OH214781   2.106   3.232   3.103
 4947TIP3    H114782   2.085   3.319   3.068
 4947TIP3    H214783   2.068   3.171   3.040
 4948TIP3   OH214784   6.364   3.770   4.630
 4948TIP3    H114785   6.354   3.806   4.542
 4948TIP3    H214786   6.283   3.793   4.674
 4949TIP3   OH214787   3.401   0.089   1.790
 4949TIP3    H114788   3.324   0.036   1.769
 4949TIP3    H214789   3.411   0.148   1.716
 4950TIP3   OH214790   7.936   4.132   2.385
 4950TIP3    H114791   8.023   4.156   2.416
 4950TIP3    H214792   7.943   4.040   2.359
 4951TIP3   OH214793   7.149   6.229   0.820
 4951TIP3    H114794   7.211   6.268   0.882
 4951TIP3    H214795   7.204   6.192   0.751
 4952TIP3   OH214796   2.190   3.692   2.251
 4952TIP3    H114797   2.167   3.621   2.191
 4952TIP3    H214798   2.211   3.647   2.333
 4953TIP3   OH214799   6.280   2.244   5.600
 4953TIP3    H114800   6.237   2.279   5.522
 4953TIP3    H214801   6.363   2.291   5.604
 4954TIP3   OH214802   6.358   3.138   2.816
 4954TIP3    H114803   6.400   3.224   2.819
 4954TIP3    H214804   6.346   3.120   2.723
 4955TIP3   OH214805   1.666   1.019   5.904
 4955TIP3    H114806   1.705   0.963   5.836
 4955TIP3    H214807   1.577   1.036   5.874
 4956TIP3   OH214808   1.596   7.308   1.836
 4956TIP3    H114809   1.600   7.236   1.773
 4956TIP3    H214810   1.510   7.348   1.821
 4957TIP3   OH214811   8.292   6.538   2.368
 4957TIP3    H114812   8.252   6.623   2.347
 4957TIP3    H214813   8.273   6.524   2.460
 4958TIP3   OH214814   8.337   7.639   3.222
 4958TIP3    H114815   8.396   7.567   3.201
 4958TIP3    H214816   8.336   7.643   3.317
 4959TIP3   OH214817   7.461   0.017   1.794
 4959TIP3    H114818   7.397   0.083   1.821
 4959TIP3    H214819   7.419  -0.067   1.814
 4960TIP3   OH214820   4.812   5.383   2.410
 4960TIP3    H114821   4.829   5.445   2.481
 4960TIP3    H214822   4.844   5.428   2.332
 4961TIP3   OH214823   6.821   4.257   2.459
 4961TIP3    H114824   6.913   4.265   2.482
 4961TIP3    H214825   6.791   4.179   2.506
 4962TIP3   OH214826   5.419   6.624   2.305
 4962TIP3    H114827   5.344   6.565   2.305
 4962TIP3    H214828   5.494   6.568   2.325
 4963TIP3   OH214829   5.085   4.221   3.848
 4963TIP3    H114830   5.049   4.132   3.845
 4963TIP3    H214831   5.086   4.243   3.942
 4964TIP3   OH214832   1.304   4.373   4.753
 4964TIP3    H114833   1.346   4.302   4.705
 4964TIP3    H214834   1.239   4.330   4.809
 4965TIP3   OH214835   2.752   3.907   5.994
 4965TIP3    H114836   2.762   3.965   5.918
 4965TIP3    H214837   2.813   3.835   5.978
 4966TIP3   OH214838   6.546   0.066   3.263
 4966TIP3    H114839   6.489   0.100   3.194
 4966TIP3    H214840   6.626   0.119   3.258
 4967TIP3   OH214841   0.750   2.194   1.316
 4967TIP3    H114842   0.828   2.228   1.359
 4967TIP3    H214843   0.696   2.159   1.387
 4968TIP3   OH214844   2.794   1.594   6.576
 4968TIP3    H114845   2.848   1.531   6.529
 4968TIP3    H214846   2.712   1.548   6.593
 4969TIP3   OH214847   6.709   0.647   0.736
 4969TIP3    H114848   6.791   0.638   0.784
 4969TIP3    H214849   6.692   0.741   0.735
 4970TIP3   OH214850   4.681   7.296   1.165
 4970TIP3    H114851   4.775   7.304   1.150
 4970TIP3    H214852   4.664   7.202   1.163
 4971TIP3   OH214853   6.387   1.499   3.635
 4971TIP3    H114854   6.385   1.552   3.715
 4971TIP3    H214855   6.297   1.502   3.602
 4972TIP3   OH214856   7.539   3.794   2.162
 4972TIP3    H114857   7.480   3.725   2.131
 4972TIP3    H214858   7.555   3.849   2.086
 4973TIP3   OH214859   4.046   2.299   2.678
 4973TIP3    H114860   4.118   2.330   2.624
 4973TIP3    H214861   4.025   2.212   2.643
 4974TIP3   OH214862   3.575   5.875   1.182
 4974TIP3    H114863   3.495   5.884   1.234
 4974TIP3    H214864   3.554   5.807   1.118
 4975TIP3   OH214865   3.223   3.158   4.443
 4975TIP3    H114866   3.310   3.196   4.441
 4975TIP3    H214867   3.198   3.149   4.351
 4976TIP3   OH214868   0.700   4.742   6.293
 4976TIP3    H114869   0.763   4.803   6.256
 4976TIP3    H214870   0.740   4.713   6.375
 4977TIP3   OH214871   4.600   4.885   5.295
 4977TIP3    H114872   4.653   4.816   5.254
 4977TIP3    H214873   4.574   4.941   5.222
 4978TIP3   OH214874   5.717   4.237   3.691
 4978TIP3    H114875   5.676   4.221   3.775
 4978TIP3    H214876   5.741   4.150   3.658
 4979TIP3   OH214877   4.988   7.611   1.866
 4979TIP3    H114878   5.071   7.580   1.832
 4979TIP3    H214879   4.999   7.611   1.961
 4980TIP3   OH214880   0.178   5.217   5.182
 4980TIP3    H114881   0.118   5.187   5.250
 4980TIP3    H214882   0.258   5.166   5.198
 4981TIP3   OH214883   3.741   7.760   4.880
 4981TIP3    H114884   3.665   7.710   4.911
 4981TIP3    H214885   3.738   7.753   4.785
 4982TIP3   OH214886   3.654   1.480   0.314
 4982TIP3    H114887   3.636   1.489   0.407
 4982TIP3    H214888   3.710   1.402   0.307
 4983TIP3   OH214889   5.371   6.765   5.073
 4983TIP3    H114890   5.359   6.674   5.048
 4983TIP3    H214891   5.464   6.772   5.095
 4984TIP3   OH214892   7.399   1.647   6.560
 4984TIP3    H114893   7.419   1.719   6.499
 4984TIP3    H214894   7.377   1.573   6.503
 4985TIP3   OH214895   8.102   3.370   1.150
 4985TIP3    H114896   8.080   3.278   1.137
 4985TIP3    H214897   8.111   3.406   1.062
 4986TIP3   OH214898   5.861   4.922   5.197
 4986TIP3    H114899   5.789   4.897   5.140
 4986TIP3    H214900   5.900   4.999   5.156
 4987TIP3   OH214901   2.312   3.573   4.486
 4987TIP3    H114902   2.401   3.592   4.515
 4987TIP3    H214903   2.298   3.481   4.508
 4988TIP3   OH214904   1.308   0.291   1.313
 4988TIP3    H114905   1.325   0.322   1.224
 4988TIP3    H214906   1.390   0.306   1.360
 4989TIP3   OH214907   6.338   0.991   3.138
 4989TIP3    H114908   6.270   1.030   3.083
 4989TIP3    H214909   6.299   0.987   3.225
 4990TIP3   OH214910   2.196   2.522   0.598
 4990TIP3    H114911   2.131   2.452   0.593
 4990TIP3    H214912   2.274   2.485   0.556
 4991TIP3   OH214913   1.694   7.407   3.841
 4991TIP3    H114914   1.702   7.311   3.838
 4991TIP3    H214915   1.784   7.439   3.828
 4992TIP3   OH214916   4.279   6.456   1.539
 4992TIP3    H114917   4.357   6.473   1.487
 4992TIP3    H214918   4.206   6.475   1.480
 4993TIP3   OH214919   2.905   3.677   5.945
 4993TIP3    H114920   2.848   3.599   5.945
 4993TIP3    H214921   2.978   3.653   5.888
 4994TIP3   OH214922   6.412   6.891   0.360
 4994TIP3    H114923   6.438   6.981   0.342
 4994TIP3    H214924   6.339   6.899   0.420
 4995TIP3   OH214925   3.802   2.598   3.544
 4995TIP3    H114926   3.711   2.597   3.574
 4995TIP3    H214927   3.815   2.686   3.509
 4996TIP3   OH214928   4.827   0.409   3.387
 4996TIP3    H114929   4.832   0.505   3.388
 4996TIP3    H214930   4.751   0.389   3.441
 4997TIP3   OH214931   7.750   5.934   2.691
 4997TIP3    H114932   7.791   5.967   2.771
 4997TIP3    H214933   7.666   5.981   2.686
 4998TIP3   OH214934   2.787   0.291   4.758
 4998TIP3    H114935   2.839   0.371   4.748
 4998TIP3    H214936   2.706   0.320   4.801
 4999TIP3   OH214937   3.133   0.692   3.320
 4999TIP3    H114938   3.112   0.610   3.275
 4999TIP3    H214939   3.057   0.749   3.304
 5000TIP3   OH214940   0.119   7.116   4.023
 5000TIP3    H114941   0.106   7.042   3.964
 5000TIP3    H214942   0.214   7.121   4.036
 5001TIP3   OH214943   0.281   6.727   4.497
 5001TIP3    H114944   0.224   6.651   4.505
 5001TIP3    H214945   0.237   6.796   4.546
 5002TIP3   OH214946   5.456   5.132   4.398
 5002TIP3    H114947   5.545   5.159   4.418
 5002TIP3    H214948   5.444   5.156   4.305
 5003TIP3   OH214949   7.803   7.593   2.481
 5003TIP3    H114950   7.725   7.564   2.434
 5003TIP3    H214951   7.773   7.605   2.571
 5004TIP3   OH214952   2.366   4.107   2.822
 5004TIP3    H114953   2.306   4.035   2.801
 5004TIP3    H214954   2.318   4.160   2.886
 5005TIP3   OH214955   0.863   1.212   2.019
 5005TIP3    H114956   0.837   1.295   1.978
 5005TIP3    H214957   0.807   1.146   1.977
 5006TIP3   OH214958   7.716   2.367   1.938
 5006TIP3    H114959   7.809   2.373   1.959
 5006TIP3    H214960   7.697   2.273   1.941
 5007TIP3   OH214961   5.542   0.900   3.722
 5007TIP3    H114962   5.598   0.927   3.795
 5007TIP3    H214963   5.521   0.809   3.740
 5008TIP3   OH214964   2.817   3.566   2.225
 5008TIP3    H114965   2.741   3.514   2.249
 5008TIP3    H214966   2.883   3.544   2.291
 5009TIP3   OH214967   7.705   5.689   0.213
 5009TIP3    H114968   7.666   5.656   0.132
 5009TIP3    H214969   7.673   5.779   0.219
 5010TIP3   OH214970   7.848   4.444   3.064
 5010TIP3    H114971   7.848   4.524   3.118
 5010TIP3    H214972   7.889   4.378   3.120
 5011TIP3   OH214973   1.677   0.667   2.466
 5011TIP3    H114974   1.618   0.734   2.500
 5011TIP3    H214975   1.650   0.656   2.375
 5012TIP3   OH214976   1.390   6.585   5.544
 5012TIP3    H114977   1.334   6.533   5.601
 5012TIP3    H214978   1.330   6.637   5.491
 5013TIP3   OH214979   6.552   0.624   0.230
 5013TIP3    H114980   6.471   0.622   0.280
 5013TIP3    H214981   6.617   0.658   0.291
 5014TIP3   OH214982   7.229   3.952   1.977
 5014TIP3    H114983   7.246   3.979   2.068
 5014TIP3    H214984   7.315   3.951   1.936
 5015TIP3   OH214985   0.774   5.152   5.430
 5015TIP3    H114986   0.723   5.128   5.507
 5015TIP3    H214987   0.796   5.244   5.444
 5016TIP3   OH214988   1.821   7.658   0.096
 5016TIP3    H114989   1.886   7.651   0.026
 5016TIP3    H214990   1.738   7.673   0.051
 5017TIP3   OH214991   5.175   0.793   6.505
 5017TIP3    H114992   5.127   0.807   6.423
 5017TIP3    H214993   5.107   0.792   6.572
 5018TIP3   OH214994   7.167   2.340   4.820
 5018TIP3    H114995   7.207   2.343   4.733
 5018TIP3    H214996   7.241   2.333   4.880
 5019TIP3   OH214997   3.193   6.409   1.460
 5019TIP3    H114998   3.157   6.493   1.490
 5019TIP3    H214999   3.117   6.362   1.425
 5020TIP3   OH215000   3.263   2.299   1.123
 5020TIP3    H115001   3.210   2.262   1.194
 5020TIP3    H215002   3.203   2.303   1.049
 5021TIP3   OH215003   7.996   3.435   3.335
 5021TIP3    H115004   7.951   3.512   3.370
 5021TIP3    H215005   8.038   3.466   3.255
 5022TIP3   OH215006   3.946   2.848   3.879
 5022TIP3    H115007   3.857   2.875   3.854
 5022TIP3    H215008   3.989   2.829   3.796
 5023TIP3   OH215009   3.446   4.066   4.328
 5023TIP3    H115010   3.400   4.081   4.245
 5023TIP3    H215011   3.448   3.971   4.338
 5024TIP3   OH215012   8.157   4.246   1.716
 5024TIP3    H115013   8.199   4.177   1.665
 5024TIP3    H215014   8.225   4.314   1.723
 5025TIP3   OH215015   7.495   0.615   2.643
 5025TIP3    H115016   7.411   0.588   2.680
 5025TIP3    H215017   7.560   0.573   2.698
 5026TIP3   OH215018   6.171   5.449   3.026
 5026TIP3    H115019   6.219   5.482   3.102
 5026TIP3    H215020   6.240   5.426   2.963
 5027TIP3   OH215021   4.573   4.707   0.860
 5027TIP3    H115022   4.479   4.690   0.855
 5027TIP3    H215023   4.595   4.693   0.952
 5028TIP3   OH215024   5.284   4.583   4.352
 5028TIP3    H115025   5.317   4.494   4.359
 5028TIP3    H215026   5.225   4.581   4.277
 5029TIP3   OH215027   4.746   5.356   4.515
 5029TIP3    H115028   4.691   5.312   4.451
 5029TIP3    H215029   4.708   5.443   4.524
 5030TIP3   OH215030   1.850   4.304   0.408
 5030TIP3    H115031   1.888   4.245   0.344
 5030TIP3    H215032   1.794   4.248   0.462
 5031TIP3   OH215033   2.268   7.207   5.467
 5031TIP3    H115034   2.327   7.146   5.424
 5031TIP3    H215035   2.217   7.153   5.528
 5032TIP3   OH215036   3.852   6.606   5.305
 5032TIP3    H115037   3.862   6.589   5.399
 5032TIP3    H215038   3.931   6.656   5.282
 5033TIP3   OH215039   0.234   3.915   2.382
 5033TIP3    H115040   0.199   3.858   2.314
 5033TIP3    H215041   0.157   3.948   2.429
 5034TIP3   OH215042   4.861   1.332   2.782
 5034TIP3    H115043   4.855   1.405   2.722
 5034TIP3    H215044   4.945   1.291   2.763
 5035TIP3   OH215045   2.432   4.751   0.409
 5035TIP3    H115046   2.453   4.696   0.484
 5035TIP3    H215047   2.426   4.690   0.335
 5036TIP3   OH215048   0.648   5.825   5.434
 5036TIP3    H115049   0.622   5.832   5.526
 5036TIP3    H215050   0.591   5.887   5.389
 5037TIP3   OH215051   3.783   3.104   5.666
 5037TIP3    H115052   3.769   3.010   5.660
 5037TIP3    H215053   3.832   3.117   5.748
 5038TIP3   OH215054   0.891   4.768   1.370
 5038TIP3    H115055   0.828   4.826   1.326
 5038TIP3    H215056   0.863   4.768   1.461
 5039TIP3   OH215057   0.768   2.578   4.470
 5039TIP3    H115058   0.845   2.522   4.458
 5039TIP3    H215059   0.719   2.536   4.541
 5040TIP3   OH215060   8.360   1.285   5.043
 5040TIP3    H115061   8.407   1.365   5.020
 5040TIP3    H215062   8.337   1.245   4.959
 5041TIP3   OH215063   0.017   1.662   0.630
 5041TIP3    H115064   0.009   1.756   0.648
 5041TIP3    H215065   0.091   1.634   0.685
 5042TIP3   OH215066   1.088   6.326   3.355
 5042TIP3    H115067   1.016   6.387   3.343
 5042TIP3    H215068   1.092   6.277   3.273
 5043TIP3   OH215069   8.271   2.536   4.722
 5043TIP3    H115070   8.306   2.567   4.638
 5043TIP3    H215071   8.192   2.487   4.699
 5044TIP3   OH215072   2.108   5.321   0.522
 5044TIP3    H115073   2.032   5.266   0.500
 5044TIP3    H215074   2.092   5.403   0.476
 5045TIP3   OH215075   0.464   3.157   5.798
 5045TIP3    H115076   0.528   3.096   5.760
 5045TIP3    H215077   0.404   3.176   5.726
 5046TIP3   OH215078   4.032   5.482   2.462
 5046TIP3    H115079   3.987   5.397   2.462
 5046TIP3    H215080   4.056   5.496   2.553
 5047TIP3   OH215081   2.442   1.763   2.075
 5047TIP3    H115082   2.413   1.794   2.160
 5047TIP3    H215083   2.470   1.842   2.028
 5048TIP3   OH215084   6.684   6.740   1.605
 5048TIP3    H115085   6.620   6.670   1.612
 5048TIP3    H215086   6.769   6.695   1.604
 5049TIP3   OH215087   1.509   2.964   3.291
 5049TIP3    H115088   1.449   2.897   3.322
 5049TIP3    H215089   1.451   3.033   3.257
 5050TIP3   OH215090   5.568   6.191   5.078
 5050TIP3    H115091   5.601   6.252   5.144
 5050TIP3    H215092   5.536   6.247   5.008
 5051TIP3   OH215093   2.451   3.808   1.151
 5051TIP3    H115094   2.398   3.829   1.228
 5051TIP3    H215095   2.535   3.782   1.187
 5052TIP3   OH215096   2.047   6.687   4.007
 5052TIP3    H115097   1.970   6.654   3.961
 5052TIP3    H215098   2.049   6.780   3.987
 5053TIP3   OH215099   5.098   5.135   0.664
 5053TIP3    H115100   5.176   5.188   0.645
 5053TIP3    H215101   5.061   5.176   0.742
 5054TIP3   OH215102   2.429   7.493   1.390
 5054TIP3    H115103   2.479   7.421   1.352
 5054TIP3    H215104   2.486   7.529   1.457
 5055TIP3   OH215105   3.642   0.305   3.083
 5055TIP3    H115106   3.598   0.390   3.091
 5055TIP3    H215107   3.622   0.275   2.994
 5056TIP3   OH215108   5.308   6.906   2.061
 5056TIP3    H115109   5.357   6.980   2.026
 5056TIP3    H215110   5.288   6.852   1.985
 5057TIP3   OH215111   7.522   1.426   1.515
 5057TIP3    H115112   7.439   1.468   1.537
 5057TIP3    H215113   7.542   1.459   1.427
 5058TIP3   OH215114   5.358   0.614   6.400
 5058TIP3    H115115   5.306   0.679   6.446
 5058TIP3    H215116   5.325   0.530   6.432
 5059TIP3   OH215117   0.504   7.469   5.973
 5059TIP3    H115118   0.544   7.547   6.012
 5059TIP3    H215119   0.528   7.397   6.031
 5060TIP3   OH215120   1.066   1.700   1.176
 5060TIP3    H115121   1.125   1.655   1.237
 5060TIP3    H215122   1.000   1.739   1.233
 5061TIP3   OH215123   5.310   7.430   6.806
 5061TIP3    H115124   5.245   7.361   6.791
 5061TIP3    H215125   5.364   7.431   6.727
 5062TIP3   OH215126   8.062   1.564   0.472
 5062TIP3    H115127   8.094   1.599   0.555
 5062TIP3    H215128   8.130   1.587   0.409
 5063TIP3   OH215129   3.458   6.400   3.955
 5063TIP3    H115130   3.431   6.488   3.983
 5063TIP3    H215131   3.552   6.407   3.940
 5064TIP3   OH215132   1.392   7.630   2.770
 5064TIP3    H115133   1.316   7.686   2.757
 5064TIP3    H215134   1.450   7.682   2.826
 5065TIP3   OH215135   7.529   3.163   2.906
 5065TIP3    H115136   7.461   3.204   2.959
 5065TIP3    H215137   7.610   3.178   2.955
 5066TIP3   OH215138   6.039   7.079   5.349
 5066TIP3    H115139   5.967   7.018   5.369
 5066TIP3    H215140   6.017   7.158   5.398
 5067TIP3   OH215141   0.752   6.834   6.100
 5067TIP3    H115142   0.821   6.775   6.130
 5067TIP3    H215143   0.798   6.902   6.050
 5068TIP3   OH215144   0.429   6.191   1.997
 5068TIP3    H115145   0.421   6.124   2.065
 5068TIP3    H215146   0.486   6.257   2.036
 5069TIP3   OH215147   3.436   0.735   1.374
 5069TIP3    H115148   3.503   0.693   1.428
 5069TIP3    H215149   3.455   0.706   1.285
 5070TIP3   OH215150   4.801   6.681   0.926
 5070TIP3    H115151   4.837   6.601   0.888
 5070TIP3    H215152   4.768   6.730   0.851
 5071TIP3   OH215153   5.722   1.888   2.143
 5071TIP3    H115154   5.722   1.941   2.223
 5071TIP3    H215155   5.647   1.829   2.152
 5072TIP3   OH215156   3.043   0.524   1.927
 5072TIP3    H115157   3.017   0.549   1.838
 5072TIP3    H215158   2.966   0.540   1.980
 5073TIP3   OH215159   5.894   0.037   3.437
 5073TIP3    H115160   5.907   0.089   3.515
 5073TIP3    H215161   5.827  -0.027   3.462
 5074TIP3   OH215162   7.244   5.319   6.326
 5074TIP3    H115163   7.229   5.373   6.404
 5074TIP3    H215164   7.260   5.383   6.256
 5075TIP3   OH215165   3.627   2.751   1.006
 5075TIP3    H115166   3.591   2.747   1.094
 5075TIP3    H215167   3.645   2.660   0.983
 5076TIP3   OH215168   5.279   6.430   6.106
 5076TIP3    H115169   5.203   6.465   6.060
 5076TIP3    H215170   5.335   6.395   6.037
 5077TIP3   OH215171   1.192   2.587   0.929
 5077TIP3    H115172   1.272   2.574   0.878
 5077TIP3    H215173   1.150   2.501   0.929
 5078TIP3   OH215174   7.710   1.763   1.644
 5078TIP3    H115175   7.741   1.828   1.580
 5078TIP3    H215176   7.691   1.685   1.591
 5079TIP3   OH215177   5.466   2.329   0.950
 5079TIP3    H115178   5.397   2.355   1.011
 5079TIP3    H215179   5.443   2.240   0.924
 5080TIP3   OH215180   8.244   6.961   1.401
 5080TIP3    H115181   8.298   6.958   1.480
 5080TIP3    H215182   8.306   6.954   1.329
 5081TIP3   OH215183   5.573   2.077   3.709
 5081TIP3    H115184   5.666   2.071   3.685
 5081TIP3    H215185   5.573   2.097   3.803
 5082TIP3   OH215186   4.784   5.693   3.427
 5082TIP3    H115187   4.689   5.695   3.429
 5082TIP3    H215188   4.805   5.615   3.375
 5083TIP3   OH215189   2.023   4.345   2.144
 5083TIP3    H115190   2.105   4.386   2.117
 5083TIP3    H215191   2.031   4.254   2.116
 5084TIP3   OH215192   4.862   5.180   5.372
 5084TIP3    H115193   4.811   5.175   5.290
 5084TIP3    H215194   4.892   5.270   5.377
 5085TIP3   OH215195   1.805   1.342   4.094
 5085TIP3    H115196   1.827   1.421   4.044
 5085TIP3    H215197   1.710   1.335   4.085
 5086TIP3   OH215198   4.827   4.875   2.223
 5086TIP3    H115199   4.733   4.870   2.204
 5086TIP3    H215200   4.855   4.783   2.225
 5087TIP3   OH215201   8.020   5.106   0.396
 5087TIP3    H115202   7.932   5.128   0.367
 5087TIP3    H215203   8.068   5.189   0.390
 5088TIP3   OH215204   2.124   3.975   0.957
 5088TIP3    H115205   2.172   4.040   1.008
 5088TIP3    H215206   2.185   3.903   0.946
 5089TIP3   OH215207   3.905   0.432   1.932
 5089TIP3    H115208   3.855   0.475   2.002
 5089TIP3    H215209   3.972   0.382   1.978
 5090TIP3   OH215210   3.752   7.130   2.056
 5090TIP3    H115211   3.681   7.068   2.073
 5090TIP3    H215212   3.714   7.216   2.075
 5091TIP3   OH215213   6.912   7.274   0.682
 5091TIP3    H115214   6.828   7.312   0.706
 5091TIP3    H215215   6.952   7.339   0.624
 5092TIP3   OH215216   6.901   6.728   5.775
 5092TIP3    H115217   6.879   6.722   5.868
 5092TIP3    H215218   6.823   6.696   5.730
 5093TIP3   OH215219   0.532   0.727   6.018
 5093TIP3    H115220   0.619   0.732   5.978
 5093TIP3    H215221   0.550   0.702   6.109
 5094TIP3   OH215222   7.335   7.277   5.308
 5094TIP3    H115223   7.410   7.336   5.312
 5094TIP3    H215224   7.280   7.313   5.238
 5095TIP3   OH215225   3.980   0.277   5.620
 5095TIP3    H115226   4.054   0.258   5.679
 5095TIP3    H215227   3.942   0.357   5.654
 5096TIP3   OH215228   8.009   0.290   0.535
 5096TIP3    H115229   8.059   0.237   0.597
 5096TIP3    H215230   7.918   0.266   0.552
 5097TIP3   OH215231   1.000   0.754   3.528
 5097TIP3    H115232   0.906   0.771   3.520
 5097TIP3    H215233   1.010   0.713   3.614
 5098TIP3   OH215234   4.586   0.616   1.098
 5098TIP3    H115235   4.539   0.532   1.093
 5098TIP3    H215236   4.673   0.596   1.064
 5099TIP3   OH215237   6.713   4.005   5.244
 5099TIP3    H115238   6.679   3.959   5.167
 5099TIP3    H215239   6.667   3.966   5.318
 5100TIP3   OH215240   4.086   7.279   5.667
 5100TIP3    H115241   4.180   7.297   5.671
 5100TIP3    H215242   4.050   7.350   5.614
 5101TIP3   OH215243   0.498   3.083   5.192
 5101TIP3    H115244   0.417   3.133   5.180
 5101TIP3    H215245   0.568   3.145   5.170
 5102TIP3   OH215246   4.484   2.264   1.598
 5102TIP3    H115247   4.548   2.325   1.636
 5102TIP3    H215248   4.485   2.283   1.505
 5103TIP3   OH215249   4.265   1.931   0.145
 5103TIP3    H115250   4.251   2.026   0.144
 5103TIP3    H215251   4.302   1.913   0.231
 5104TIP3   OH215252   0.184   0.248   3.363
 5104TIP3    H115253   0.109   0.190   3.348
 5104TIP3    H215254   0.150   0.318   3.418
 5105TIP3   OH215255   2.058   7.193   2.159
 5105TIP3    H115256   2.015   7.114   2.125
 5105TIP3    H215257   2.138   7.160   2.201
 5106TIP3   OH215258   6.048   3.036   4.584
 5106TIP3    H115259   6.114   3.103   4.570
 5106TIP3    H215260   6.021   3.009   4.495
 5107TIP3   OH215261   6.516   1.702   1.527
 5107TIP3    H115262   6.528   1.796   1.534
 5107TIP3    H215263   6.469   1.678   1.607
 5108TIP3   OH215264   3.500   4.998   6.532
 5108TIP3    H115265   3.590   4.989   6.561
 5108TIP3    H215266   3.500   5.076   6.477
 5109TIP3   OH215267   7.352   4.438   0.652
 5109TIP3    H115268   7.410   4.434   0.576
 5109TIP3    H215269   7.338   4.347   0.676
 5110TIP3   OH215270   4.915   3.715   2.525
 5110TIP3    H115271   4.877   3.790   2.570
 5110TIP3    H215272   4.925   3.649   2.594
 5111TIP3   OH215273   1.100   7.671   2.460
 5111TIP3    H115274   1.158   7.700   2.389
 5111TIP3    H215275   1.073   7.583   2.434
 5112TIP3   OH215276   6.561   3.491   2.692
 5112TIP3    H115277   6.624   3.546   2.738
 5112TIP3    H215278   6.482   3.545   2.686
 5113TIP3   OH215279   3.689   4.985   5.620
 5113TIP3    H115280   3.673   5.069   5.663
 5113TIP3    H215281   3.781   4.989   5.593
 5114TIP3   OH215282   2.134   4.897   4.531
 5114TIP3    H115283   2.172   4.981   4.555
 5114TIP3    H215284   2.042   4.917   4.513
 5115TIP3   OH215285   0.202   2.908   2.124
 5115TIP3    H115286   0.143   2.979   2.100
 5115TIP3    H215287   0.259   2.898   2.047
 5116TIP3   OH215288   8.036   3.540   0.432
 5116TIP3    H115289   8.022   3.473   0.500
 5116TIP3    H215290   8.005   3.621   0.472
 5117TIP3   OH215291   4.035   7.410   1.038
 5117TIP3    H115292   4.052   7.378   0.949
 5117TIP3    H215293   3.970   7.349   1.073
 5118TIP3   OH215294   7.961   1.016   4.457
 5118TIP3    H115295   8.053   0.992   4.456
 5118TIP3    H215296   7.917   0.941   4.496
 5119TIP3   OH215297   1.310   7.491   1.670
 5119TIP3    H115298   1.253   7.456   1.603
 5119TIP3    H215299   1.397   7.496   1.629
 5120TIP3   OH215300   8.389   3.930   0.514
 5120TIP3    H115301   8.349   3.890   0.437
 5120TIP3    H215302   8.323   3.993   0.544
 5121TIP3   OH215303   7.883   7.392   4.201
 5121TIP3    H115304   7.791   7.417   4.203
 5121TIP3    H215305   7.902   7.361   4.289
 5122TIP3   OH215306   2.839   1.550   6.123
 5122TIP3    H115307   2.761   1.558   6.068
 5122TIP3    H215308   2.909   1.589   6.070
 5123TIP3   OH215309   2.374   4.312   0.155
 5123TIP3    H115310   2.406   4.261   0.080
 5123TIP3    H215311   2.280   4.318   0.141
 5124TIP3   OH215312   5.907   4.603   5.786
 5124TIP3    H115313   5.848   4.550   5.839
 5124TIP3    H215314   5.964   4.539   5.743
 5125TIP3   OH215315   4.510   2.810   0.955
 5125TIP3    H115316   4.509   2.902   0.980
 5125TIP3    H215317   4.602   2.789   0.944
 5126TIP3   OH215318   7.078   4.269   1.864
 5126TIP3    H115319   7.014   4.233   1.802
 5126TIP3    H215320   7.036   4.259   1.950
 5127TIP3   OH215321   0.539   1.929   1.158
 5127TIP3    H115322   0.633   1.917   1.143
 5127TIP3    H215323   0.504   1.957   1.074
 5128TIP3   OH215324   3.742   6.747   2.768
 5128TIP3    H115325   3.769   6.703   2.848
 5128TIP3    H215326   3.647   6.737   2.766
 5129TIP3   OH215327   6.243   4.047   2.795
 5129TIP3    H115328   6.315   4.103   2.826
 5129TIP3    H215329   6.249   3.969   2.850
 5130TIP3   OH215330   2.882   2.537   3.772
 5130TIP3    H115331   2.828   2.580   3.839
 5130TIP3    H215332   2.929   2.469   3.820
 5131TIP3   OH215333   1.734   4.389   6.868
 5131TIP3    H115334   1.767   4.302   6.846
 5131TIP3    H215335   1.682   4.415   6.791
 5132TIP3   OH215336   1.908   2.777   0.428
 5132TIP3    H115337   1.971   2.744   0.364
 5132TIP3    H215338   1.948   2.760   0.513
 5133TIP3   OH215339   6.509   1.915   0.465
 5133TIP3    H115340   6.472   1.928   0.552
 5133TIP3    H215341   6.490   1.823   0.444
 5134TIP3   OH215342   6.845   6.482   0.014
 5134TIP3    H115343   6.883   6.553   0.066
 5134TIP3    H215344   6.921   6.437  -0.024
 5135TIP3   OH215345   3.055   4.723   1.304
 5135TIP3    H115346   2.971   4.769   1.299
 5135TIP3    H215347   3.096   4.737   1.219
 5136TIP3   OH215348   0.890   1.264   3.150
 5136TIP3    H115349   0.929   1.246   3.065
 5136TIP3    H215350   0.796   1.255   3.137
 5137TIP3   OH215351   6.341   2.544   2.238
 5137TIP3    H115352   6.371   2.488   2.166
 5137TIP3    H215353   6.256   2.576   2.209
 5138TIP3   OH215354   1.936   7.531   0.736
 5138TIP3    H115355   1.999   7.483   0.682
 5138TIP3    H215356   1.851   7.512   0.696
 5139TIP3   OH215357   0.223   5.410   0.937
 5139TIP3    H115358   0.223   5.465   0.858
 5139TIP3    H215359   0.162   5.453   0.996
 5140TIP3   OH215360   4.124   2.971   1.599
 5140TIP3    H115361   4.111   2.982   1.505
 5140TIP3    H215362   4.186   2.898   1.606
 5141TIP3   OH215363   5.906   7.071   0.548
 5141TIP3    H115364   5.972   7.106   0.488
 5141TIP3    H215365   5.916   7.124   0.627
 5142TIP3   OH215366   1.222   3.400   5.094
 5142TIP3    H115367   1.153   3.465   5.094
 5142TIP3    H215368   1.184   3.324   5.139
 5143TIP3   OH215369   2.667   1.460   1.929
 5143TIP3    H115370   2.703   1.519   1.995
 5143TIP3    H215371   2.732   1.391   1.920
 5144TIP3   OH215372   0.775   3.098   5.424
 5144TIP3    H115373   0.789   3.184   5.385
 5144TIP3    H215374   0.688   3.103   5.463
 5145TIP3   OH215375   6.726   0.159   1.232
 5145TIP3    H115376   6.760   0.072   1.253
 5145TIP3    H215377   6.740   0.210   1.311
 5146TIP3   OH215378   3.506   0.117   5.255
 5146TIP3    H115379   3.451   0.189   5.286
 5146TIP3    H215380   3.588   0.127   5.304
 5147TIP3   OH215381   8.094   1.368   4.598
 5147TIP3    H115382   8.092   1.464   4.606
 5147TIP3    H215383   8.002   1.343   4.602
 5148TIP3   OH215384   5.192   5.279   0.109
 5148TIP3    H115385   5.248   5.314   0.040
 5148TIP3    H215386   5.226   5.317   0.190
 5149TIP3   OH215387   1.154   2.555   1.899
 5149TIP3    H115388   1.246   2.576   1.915
 5149TIP3    H215389   1.124   2.622   1.837
 5150TIP3   OH215390   5.850   5.408   0.922
 5150TIP3    H115391   5.794   5.435   0.850
 5150TIP3    H215392   5.844   5.479   0.986
 5151TIP3   OH215393   5.413   5.820   4.576
 5151TIP3    H115394   5.381   5.737   4.539
 5151TIP3    H215395   5.356   5.887   4.539
 5152TIP3   OH215396   0.379   6.630   5.268
 5152TIP3    H115397   0.340   6.717   5.266
 5152TIP3    H215398   0.466   6.642   5.229
 5153TIP3   OH215399   4.187   4.764   2.704
 5153TIP3    H115400   4.161   4.846   2.662
 5153TIP3    H215401   4.160   4.696   2.641
 5154TIP3   OH215402   1.696   6.978   4.098
 5154TIP3    H115403   1.727   6.906   4.044
 5154TIP3    H215404   1.615   7.006   4.056
 5155TIP3   OH215405   3.102   0.327   4.526
 5155TIP3    H115406   3.076   0.247   4.481
 5155TIP3    H215407   3.172   0.300   4.586
 5156TIP3   OH215408   3.163   7.812   2.523
 5156TIP3    H115409   3.188   7.864   2.446
 5156TIP3    H215410   3.234   7.826   2.585
 5157TIP3   OH215411   5.381   7.118   0.080
 5157TIP3    H115412   5.377   7.193   0.138
 5157TIP3    H215413   5.409   7.155  -0.005
 5158TIP3   OH215414   1.837   4.528   0.578
 5158TIP3    H115415   1.788   4.469   0.636
 5158TIP3    H215416   1.842   4.481   0.495
 5159TIP3   OH215417   0.841   7.686   5.943
 5159TIP3    H115418   0.825   7.703   5.850
 5159TIP3    H215419   0.800   7.760   5.988
 5160TIP3   OH215420   4.350   2.868   1.267
 5160TIP3    H115421   4.405   2.794   1.292
 5160TIP3    H215422   4.270   2.857   1.319
 5161TIP3   OH215423   7.049   2.687   1.012
 5161TIP3    H115424   7.025   2.776   1.039
 5161TIP3    H215425   6.971   2.634   1.030
 5162TIP3   OH215426   4.445   0.976   4.722
 5162TIP3    H115427   4.391   0.925   4.662
 5162TIP3    H215428   4.505   0.912   4.760
 5163TIP3   OH215429   2.955   4.605   1.953
 5163TIP3    H115430   2.950   4.609   1.857
 5163TIP3    H215431   3.015   4.532   1.970
 5164TIP3   OH215432   1.757   4.018   4.913
 5164TIP3    H115433   1.745   3.988   4.823
 5164TIP3    H215434   1.730   3.944   4.967
 5165TIP3   OH215435   6.016   0.980   5.200
 5165TIP3    H115436   5.920   0.984   5.205
 5165TIP3    H215437   6.037   1.019   5.115
 5166TIP3   OH215438   6.639   7.499   3.171
 5166TIP3    H115439   6.646   7.477   3.264
 5166TIP3    H215440   6.595   7.585   3.170
 5167TIP3   OH215441   4.574   2.605   0.548
 5167TIP3    H115442   4.555   2.563   0.464
 5167TIP3    H215443   4.548   2.697   0.535
 5168TIP3   OH215444   6.883   3.590   4.818
 5168TIP3    H115445   6.838   3.608   4.736
 5168TIP3    H215446   6.958   3.650   4.818
 5169TIP3   OH215447   3.943   0.027   0.964
 5169TIP3    H115448   4.008   0.018   1.034
 5169TIP3    H215449   3.988   0.077   0.896
 5170TIP3   OH215450   7.282   4.495   5.401
 5170TIP3    H115451   7.269   4.491   5.495
 5170TIP3    H215452   7.315   4.408   5.377
 5171TIP3   OH215453   3.446   7.305   3.811
 5171TIP3    H115454   3.460   7.393   3.846
 5171TIP3    H215455   3.355   7.285   3.834
 5172TIP3   OH215456   0.746   4.096   4.267
 5172TIP3    H115457   0.666   4.138   4.297
 5172TIP3    H215458   0.803   4.168   4.239
 5173TIP3   OH215459   3.399   6.983   2.309
 5173TIP3    H115460   3.336   7.046   2.344
 5173TIP3    H215461   3.369   6.898   2.341
 5174TIP3   OH215462   6.979   0.108   4.076
 5174TIP3    H115463   6.905   0.159   4.108
 5174TIP3    H215464   6.988   0.036   4.139
 5175TIP3   OH215465   2.379   1.584   6.147
 5175TIP3    H115466   2.396   1.602   6.055
 5175TIP3    H215467   2.293   1.624   6.164
 5176TIP3   OH215468   8.217   3.628   3.105
 5176TIP3    H115469   8.290   3.567   3.110
 5176TIP3    H215470   8.223   3.680   3.185
 5177TIP3   OH215471   7.576   6.708   0.711
 5177TIP3    H115472   7.536   6.779   0.762
 5177TIP3    H215473   7.517   6.634   0.723
 5178TIP3   OH215474   1.269   1.621   1.361
 5178TIP3    H115475   1.249   1.693   1.420
 5178TIP3    H215476   1.343   1.576   1.401
 5179TIP3   OH215477   5.825   3.011   2.166
 5179TIP3    H115478   5.918   3.020   2.148
 5179TIP3    H215479   5.821   2.957   2.245
 5180TIP3   OH215480   7.155   3.452   4.666
 5180TIP3    H115481   7.160   3.477   4.574
 5180TIP3    H215482   7.179   3.532   4.714
 5181TIP3   OH215483   2.229   2.458   1.796
 5181TIP3    H115484   2.294   2.507   1.846
 5181TIP3    H215485   2.252   2.366   1.809
 5182TIP3   OH215486   4.642   5.270   6.056
 5182TIP3    H115487   4.723   5.262   6.006
 5182TIP3    H215488   4.575   5.231   5.999
 5183TIP3   OH215489   2.440   2.464   4.991
 5183TIP3    H115490   2.403   2.454   5.078
 5183TIP3    H215491   2.475   2.377   4.970
 5184TIP3   OH215492   4.361   1.303   4.439
 5184TIP3    H115493   4.367   1.385   4.390
 5184TIP3    H215494   4.440   1.301   4.493
 5185TIP3   OH215495   5.585   4.095   2.137
 5185TIP3    H115496   5.627   4.032   2.195
 5185TIP3    H215497   5.606   4.065   2.048
 5186TIP3   OH215498   7.768   6.775   3.353
 5186TIP3    H115499   7.816   6.842   3.305
 5186TIP3    H215500   7.811   6.771   3.439
 5187TIP3   OH215501   0.591   0.547   2.767
 5187TIP3    H115502   0.658   0.540   2.699
 5187TIP3    H215503   0.583   0.641   2.783
 5188TIP3   OH215504   5.631   1.451   4.033
 5188TIP3    H115505   5.689   1.478   3.962
 5188TIP3    H215506   5.564   1.519   4.038
 5189TIP3   OH215507   4.194   4.611   1.472
 5189TIP3    H115508   4.185   4.696   1.516
 5189TIP3    H215509   4.148   4.621   1.389
 5190TIP3   OH215510   7.420   3.776   2.736
 5190TIP3    H115511   7.371   3.719   2.677
 5190TIP3    H215512   7.512   3.758   2.717
 5191TIP3   OH215513   1.827   1.249   5.844
 5191TIP3    H115514   1.802   1.263   5.752
 5191TIP3    H215515   1.778   1.172   5.871
 5192TIP3   OH215516   3.971   1.146   0.056
 5192TIP3    H115517   3.955   1.052   0.058
 5192TIP3    H215518   3.923   1.180   0.132
 5193TIP3   OH215519   0.343   5.459   5.130
 5193TIP3    H115520   0.433   5.445   5.158
 5193TIP3    H215521   0.296   5.382   5.160
 5194TIP3   OH215522   3.082   4.027   6.287
 5194TIP3    H115523   3.129   4.099   6.328
 5194TIP3    H215524   2.997   4.025   6.331
 5195TIP3   OH215525   7.732   4.681   0.966
 5195TIP3    H115526   7.694   4.734   1.036
 5195TIP3    H215527   7.719   4.733   0.887
 5196TIP3   OH215528   7.154   0.908   0.865
 5196TIP3    H115529   7.247   0.930   0.864
 5196TIP3    H215530   7.132   0.893   0.773
 5197TIP3   OH215531   1.827   2.957   1.426
 5197TIP3    H115532   1.834   2.976   1.333
 5197TIP3    H215533   1.784   3.035   1.463
 5198TIP3   OH215534   5.293   5.085   3.504
 5198TIP3    H115535   5.275   4.999   3.543
 5198TIP3    H215536   5.222   5.097   3.440
 5199TIP3   OH215537   6.111   6.600   2.035
 5199TIP3    H115538   6.112   6.696   2.038
 5199TIP3    H215539   6.021   6.578   2.012
 5200TIP3   OH215540   3.540   4.821   1.642
 5200TIP3    H115541   3.562   4.787   1.556
 5200TIP3    H215542   3.446   4.840   1.637
 5201TIP3   OH215543   2.001   6.509   0.122
 5201TIP3    H115544   1.918   6.550   0.147
 5201TIP3    H215545   1.979   6.452   0.048
 5202TIP3   OH215546   6.200   2.095   5.030
 5202TIP3    H115547   6.110   2.062   5.018
 5202TIP3    H215548   6.254   2.016   5.034
 5203TIP3   OH215549   3.690   6.962   6.415
 5203TIP3    H115550   3.672   7.053   6.438
 5203TIP3    H215551   3.615   6.935   6.361
 5204TIP3   OH215552   2.638   4.434   1.784
 5204TIP3    H115553   2.603   4.439   1.695
 5204TIP3    H215554   2.728   4.404   1.773
 5205TIP3   OH215555   1.808   6.727   5.304
 5205TIP3    H115556   1.894   6.686   5.314
 5205TIP3    H215557   1.761   6.703   5.384
 5206TIP3   OH215558   0.052   4.293   6.443
 5206TIP3    H115559   0.034   4.260   6.531
 5206TIP3    H215560   0.044   4.217   6.386
 5207TIP3   OH215561   8.211   0.159   0.954
 5207TIP3    H115562   8.285   0.104   0.979
 5207TIP3    H215563   8.153   0.157   1.030
 5208TIP3   OH215564   7.173   4.253   5.039
 5208TIP3    H115565   7.215   4.280   5.120
 5208TIP3    H215566   7.143   4.334   4.998
 5209TIP3   OH215567   1.202   7.890   0.660
 5209TIP3    H115568   1.245   7.934   0.587
 5209TIP3    H215569   1.213   7.797   0.641
 5210TIP3   OH215570   2.499   1.668   1.765
 5210TIP3    H115571   2.576   1.673   1.822
 5210TIP3    H215572   2.526   1.611   1.693
 5211TIP3   OH215573   6.440   6.105   3.857
 5211TIP3    H115574   6.522   6.124   3.812
 5211TIP3    H215575   6.428   6.179   3.917
 5212TIP3   OH215576   2.160   7.832   3.818
 5212TIP3    H115577   2.130   7.759   3.873
 5212TIP3    H215578   2.096   7.902   3.835
 5213TIP3   OH215579   5.971   5.794   5.695
 5213TIP3    H115580   5.919   5.713   5.689
 5213TIP3    H215581   6.058   5.769   5.666
 5214TIP3   OH215582   5.710   1.030   5.232
 5214TIP3    H115583   5.622   1.006   5.260
 5214TIP3    H215584   5.700   1.116   5.191
 5215TIP3   OH215585   4.893   0.037   0.078
 5215TIP3    H115586   4.911  -0.013  -0.002
 5215TIP3    H215587   4.833   0.105   0.050
 5216TIP3   OH215588   3.496   6.952   3.082
 5216TIP3    H115589   3.456   6.907   3.008
 5216TIP3    H215590   3.438   7.027   3.098
 5217TIP3   OH215591   4.483   5.132   5.869
 5217TIP3    H115592   4.399   5.087   5.877
 5217TIP3    H215593   4.461   5.216   5.829
 5218TIP3   OH215594   4.306   5.595   3.215
 5218TIP3    H115595   4.264   5.532   3.157
 5218TIP3    H215596   4.235   5.629   3.269
 5219TIP3   OH215597   2.985   4.404   5.844
 5219TIP3    H115598   2.897   4.443   5.843
 5219TIP3    H215599   3.036   4.462   5.900
 5220TIP3   OH215600   5.762   6.837   5.813
 5220TIP3    H115601   5.856   6.835   5.794
 5220TIP3    H215602   5.722   6.869   5.732
 5221TIP3   OH215603   7.246   6.519   0.276
 5221TIP3    H115604   7.288   6.604   0.266
 5221TIP3    H215605   7.188   6.529   0.352
 5222TIP3   OH215606   4.170   7.395   1.943
 5222TIP3    H115607   4.154   7.361   2.031
 5222TIP3    H215608   4.125   7.332   1.885
 5223TIP3   OH215609   7.795   3.153   0.271
 5223TIP3    H115610   7.818   3.166   0.363
 5223TIP3    H215611   7.747   3.070   0.270
 5224TIP3   OH215612   1.717   0.270   4.971
 5224TIP3    H115613   1.788   0.238   4.914
 5224TIP3    H215614   1.755   0.273   5.058
 5225TIP3   OH215615   6.125   5.997   2.948
 5225TIP3    H115616   6.116   5.903   2.933
 5225TIP3    H215617   6.115   6.007   3.043
 5226TIP3   OH215618   5.511   4.448   2.187
 5226TIP3    H115619   5.543   4.523   2.137
 5226TIP3    H215620   5.446   4.485   2.247
 5227TIP3   OH215621   4.569   7.027   2.543
 5227TIP3    H115622   4.546   6.971   2.468
 5227TIP3    H215623   4.494   7.085   2.553
 5228TIP3   OH215624   0.746   6.561   0.525
 5228TIP3    H115625   0.722   6.477   0.485
 5228TIP3    H215626   0.664   6.597   0.558
 5229TIP3   OH215627   3.912   3.801   6.069
 5229TIP3    H115628   3.838   3.804   6.129
 5229TIP3    H215629   3.883   3.745   5.997
 5230TIP3   OH215630   6.075   1.741   4.389
 5230TIP3    H115631   6.148   1.749   4.452
 5230TIP3    H215632   6.098   1.802   4.319
 5231TIP3   OH215633   7.903   6.926   0.453
 5231TIP3    H115634   7.910   6.892   0.364
 5231TIP3    H215635   7.873   7.016   0.442
 5232TIP3   OH215636   0.157   2.092   6.079
 5232TIP3    H115637   0.093   2.083   6.150
 5232TIP3    H215638   0.122   2.038   6.009
 5233TIP3   OH215639   6.177   4.516   5.985
 5233TIP3    H115640   6.089   4.523   5.948
 5233TIP3    H215641   6.235   4.539   5.912
 5234TIP3   OH215642   3.872   3.529   0.699
 5234TIP3    H115643   3.953   3.478   0.697
 5234TIP3    H215644   3.881   3.587   0.775
 5235TIP3   OH215645   8.161   6.058   1.279
 5235TIP3    H115646   8.154   5.963   1.272
 5235TIP3    H215647   8.133   6.078   1.368
 5236TIP3   OH215648   4.914   0.661   0.782
 5236TIP3    H115649   4.875   0.663   0.695
 5236TIP3    H215650   4.914   0.753   0.810
 5237TIP3   OH215651   2.856   1.388   2.436
 5237TIP3    H115652   2.802   1.377   2.358
 5237TIP3    H215653   2.794   1.392   2.508
 5238TIP3   OH215654   1.997   1.209   0.206
 5238TIP3    H115655   2.020   1.275   0.141
 5238TIP3    H215656   1.903   1.195   0.194
 5239TIP3   OH215657   0.693   0.759   0.436
 5239TIP3    H115658   0.708   0.716   0.520
 5239TIP3    H215659   0.602   0.741   0.415
 5240TIP3   OH215660   2.263   4.393   4.761
 5240TIP3    H115661   2.254   4.400   4.856
 5240TIP3    H215662   2.347   4.436   4.741
 5241TIP3   OH215663   2.154   7.639   2.539
 5241TIP3    H115664   2.106   7.570   2.585
 5241TIP3    H215665   2.203   7.592   2.471
 5242TIP3   OH215666   3.707   1.653   4.209
 5242TIP3    H115667   3.709   1.682   4.300
 5242TIP3    H215668   3.637   1.704   4.169
 5243TIP3   OH215669   6.026   5.629   0.824
 5243TIP3    H115670   5.933   5.633   0.847
 5243TIP3    H215671   6.027   5.594   0.735
 5244TIP3   OH215672   0.080   0.402   4.713
 5244TIP3    H115673  -0.003   0.375   4.753
 5244TIP3    H215674   0.084   0.352   4.632
 5245TIP3   OH215675   5.313   1.594   6.198
 5245TIP3    H115676   5.406   1.575   6.213
 5245TIP3    H215677   5.302   1.588   6.103
 5246TIP3   OH215678   1.190   7.621   4.459
 5246TIP3    H115679   1.168   7.560   4.389
 5246TIP3    H215680   1.181   7.708   4.419
 5247TIP3   OH215681   7.399   0.138   3.520
 5247TIP3    H115682   7.486   0.174   3.505
 5247TIP3    H215683   7.387   0.074   3.450
 5248TIP3   OH215684   1.455   5.092   2.715
 5248TIP3    H115685   1.404   5.162   2.674
 5248TIP3    H215686   1.419   5.084   2.804
 5249TIP3   OH215687   5.542   2.219   1.297
 5249TIP3    H115688   5.615   2.276   1.319
 5249TIP3    H215689   5.465   2.263   1.332
 5250TIP3   OH215690   4.206   7.492   3.509
 5250TIP3    H115691   4.166   7.406   3.496
 5250TIP3    H215692   4.300   7.476   3.500
 5251TIP3   OH215693   8.130   0.328   3.436
 5251TIP3    H115694   8.167   0.399   3.382
 5251TIP3    H215695   8.047   0.306   3.393
 5252TIP3   OH215696   1.130   1.766   2.009
 5252TIP3    H115697   1.084   1.822   2.071
 5252TIP3    H215698   1.200   1.820   1.974
 5253TIP3   OH215699   3.345   4.116   4.940
 5253TIP3    H115700   3.387   4.032   4.959
 5253TIP3    H215701   3.347   4.122   4.845
 5254TIP3   OH215702   6.971   7.060   1.538
 5254TIP3    H115703   7.013   7.012   1.466
 5254TIP3    H215704   6.921   7.128   1.494
 5255TIP3   OH215705   5.387   5.438   5.945
 5255TIP3    H115706   5.308   5.385   5.957
 5255TIP3    H215707   5.456   5.386   5.987
 5256TIP3   OH215708   7.697   7.755   5.916
 5256TIP3    H115709   7.715   7.844   5.886
 5256TIP3    H215710   7.707   7.700   5.838
 5257TIP3   OH215711   0.678   1.024   1.892
 5257TIP3    H115712   0.612   1.062   1.834
 5257TIP3    H215713   0.732   0.970   1.835
 5258TIP3   OH215714   2.597   5.781   5.652
 5258TIP3    H115715   2.559   5.757   5.567
 5258TIP3    H215716   2.565   5.869   5.669
 5259TIP3   OH215717   8.299   6.428   4.993
 5259TIP3    H115718   8.388   6.461   5.009
 5259TIP3    H215719   8.242   6.489   5.040
 5260TIP3   OH215720   1.857   4.707   4.750
 5260TIP3    H115721   1.926   4.691   4.686
 5260TIP3    H215722   1.854   4.627   4.803
 5261TIP3   OH215723   6.495   6.194   6.430
 5261TIP3    H115724   6.509   6.201   6.525
 5261TIP3    H215725   6.534   6.110   6.406
 5262TIP3   OH215726   1.622   4.718   5.699
 5262TIP3    H115727   1.566   4.723   5.621
 5262TIP3    H215728   1.710   4.701   5.664
 5263TIP3   OH215729   2.759   1.634   0.327
 5263TIP3    H115730   2.808   1.715   0.311
 5263TIP3    H215731   2.690   1.635   0.260
 5264TIP3   OH215732   2.103   0.413   3.803
 5264TIP3    H115733   2.049   0.492   3.798
 5264TIP3    H215734   2.193   0.444   3.808
 5265TIP3   OH215735   4.893   5.887   3.711
 5265TIP3    H115736   4.816   5.853   3.758
 5265TIP3    H215737   4.857   5.932   3.635
 5266TIP3   OH215738   3.676   0.980   1.072
 5266TIP3    H115739   3.631   0.917   1.016
 5266TIP3    H215740   3.631   0.972   1.157
 5267TIP3   OH215741   6.692   1.190   6.672
 5267TIP3    H115742   6.682   1.260   6.737
 5267TIP3    H215743   6.674   1.109   6.720
 5268TIP3   OH215744   0.771   3.029   1.854
 5268TIP3    H115745   0.709   2.961   1.882
 5268TIP3    H215746   0.850   2.981   1.830
 5269TIP3   OH215747   5.382   6.349   5.702
 5269TIP3    H115748   5.326   6.292   5.649
 5269TIP3    H215749   5.409   6.295   5.775
 5270TIP3   OH215750   0.542   6.018   4.782
 5270TIP3    H115751   0.560   6.096   4.730
 5270TIP3    H215752   0.449   6.024   4.804
 5271TIP3   OH215753   0.328   5.828   0.080
 5271TIP3    H115754   0.285   5.906   0.114
 5271TIP3    H215755   0.276   5.755   0.114
 5272TIP3   OH215756   4.193   4.934   1.754
 5272TIP3    H115757   4.103   4.955   1.779
 5272TIP3    H215758   4.216   4.858   1.808
 5273TIP3   OH215759   7.625   2.415   5.315
 5273TIP3    H115760   7.575   2.333   5.322
 5273TIP3    H215761   7.601   2.451   5.230
 5274TIP3   OH215762   2.088   5.205   3.270
 5274TIP3    H115763   2.126   5.173   3.189
 5274TIP3    H215764   2.009   5.153   3.282
 5275TIP3   OH215765   6.306   7.725   0.945
 5275TIP3    H115766   6.304   7.813   0.907
 5275TIP3    H215767   6.304   7.740   1.040
 5276TIP3   OH215768   1.685   3.830   5.078
 5276TIP3    H115769   1.642   3.824   5.163
 5276TIP3    H215770   1.712   3.741   5.058
 5277TIP3   OH215771   6.058   1.728   4.915
 5277TIP3    H115772   6.044   1.806   4.968
 5277TIP3    H215773   6.007   1.660   4.959
 5278TIP3   OH215774   6.861   2.574   3.466
 5278TIP3    H115775   6.932   2.527   3.509
 5278TIP3    H215776   6.831   2.515   3.397
 5279TIP3   OH215777   5.815   2.916   1.492
 5279TIP3    H115778   5.802   2.978   1.563
 5279TIP3    H215779   5.750   2.847   1.507
 5280TIP3   OH215780   5.541   5.344   0.503
 5280TIP3    H115781   5.471   5.344   0.438
 5280TIP3    H215782   5.563   5.436   0.514
 5281TIP3   OH215783   8.167   6.569   6.283
 5281TIP3    H115784   8.122   6.485   6.270
 5281TIP3    H215785   8.253   6.557   6.242
 5282TIP3   OH215786   5.339   5.453   4.331
 5282TIP3    H115787   5.330   5.444   4.236
 5282TIP3    H215788   5.278   5.523   4.354
 5283TIP3   OH215789   6.116   3.379   1.871
 5283TIP3    H115790   6.027   3.347   1.889
 5283TIP3    H215791   6.120   3.384   1.775
 5284TIP3   OH215792   1.224   7.618   2.064
 5284TIP3    H115793   1.168   7.694   2.051
 5284TIP3    H215794   1.272   7.636   2.144
 5285TIP3   OH215795   6.368   1.666   3.006
 5285TIP3    H115796   6.376   1.591   3.065
 5285TIP3    H215797   6.355   1.741   3.063
 5286TIP3   OH215798   1.847   2.950   1.138
 5286TIP3    H115799   1.790   2.879   1.110
 5286TIP3    H215800   1.886   2.983   1.058
 5287TIP3   OH215801   6.302   4.607   3.074
 5287TIP3    H115802   6.347   4.679   3.119
 5287TIP3    H215803   6.368   4.572   3.014
 5288TIP3   OH215804   5.834   3.143   1.670
 5288TIP3    H115805   5.826   3.236   1.648
 5288TIP3    H215806   5.745   3.115   1.689
 5289TIP3   OH215807   7.392   3.189   6.088
 5289TIP3    H115808   7.424   3.134   6.160
 5289TIP3    H215809   7.451   3.264   6.086
 5290TIP3   OH215810   5.484   1.073   4.344
 5290TIP3    H115811   5.466   1.166   4.329
 5290TIP3    H215812   5.574   1.071   4.376
 5291TIP3   OH215813   0.526   1.961   4.602
 5291TIP3    H115814   0.619   1.956   4.623
 5291TIP3    H215815   0.523   2.007   4.518
 5292TIP3   OH215816   7.604   6.727   0.413
 5292TIP3    H115817   7.513   6.744   0.388
 5292TIP3    H215818   7.602   6.721   0.508
 5293TIP3   OH215819   7.686   3.011   2.063
 5293TIP3    H115820   7.622   3.035   1.996
 5293TIP3    H215821   7.743   2.947   2.019
 5294TIP3   OH215822   2.722   0.252   3.465
 5294TIP3    H115823   2.794   0.197   3.433
 5294TIP3    H215824   2.647   0.193   3.470
 5295TIP3   OH215825   1.698   0.537   5.025
 5295TIP3    H115826   1.680   0.443   5.026
 5295TIP3    H215827   1.792   0.544   5.044
 5296TIP3   OH215828   1.407   2.219   1.666
 5296TIP3    H115829   1.441   2.131   1.650
 5296TIP3    H215830   1.349   2.209   1.742
 5297TIP3   OH215831   5.524   1.380   6.819
 5297TIP3    H115832   5.602   1.414   6.775
 5297TIP3    H215833   5.545   1.384   6.913
 5298TIP3   OH215834   4.429   0.765   5.344
 5298TIP3    H115835   4.519   0.770   5.377
 5298TIP3    H215836   4.408   0.671   5.347
 5299TIP3   OH215837   3.082   2.877   4.737
 5299TIP3    H115838   3.109   2.867   4.829
 5299TIP3    H215839   3.124   2.804   4.692
 5300TIP3   OH215840   5.974   0.012   0.912
 5300TIP3    H115841   6.025   0.081   0.870
 5300TIP3    H215842   5.885   0.047   0.915
 5301TIP3   OH215843   2.933   5.497   3.489
 5301TIP3    H115844   2.925   5.419   3.544
 5301TIP3    H215845   3.026   5.517   3.488
 5302TIP3   OH215846   4.725   3.593   3.179
 5302TIP3    H115847   4.794   3.584   3.245
 5302TIP3    H215848   4.668   3.662   3.212
 5303TIP3   OH215849   8.354   5.267   4.185
 5303TIP3    H115850   8.425   5.290   4.125
 5303TIP3    H215851   8.306   5.348   4.198
 5304TIP3   OH215852   3.449   5.982   5.539
 5304TIP3    H115853   3.527   5.958   5.488
 5304TIP3    H215854   3.384   5.917   5.513
 5305TIP3   OH215855   0.100   6.574   2.183
 5305TIP3    H115856   0.036   6.553   2.251
 5305TIP3    H215857   0.058   6.545   2.102
 5306TIP3   OH215858   5.543   0.149   4.396
 5306TIP3    H115859   5.585   0.235   4.395
 5306TIP3    H215860   5.449   0.169   4.394
 5307TIP3   OH215861   7.227   0.272   2.347
 5307TIP3    H115862   7.286   0.347   2.345
 5307TIP3    H215863   7.281   0.199   2.375
 5308TIP3   OH215864   0.173   0.749   0.534
 5308TIP3    H115865   0.086   0.729   0.569
 5308TIP3    H215866   0.159   0.755   0.439
 5309TIP3   OH215867   4.811   1.608   3.800
 5309TIP3    H115868   4.789   1.598   3.707
 5309TIP3    H215869   4.729   1.635   3.842
 5310TIP3   OH215870   3.455   4.235   0.176
 5310TIP3    H115871   3.369   4.206   0.208
 5310TIP3    H215872   3.461   4.327   0.202
 5311TIP3   OH215873   4.899   1.303   0.777
 5311TIP3    H115874   4.876   1.392   0.752
 5311TIP3    H215875   4.844   1.247   0.722
 5312TIP3   OH215876   4.394   4.939   0.099
 5312TIP3    H115877   4.482   4.953   0.063
 5312TIP3    H215878   4.406   4.873   0.167
 5313TIP3   OH215879   4.733   0.821   1.916
 5313TIP3    H115880   4.710   0.907   1.879
 5313TIP3    H215881   4.681   0.759   1.864
 5314TIP3   OH215882   1.915   4.942   6.506
 5314TIP3    H115883   1.865   5.012   6.549
 5314TIP3    H215884   1.930   4.975   6.417
 5315TIP3   OH215885   6.468   0.841   5.907
 5315TIP3    H115886   6.545   0.814   5.958
 5315TIP3    H215887   6.430   0.913   5.958
 5316TIP3   OH215888   7.306   7.660   3.776
 5316TIP3    H115889   7.231   7.703   3.735
 5316TIP3    H215890   7.275   7.571   3.795
 5317TIP3   OH215891   7.178   2.451   2.328
 5317TIP3    H115892   7.252   2.512   2.331
 5317TIP3    H215893   7.103   2.501   2.358
 5318TIP3   OH215894   7.359   6.506   6.119
 5318TIP3    H115895   7.379   6.413   6.126
 5318TIP3    H215896   7.344   6.535   6.209
 5319TIP3   OH215897   0.137   7.015   0.463
 5319TIP3    H115898   0.198   6.964   0.517
 5319TIP3    H215899   0.181   7.020   0.378
 5320TIP3   OH215900   5.437   2.750   0.488
 5320TIP3    H115901   5.531   2.741   0.502
 5320TIP3    H215902   5.403   2.776   0.574
 5321TIP3   OH215903   3.864   7.860   2.894
 5321TIP3    H115904   3.827   7.790   2.947
 5321TIP3    H215905   3.925   7.816   2.835
 5322TIP3   OH215906   8.275   0.759   4.195
 5322TIP3    H115907   8.297   0.838   4.146
 5322TIP3    H215908   8.255   0.790   4.283
 5323TIP3   OH215909   1.586   6.385   1.262
 5323TIP3    H115910   1.565   6.471   1.298
 5323TIP3    H215911   1.533   6.324   1.313
 5324TIP3   OH215912   5.591   4.694   6.383
 5324TIP3    H115913   5.593   4.700   6.288
 5324TIP3    H215914   5.534   4.766   6.410
 5325TIP3   OH215915   2.154   2.200   5.082
 5325TIP3    H115916   2.202   2.149   5.016
 5325TIP3    H215917   2.062   2.184   5.062
 5326TIP3   OH215918   7.765   2.499   0.853
 5326TIP3    H115919   7.860   2.498   0.864
 5326TIP3    H215920   7.733   2.554   0.924
 5327TIP3   OH215921   0.283   2.189   0.484
 5327TIP3    H115922   0.288   2.227   0.572
 5327TIP3    H215923   0.191   2.163   0.475
 5328TIP3   OH215924   1.760   1.831   4.183
 5328TIP3    H115925   1.780   1.806   4.273
 5328TIP3    H215926   1.830   1.892   4.158
 5329TIP3   OH215927   1.192   3.076   1.351
 5329TIP3    H115928   1.112   3.081   1.404
 5329TIP3    H215929   1.234   3.162   1.364
 5330TIP3   OH215930   4.088   7.927   6.788
 5330TIP3    H115931   4.027   7.898   6.720
 5330TIP3    H215932   4.099   7.850   6.844
 5331TIP3   OH215933   5.724   3.172   6.461
 5331TIP3    H115934   5.758   3.083   6.469
 5331TIP3    H215935   5.630   3.161   6.451
 5332TIP3   OH215936   3.864   4.901   5.392
 5332TIP3    H115937   3.902   4.819   5.361
 5332TIP3    H215938   3.903   4.915   5.478
 5333TIP3   OH215939   5.527   4.427   1.593
 5333TIP3    H115940   5.571   4.441   1.509
 5333TIP3    H215941   5.512   4.333   1.597
 5334TIP3   OH215942   0.394   2.031   0.910
 5334TIP3    H115943   0.480   2.022   0.869
 5334TIP3    H215944   0.354   2.105   0.866
 5335TIP3   OH215945   1.159   1.107   4.153
 5335TIP3    H115946   1.153   1.083   4.245
 5335TIP3    H215947   1.246   1.079   4.126
 5336TIP3   OH215948   2.374   5.829   5.044
 5336TIP3    H115949   2.437   5.894   5.074
 5336TIP3    H215950   2.345   5.861   4.958
 5337TIP3   OH215951   6.016   4.241   3.541
 5337TIP3    H115952   6.005   4.296   3.618
 5337TIP3    H215953   6.092   4.279   3.495
 5338TIP3   OH215954   0.715   4.404   4.731
 5338TIP3    H115955   0.802   4.422   4.766
 5338TIP3    H215956   0.655   4.438   4.797
 5339TIP3   OH215957   7.236   7.225   4.507
 5339TIP3    H115958   7.284   7.260   4.432
 5339TIP3    H215959   7.146   7.252   4.493
 5340TIP3   OH215960   0.526   5.479   4.211
 5340TIP3    H115961   0.550   5.389   4.233
 5340TIP3    H215962   0.452   5.498   4.268
 5341TIP3   OH215963   0.446   6.229   2.305
 5341TIP3    H115964   0.372   6.290   2.307
 5341TIP3    H215965   0.405   6.142   2.297
 5342TIP3   OH215966   4.649   6.291   1.650
 5342TIP3    H115967   4.646   6.272   1.744
 5342TIP3    H215968   4.571   6.248   1.614
 5343TIP3   OH215969   2.921   6.909   2.015
 5343TIP3    H115970   2.942   6.875   2.102
 5343TIP3    H215971   2.861   6.844   1.978
 5344TIP3   OH215972   1.846   5.253   4.563
 5344TIP3    H115973   1.808   5.293   4.485
 5344TIP3    H215974   1.865   5.327   4.621
 5345TIP3   OH215975   0.716   2.874   3.879
 5345TIP3    H115976   0.738   2.853   3.788
 5345TIP3    H215977   0.727   2.968   3.886
 5346TIP3   OH215978   2.973   3.203   5.972
 5346TIP3    H115979   3.000   3.277   6.028
 5346TIP3    H215980   3.011   3.126   6.014
 5347TIP3   OH215981   6.362   3.518   6.584
 5347TIP3    H115982   6.426   3.446   6.586
 5347TIP3    H215983   6.380   3.563   6.501
 5348TIP3   OH215984   5.139   3.177   0.168
 5348TIP3    H115985   5.188   3.224   0.236
 5348TIP3    H215986   5.207   3.137   0.113
 5349TIP3   OH215987   4.766   0.444   6.494
 5349TIP3    H115988   4.674   0.469   6.485
 5349TIP3    H215989   4.777   0.372   6.433
 5350TIP3   OH215990   1.891   0.412   5.232
 5350TIP3    H115991   1.985   0.407   5.214
 5350TIP3    H215992   1.866   0.322   5.252
 5351TIP3   OH215993   4.961   2.831   4.594
 5351TIP3    H115994   4.988   2.758   4.649
 5351TIP3    H215995   4.868   2.844   4.615
 5352TIP3   OH215996   5.578   6.820   4.114
 5352TIP3    H115997   5.627   6.900   4.129
 5352TIP3    H215998   5.514   6.816   4.185
 5353TIP3   OH215999   1.908   2.767   5.468
 5353TIP3    H116000   1.998   2.737   5.460
 5353TIP3    H216001   1.916   2.862   5.479
 5354TIP3   OH216002   7.634   1.634   4.287
 5354TIP3    H116003   7.700   1.633   4.356
 5354TIP3    H216004   7.636   1.546   4.250
 5355TIP3   OH216005   4.238   4.133   4.894
 5355TIP3    H116006   4.274   4.101   4.976
 5355TIP3    H216007   4.200   4.218   4.915
 5356TIP3   OH216008   7.245   7.908   6.497
 5356TIP3    H116009   7.190   7.864   6.432
 5356TIP3    H216010   7.327   7.859   6.496
 5357TIP3   OH216011   4.982   7.263   5.478
 5357TIP3    H116012   4.937   7.178   5.478
 5357TIP3    H216013   5.002   7.280   5.570
 5358TIP3   OH216014   4.400   3.735   1.358
 5358TIP3    H116015   4.405   3.723   1.263
 5358TIP3    H216016   4.307   3.742   1.376
 5359TIP3   OH216017   7.600   0.369   4.970
 5359TIP3    H116018   7.588   0.415   4.887
 5359TIP3    H216019   7.690   0.388   4.996
 5360TIP3   OH216020   4.320   3.640   2.508
 5360TIP3    H116021   4.317   3.600   2.595
 5360TIP3    H216022   4.313   3.734   2.525
 5361TIP3   OH216023   3.758   1.086   2.600
 5361TIP3    H116024   3.710   1.164   2.629
 5361TIP3    H216025   3.721   1.066   2.514
 5362TIP3   OH216026   4.132   5.661   3.444
 5362TIP3    H116027   4.135   5.755   3.425
 5362TIP3    H216028   4.099   5.656   3.534
 5363TIP3   OH216029   6.924   6.246   4.005
 5363TIP3    H116030   7.016   6.233   3.981
 5363TIP3    H216031   6.928   6.278   4.096
 5364TIP3   OH216032   8.231   7.325   4.412
 5364TIP3    H116033   8.254   7.298   4.324
 5364TIP3    H216034   8.233   7.421   4.409
 5365TIP3   OH216035   4.876   4.859   3.815
 5365TIP3    H116036   4.923   4.789   3.770
 5365TIP3    H216037   4.931   4.879   3.891
 5366TIP3   OH216038   6.002   4.083   0.908
 5366TIP3    H116039   6.039   4.044   0.829
 5366TIP3    H216040   5.943   4.151   0.875
 5367TIP3   OH216041   0.940   6.274   4.046
 5367TIP3    H116042   0.886   6.195   4.042
 5367TIP3    H216043   0.920   6.311   4.132
 5368TIP3   OH216044   6.590   4.508   3.376
 5368TIP3    H116045   6.578   4.417   3.402
 5368TIP3    H216046   6.645   4.504   3.298
 5369TIP3   OH216047   3.660   7.623   1.059
 5369TIP3    H116048   3.674   7.528   1.065
 5369TIP3    H216049   3.736   7.661   1.102
 5370TIP3   OH216050   2.182   5.156   3.502
 5370TIP3    H116051   2.139   5.190   3.424
 5370TIP3    H216052   2.153   5.065   3.507
 5371TIP3   OH216053   0.631   4.507   0.568
 5371TIP3    H116054   0.536   4.518   0.562
 5371TIP3    H216055   0.666   4.559   0.496
 5372TIP3   OH216056   8.250   4.650   2.820
 5372TIP3    H116057   8.196   4.661   2.898
 5372TIP3    H216058   8.340   4.661   2.851
 5373TIP3   OH216059   0.116   4.513   2.455
 5373TIP3    H116060   0.130   4.606   2.477
 5373TIP3    H216061   0.046   4.486   2.514
 5374TIP3   OH216062   0.720   6.715   0.266
 5374TIP3    H116063   0.721   6.662   0.186
 5374TIP3    H216064   0.638   6.764   0.260
 5375TIP3   OH216065   4.968   1.159   1.596
 5375TIP3    H116066   4.990   1.250   1.617
 5375TIP3    H216067   4.873   1.160   1.579
 5376TIP3   OH216068   3.833   5.040   0.938
 5376TIP3    H116069   3.805   5.124   0.976
 5376TIP3    H216070   3.927   5.037   0.952
 5377TIP3   OH216071   5.451   7.577   5.546
 5377TIP3    H116072   5.426   7.541   5.631
 5377TIP3    H216073   5.376   7.631   5.521
 5378TIP3   OH216074   7.475   6.658   1.251
 5378TIP3    H116075   7.536   6.590   1.280
 5378TIP3    H216076   7.450   6.703   1.331
 5379TIP3   OH216077   2.032   7.412   3.687
 5379TIP3    H116078   2.013   7.320   3.705
 5379TIP3    H216079   2.096   7.411   3.617
 5380TIP3   OH216080   7.622   7.276   1.270
 5380TIP3    H116081   7.637   7.182   1.262
 5380TIP3    H216082   7.665   7.314   1.194
 5381TIP3   OH216083   2.418   2.590   2.259
 5381TIP3    H116084   2.375   2.597   2.174
 5381TIP3    H216085   2.383   2.510   2.297
 5382TIP3   OH216086   2.184   1.276   3.091
 5382TIP3    H116087   2.125   1.351   3.091
 5382TIP3    H216088   2.269   1.313   3.068
 5383TIP3   OH216089   5.150   4.511   4.135
 5383TIP3    H116090   5.163   4.499   4.041
 5383TIP3    H216091   5.055   4.524   4.145
 5384TIP3   OH216092   8.385   3.945   2.543
 5384TIP3    H116093   8.347   4.032   2.527
 5384TIP3    H216094   8.320   3.884   2.510
 5385TIP3   OH216095   3.220   5.411   2.411
 5385TIP3    H116096   3.178   5.475   2.354
 5385TIP3    H216097   3.181   5.327   2.386
 5386TIP3   OH216098   4.271   1.487   3.998
 5386TIP3    H116099   4.270   1.559   3.936
 5386TIP3    H216100   4.280   1.408   3.945
 5387TIP3   OH216101   3.270   6.244   1.136
 5387TIP3    H116102   3.347   6.195   1.164
 5387TIP3    H216103   3.196   6.197   1.174
 5388TIP3   OH216104   6.010   0.978   6.242
 5388TIP3    H116105   6.026   0.992   6.336
 5388TIP3    H216106   5.931   1.029   6.224
 5389TIP3   OH216107   3.762   2.923   3.508
 5389TIP3    H116108   3.814   2.970   3.443
 5389TIP3    H216109   3.752   2.984   3.581
 5390TIP3   OH216110   6.636   1.157   0.231
 5390TIP3    H116111   6.710   1.153   0.291
 5390TIP3    H216112   6.659   1.227   0.169
 5391TIP3   OH216113   1.301   6.503   4.892
 5391TIP3    H116114   1.248   6.571   4.935
 5391TIP3    H216115   1.287   6.424   4.944
 5392TIP3   OH216116   5.908   6.097   5.296
 5392TIP3    H116117   5.963   6.175   5.292
 5392TIP3    H216118   5.962   6.027   5.260
 5393TIP3   OH216119   7.825   5.946   0.556
 5393TIP3    H116120   7.886   5.955   0.483
 5393TIP3    H216121   7.863   5.877   0.610
 5394TIP3   OH216122   4.180   3.903   2.242
 5394TIP3    H116123   4.097   3.950   2.248
 5394TIP3    H216124   4.205   3.885   2.333
 5395TIP3   OH216125   1.982   4.962   0.791
 5395TIP3    H116126   2.063   5.012   0.784
 5395TIP3    H216127   2.010   4.872   0.806
 5396TIP3   OH216128   6.356   4.580   1.129
 5396TIP3    H116129   6.310   4.517   1.073
 5396TIP3    H216130   6.302   4.587   1.208
 5397TIP3   OH216131   5.735   6.251   5.799
 5397TIP3    H116132   5.743   6.323   5.862
 5397TIP3    H216133   5.712   6.175   5.852
 5398TIP3   OH216134   6.540   1.298   2.383
 5398TIP3    H116135   6.476   1.230   2.362
 5398TIP3    H216136   6.515   1.328   2.470
 5399TIP3   OH216137   5.991   7.359   3.708
 5399TIP3    H116138   5.955   7.355   3.797
 5399TIP3    H216139   5.921   7.329   3.651
 5400TIP3   OH216140   2.703   7.758   0.898
 5400TIP3    H116141   2.736   7.684   0.847
 5400TIP3    H216142   2.669   7.820   0.833
 5401TIP3   OH216143   5.395   4.090   4.196
 5401TIP3    H116144   5.443   4.039   4.131
 5401TIP3    H216145   5.303   4.067   4.182
 5402TIP3   OH216146   0.591   5.637   1.608
 5402TIP3    H116147   0.560   5.727   1.599
 5402TIP3    H216148   0.514   5.587   1.634
 5403TIP3   OH216149   2.657   4.593   2.258
 5403TIP3    H116150   2.602   4.607   2.182
 5403TIP3    H216151   2.619   4.517   2.302
 5404TIP3   OH216152   5.316   3.946   5.314
 5404TIP3    H116153   5.377   3.874   5.325
 5404TIP3    H216154   5.260   3.920   5.241
 5405TIP3   OH216155   1.120   0.119   6.823
 5405TIP3    H116156   1.083   0.088   6.740
 5405TIP3    H216157   1.161   0.041   6.861
 5406TIP3   OH216158   4.839   7.926   5.280
 5406TIP3    H116159   4.794   7.844   5.297
 5406TIP3    H216160   4.907   7.931   5.347
 5407TIP3   OH216161   4.407   0.449   4.577
 5407TIP3    H116162   4.398   0.525   4.519
 5407TIP3    H216163   4.381   0.374   4.523
 5408TIP3   OH216164   0.195   7.213   2.107
 5408TIP3    H116165   0.107   7.178   2.120
 5408TIP3    H216166   0.254   7.140   2.127
 5409TIP3   OH216167   0.706   3.950   5.118
 5409TIP3    H116168   0.623   3.999   5.124
 5409TIP3    H216169   0.746   3.980   5.037
 5410TIP3   OH216170   2.934   3.573   1.234
 5410TIP3    H116171   2.971   3.537   1.153
 5410TIP3    H216172   2.898   3.658   1.209
 5411TIP3   OH216173   6.256   4.423   3.699
 5411TIP3    H116174   6.178   4.383   3.737
 5411TIP3    H216175   6.223   4.497   3.649
 5412TIP3   OH216176   1.873   5.307   6.360
 5412TIP3    H116177   1.860   5.276   6.450
 5412TIP3    H216178   1.843   5.235   6.305
 5413TIP3   OH216179   0.454   6.537   5.951
 5413TIP3    H116180   0.469   6.629   5.929
 5413TIP3    H216181   0.541   6.497   5.946
 5414TIP3   OH216182   4.889   2.369   4.585
 5414TIP3    H116183   4.962   2.308   4.577
 5414TIP3    H216184   4.842   2.339   4.663
 5415TIP3   OH216185   1.959   4.350   3.461
 5415TIP3    H116186   1.991   4.437   3.485
 5415TIP3    H216187   1.934   4.358   3.369
 5416TIP3   OH216188   0.487   3.523   3.500
 5416TIP3    H116189   0.463   3.611   3.471
 5416TIP3    H216190   0.406   3.472   3.491
 5417TIP3   OH216191   1.641   0.801   4.572
 5417TIP3    H116192   1.686   0.882   4.597
 5417TIP3    H216193   1.642   0.803   4.476
 5418TIP3   OH216194   5.514   1.602   3.636
 5418TIP3    H116195   5.562   1.684   3.634
 5418TIP3    H216196   5.571   1.542   3.684
 5419TIP3   OH216197   0.753   2.043   0.429
 5419TIP3    H116198   0.691   1.973   0.451
 5419TIP3    H216199   0.702   2.123   0.434
 5420TIP3   OH216200   7.318   2.632   4.646
 5420TIP3    H116201   7.240   2.666   4.689
 5420TIP3    H216202   7.285   2.565   4.586
 5421TIP3   OH216203   1.852   5.411   4.827
 5421TIP3    H116204   1.836   5.341   4.890
 5421TIP3    H216205   1.836   5.491   4.876
 5422TIP3   OH216206   2.479   6.027   5.731
 5422TIP3    H116207   2.416   6.080   5.683
 5422TIP3    H216208   2.545   6.090   5.761
 5423TIP3   OH216209   1.554   1.027   0.520
 5423TIP3    H116210   1.558   0.932   0.519
 5423TIP3    H216211   1.517   1.049   0.606
 5424TIP3   OH216212   2.361   0.088   2.585
 5424TIP3    H116213   2.388   0.167   2.631
 5424TIP3    H216214   2.412   0.018   2.625
 5425TIP3   OH216215   2.036   4.933   3.550
 5425TIP3    H116216   2.041   4.954   3.643
 5425TIP3    H216217   1.961   4.874   3.542
 5426TIP3   OH216218   1.334   2.889   6.082
 5426TIP3    H116219   1.247   2.908   6.116
 5426TIP3    H216220   1.321   2.878   5.987
 5427TIP3   OH216221   5.774   3.780   1.806
 5427TIP3    H116222   5.738   3.695   1.832
 5427TIP3    H216223   5.809   3.765   1.718
 5428TIP3   OH216224   1.579   5.049   0.459
 5428TIP3    H116225   1.541   5.045   0.546
 5428TIP3    H216226   1.569   5.140   0.432
 5429TIP3   OH216227   6.690   7.640   1.742
 5429TIP3    H116228   6.751   7.714   1.742
 5429TIP3    H216229   6.670   7.626   1.649
 5430TIP3   OH216230   1.156   2.385   2.562
 5430TIP3    H116231   1.185   2.470   2.528
 5430TIP3    H216232   1.190   2.322   2.499
 5431TIP3   OH216233   0.514   6.422   5.450
 5431TIP3    H116234   0.586   6.392   5.395
 5431TIP3    H216235   0.487   6.505   5.412
 5432TIP3   OH216236   2.703   3.325   3.966
 5432TIP3    H116237   2.758   3.377   3.906
 5432TIP3    H216238   2.636   3.387   3.996
 5433TIP3   OH216239   4.078   6.084   2.129
 5433TIP3    H116240   4.065   6.023   2.057
 5433TIP3    H216241   4.015   6.154   2.114
 5434TIP3   OH216242   2.533   0.512   0.180
 5434TIP3    H116243   2.489   0.597   0.181
 5434TIP3    H216244   2.599   0.519   0.249
 5435TIP3   OH216245   4.739   5.241   6.325
 5435TIP3    H116246   4.721   5.250   6.231
 5435TIP3    H216247   4.752   5.331   6.356
 5436TIP3   OH216248   2.887   0.865   5.454
 5436TIP3    H116249   2.866   0.806   5.382
 5436TIP3    H216250   2.823   0.843   5.522
 5437TIP3   OH216251   2.034   6.565   5.258
 5437TIP3    H116252   2.026   6.514   5.178
 5437TIP3    H216253   2.093   6.513   5.313
 5438TIP3   OH216254   1.383   5.915   3.376
 5438TIP3    H116255   1.356   5.982   3.438
 5438TIP3    H216256   1.305   5.900   3.322
 5439TIP3   OH216257   6.255   6.125   4.320
 5439TIP3    H116258   6.312   6.048   4.327
 5439TIP3    H216259   6.305   6.196   4.361
 5440TIP3   OH216260   7.182   1.475   5.641
 5440TIP3    H116261   7.153   1.413   5.574
 5440TIP3    H216262   7.258   1.518   5.602
 5441TIP3   OH216263   6.633   2.080   5.583
 5441TIP3    H116264   6.630   2.051   5.674
 5441TIP3    H216265   6.614   2.174   5.587
 5442TIP3   OH216266   2.665   3.050   2.107
 5442TIP3    H116267   2.594   2.997   2.143
 5442TIP3    H216268   2.623   3.130   2.078
 5443TIP3   OH216269   5.420   6.101   3.075
 5443TIP3    H116270   5.371   6.095   2.993
 5443TIP3    H216271   5.352   6.108   3.142
 5444TIP3   OH216272   2.371   0.530   1.636
 5444TIP3    H116273   2.338   0.552   1.549
 5444TIP3    H216274   2.306   0.567   1.696
 5445TIP3   OH216275   6.313   0.468   3.615
 5445TIP3    H116276   6.255   0.397   3.642
 5445TIP3    H216277   6.314   0.463   3.519
 5446TIP3   OH216278   5.854   0.701   5.099
 5446TIP3    H116279   5.922   0.698   5.032
 5446TIP3    H216280   5.839   0.795   5.113
 5447TIP3   OH216281   1.271   4.142   3.117
 5447TIP3    H116282   1.242   4.061   3.075
 5447TIP3    H216283   1.241   4.135   3.207
 5448TIP3   OH216284   0.810   5.429   6.296
 5448TIP3    H116285   0.779   5.381   6.219
 5448TIP3    H216286   0.891   5.384   6.322
 5449TIP3   OH216287   6.134   0.376   2.876
 5449TIP3    H116288   6.182   0.375   2.793
 5449TIP3    H216289   6.042   0.390   2.851
 5450TIP3   OH216290   6.667   1.177   0.864
 5450TIP3    H116291   6.675   1.268   0.894
 5450TIP3    H216292   6.642   1.185   0.772
 5451TIP3   OH216293   8.129   4.536   6.013
 5451TIP3    H116294   8.045   4.509   5.975
 5451TIP3    H216295   8.169   4.454   6.043
 5452TIP3   OH216296   1.832   7.635   1.180
 5452TIP3    H116297   1.875   7.565   1.131
 5452TIP3    H216298   1.832   7.710   1.120
 5453TIP3   OH216299   3.395   5.344   4.114
 5453TIP3    H116300   3.490   5.339   4.116
 5453TIP3    H216301   3.375   5.437   4.123
 5454TIP3   OH216302   5.198   6.212   1.964
 5454TIP3    H116303   5.268   6.273   1.942
 5454TIP3    H216304   5.177   6.230   2.055
 5455TIP3   OH216305   1.350   2.913   5.341
 5455TIP3    H116306   1.348   3.007   5.357
 5455TIP3    H216307   1.438   2.886   5.367
 5456TIP3   OH216308   4.581   3.928   5.451
 5456TIP3    H116309   4.653   3.990   5.455
 5456TIP3    H216310   4.545   3.926   5.540
 5457TIP3   OH216311   2.939   0.591   6.712
 5457TIP3    H116312   3.032   0.580   6.696
 5457TIP3    H216313   2.923   0.684   6.697
 5458TIP3   OH216314   1.714   7.288   0.409
 5458TIP3    H116315   1.714   7.193   0.414
 5458TIP3    H216316   1.701   7.307   0.316
 5459TIP3   OH216317   3.700   4.854   3.875
 5459TIP3    H116318   3.757   4.828   3.947
 5459TIP3    H216319   3.612   4.828   3.904
 5460TIP3   OH216320   2.153   3.008   2.234
 5460TIP3    H116321   2.246   3.019   2.215
 5460TIP3    H216322   2.126   2.934   2.179
 5461TIP3   OH216323   5.981   5.179   5.118
 5461TIP3    H116324   6.060   5.192   5.066
 5461TIP3    H216325   6.012   5.172   5.208
 5462TIP3   OH216326   2.930   2.487   1.276
 5462TIP3    H116327   2.963   2.549   1.211
 5462TIP3    H216328   2.842   2.518   1.296
 5463TIP3   OH216329   2.592   4.593   2.997
 5463TIP3    H116330   2.614   4.510   2.957
 5463TIP3    H216331   2.669   4.648   2.983
 5464TIP3   OH216332   5.436   0.287   4.943
 5464TIP3    H116333   5.424   0.266   4.851
 5464TIP3    H216334   5.348   0.303   4.976
 5465TIP3   OH216335   1.908   3.739   4.781
 5465TIP3    H116336   1.816   3.747   4.754
 5465TIP3    H216337   1.911   3.657   4.830
 5466TIP3   OH216338   6.817   5.922   3.731
 5466TIP3    H116339   6.850   5.934   3.642
 5466TIP3    H216340   6.773   5.837   3.729
 5467TIP3   OH216341   7.657   7.830   3.374
 5467TIP3    H116342   7.627   7.807   3.285
 5467TIP3    H216343   7.587   7.799   3.431
 5468TIP3   OH216344   7.355   5.336   5.097
 5468TIP3    H116345   7.375   5.247   5.068
 5468TIP3    H216346   7.414   5.352   5.170
 5469TIP3   OH216347   3.472   0.892   2.951
 5469TIP3    H116348   3.464   0.819   2.891
 5469TIP3    H216349   3.424   0.864   3.029
 5470TIP3   OH216350   7.240   0.449   3.971
 5470TIP3    H116351   7.209   0.381   3.910
 5470TIP3    H216352   7.160   0.488   4.005
 5471TIP3   OH216353   3.064   3.057   0.118
 5471TIP3    H116354   3.159   3.064   0.126
 5471TIP3    H216355   3.051   3.006   0.038
 5472TIP3   OH216356   1.062   0.396   4.797
 5472TIP3    H116357   0.994   0.399   4.731
 5472TIP3    H216358   1.027   0.338   4.865
 5473TIP3   OH216359   7.751   1.308   1.636
 5473TIP3    H116360   7.669   1.332   1.593
 5473TIP3    H216361   7.741   1.339   1.726
 5474TIP3   OH216362   6.158   1.515   1.999
 5474TIP3    H116363   6.221   1.460   1.953
 5474TIP3    H216364   6.074   1.496   1.958
 5475TIP3   OH216365   5.608   5.124   2.191
 5475TIP3    H116366   5.547   5.156   2.257
 5475TIP3    H216367   5.685   5.181   2.198
 5476TIP3   OH216368   5.863   3.149   4.160
 5476TIP3    H116369   5.787   3.206   4.150
 5476TIP3    H216370   5.930   3.189   4.104
 5477TIP3   OH216371   0.793   1.083   6.814
 5477TIP3    H116372   0.840   1.061   6.735
 5477TIP3    H216373   0.858   1.124   6.871
 5478TIP3   OH216374   0.188   2.398   6.800
 5478TIP3    H116375   0.229   2.465   6.854
 5478TIP3    H216376   0.246   2.389   6.725
 5479TIP3   OH216377   5.834   0.019   0.490
 5479TIP3    H116378   5.809   0.086   0.554
 5479TIP3    H216379   5.825   0.062   0.405
 5480TIP3   OH216380   3.347   1.783   1.742
 5480TIP3    H116381   3.354   1.792   1.647
 5480TIP3    H216382   3.363   1.690   1.759
 5481TIP3   OH216383   6.456   2.242   3.392
 5481TIP3    H116384   6.388   2.290   3.345
 5481TIP3    H216385   6.409   2.191   3.458
 5482TIP3   OH216386   0.568   6.181   5.088
 5482TIP3    H116387   0.602   6.259   5.133
 5482TIP3    H216388   0.545   6.213   5.000
 5483TIP3   OH216389   7.730   5.953   1.503
 5483TIP3    H116390   7.775   5.919   1.425
 5483TIP3    H216391   7.771   6.038   1.518
 5484TIP3   OH216392   6.976   4.141   6.357
 5484TIP3    H116393   6.939   4.222   6.321
 5484TIP3    H216394   6.903   4.100   6.403
 5485TIP3   OH216395   5.811   4.070   2.595
 5485TIP3    H116396   5.836   3.989   2.638
 5485TIP3    H216397   5.895   4.111   2.571
 5486TIP3   OH216398   6.183   5.061   4.264
 5486TIP3    H116399   6.156   5.118   4.192
 5486TIP3    H216400   6.102   5.021   4.295
 5487TIP3   OH216401   2.670   1.472   5.350
 5487TIP3    H116402   2.607   1.484   5.279
 5487TIP3    H216403   2.699   1.381   5.341
 5488TIP3   OH216404   7.563   3.607   1.369
 5488TIP3    H116405   7.519   3.691   1.360
 5488TIP3    H216406   7.652   3.623   1.338
 5489TIP3   OH216407   4.794   1.555   0.206
 5489TIP3    H116408   4.708   1.555   0.249
 5489TIP3    H216409   4.815   1.462   0.197
 5490TIP3   OH216410   5.957   2.902   0.782
 5490TIP3    H116411   5.992   2.990   0.796
 5490TIP3    H216412   5.979   2.854   0.861
 5491TIP3   OH216413   1.343   0.792   4.687
 5491TIP3    H116414   1.403   0.742   4.742
 5491TIP3    H216415   1.400   0.835   4.623
 5492TIP3   OH216416   4.835   7.734   5.975
 5492TIP3    H116417   4.835   7.712   6.068
 5492TIP3    H216418   4.853   7.828   5.972
 5493TIP3   OH216419   3.152   0.415   6.827
 5493TIP3    H116420   3.170   0.364   6.748
 5493TIP3    H216421   3.198   0.498   6.813
 5494TIP3   OH216422   0.159   6.340   5.828
 5494TIP3    H116423   0.250   6.346   5.798
 5494TIP3    H216424   0.165   6.298   5.914
 5495TIP3   OH216425   1.340   3.798   0.962
 5495TIP3    H116426   1.260   3.828   1.005
 5495TIP3    H216427   1.367   3.871   0.907
 5496TIP3   OH216428   6.977   5.507   5.092
 5496TIP3    H116429   6.983   5.566   5.017
 5496TIP3    H216430   7.061   5.517   5.137
 5497TIP3   OH216431   3.632   4.144   5.896
 5497TIP3    H116432   3.614   4.224   5.846
 5497TIP3    H216433   3.681   4.089   5.835
 5498TIP3   OH216434   0.243   5.480   0.394
 5498TIP3    H116435   0.212   5.444   0.476
 5498TIP3    H216436   0.194   5.562   0.383
 5499TIP3   OH216437   7.515   5.450   1.483
 5499TIP3    H116438   7.446   5.405   1.531
 5499TIP3    H216439   7.584   5.466   1.548
 5500TIP3   OH216440   5.912   1.372   1.284
 5500TIP3    H116441   5.875   1.362   1.196
 5500TIP3    H216442   5.996   1.415   1.270
 5501TIP3   OH216443   3.890   3.261   5.207
 5501TIP3    H116444   3.953   3.319   5.165
 5501TIP3    H216445   3.861   3.202   5.138
 5502TIP3   OH216446   3.299   5.981   1.997
 5502TIP3    H116447   3.387   5.948   1.986
 5502TIP3    H216448   3.285   5.985   2.091
 5503TIP3   OH216449   0.218   7.769   2.038
 5503TIP3    H116450   0.164   7.844   2.016
 5503TIP3    H216451   0.290   7.772   1.974
 5504TIP3   OH216452   4.474   7.082   0.201
 5504TIP3    H116453   4.400   7.125   0.158
 5504TIP3    H216454   4.454   7.089   0.295
 5505TIP3   OH216455   0.205   4.306   4.287
 5505TIP3    H116456   0.146   4.232   4.301
 5505TIP3    H216457   0.293   4.269   4.294
 5506TIP3   OH216458   7.989   3.714   1.972
 5506TIP3    H116459   7.937   3.675   1.901
 5506TIP3    H216460   8.067   3.748   1.928
 5507TIP3   OH216461   5.571   5.996   3.844
 5507TIP3    H116462   5.552   5.912   3.886
 5507TIP3    H216463   5.559   6.061   3.914
 5508TIP3   OH216464   7.353   7.603   1.445
 5508TIP3    H116465   7.378   7.627   1.535
 5508TIP3    H216466   7.436   7.601   1.398
 5509TIP3   OH216467   6.512   3.217   3.882
 5509TIP3    H116468   6.505   3.272   3.804
 5509TIP3    H216469   6.540   3.132   3.848
 5510TIP3   OH216470   0.938   2.315   6.761
 5510TIP3    H116471   0.877   2.384   6.735
 5510TIP3    H216472   0.995   2.358   6.825
 5511TIP3   OH216473   8.172   5.475   2.527
 5511TIP3    H116474   8.167   5.392   2.479
 5511TIP3    H216475   8.100   5.470   2.590
 5512TIP3   OH216476   1.919   1.334   4.339
 5512TIP3    H116477   1.900   1.342   4.246
 5512TIP3    H216478   1.879   1.251   4.365
 5513TIP3   OH216479   6.237   4.070   4.490
 5513TIP3    H116480   6.276   4.016   4.421
 5513TIP3    H216481   6.276   4.156   4.478
 5514TIP3   OH216482   7.322   0.319   2.053
 5514TIP3    H116483   7.260   0.348   2.120
 5514TIP3    H216484   7.346   0.230   2.080
 5515TIP3   OH216485   6.067   7.771   4.018
 5515TIP3    H116486   6.040   7.712   4.088
 5515TIP3    H216487   6.076   7.856   4.061
 5516TIP3   OH216488   2.239   6.140   6.333
 5516TIP3    H116489   2.259   6.053   6.299
 5516TIP3    H216490   2.171   6.174   6.275
 5517TIP3   OH216491   4.667   4.755   5.725
 5517TIP3    H116492   4.644   4.841   5.690
 5517TIP3    H216493   4.697   4.705   5.650
 5518TIP3   OH216494   7.771   5.124   1.172
 5518TIP3    H116495   7.840   5.092   1.230
 5518TIP3    H216496   7.690   5.087   1.208
 5519TIP3   OH216497   7.223   6.807   4.575
 5519TIP3    H116498   7.196   6.865   4.646
 5519TIP3    H216499   7.303   6.846   4.541
 5520TIP3   OH216500   4.390   4.709   3.243
 5520TIP3    H116501   4.443   4.749   3.174
 5520TIP3    H216502   4.312   4.764   3.249
 5521TIP3   OH216503   2.939   3.004   5.694
 5521TIP3    H116504   2.904   2.916   5.686
 5521TIP3    H216505   2.889   3.045   5.764
 5522TIP3   OH216506   3.429   1.187   3.175
 5522TIP3    H116507   3.364   1.241   3.222
 5522TIP3    H216508   3.383   1.105   3.157
 5523TIP3   OH216509   5.279   6.985   3.610
 5523TIP3    H116510   5.348   6.992   3.545
 5523TIP3    H216511   5.266   7.075   3.641
 5524TIP3   OH216512   0.708   0.324   1.762
 5524TIP3    H116513   0.726   0.253   1.825
 5524TIP3    H216514   0.623   0.358   1.790
 5525TIP3   OH216515   7.208   1.512   2.137
 5525TIP3    H116516   7.278   1.519   2.072
 5525TIP3    H216517   7.243   1.456   2.206
 5526TIP3   OH216518   3.730   2.292   4.180
 5526TIP3    H116519   3.765   2.230   4.244
 5526TIP3    H216520   3.802   2.353   4.163
 5527TIP3   OH216521   3.872   3.095   4.643
 5527TIP3    H116522   3.943   3.035   4.619
 5527TIP3    H216523   3.814   3.096   4.567
 5528TIP3   OH216524   1.246   3.650   5.879
 5528TIP3    H116525   1.188   3.577   5.901
 5528TIP3    H216526   1.239   3.658   5.784
 5529TIP3   OH216527   7.160   7.187   4.943
 5529TIP3    H116528   7.079   7.165   4.896
 5529TIP3    H216529   7.172   7.116   5.005
 5530TIP3   OH216530   5.095   7.429   2.229
 5530TIP3    H116531   5.110   7.454   2.320
 5530TIP3    H216532   5.171   7.464   2.182
 5531TIP3   OH216533   3.090   0.772   5.609
 5531TIP3    H116534   3.032   0.786   5.684
 5531TIP3    H216535   3.031   0.772   5.533
 5532TIP3   OH216536   6.604   3.532   1.467
 5532TIP3    H116537   6.650   3.502   1.389
 5532TIP3    H216538   6.640   3.619   1.485
 5533TIP3   OH216539   3.576   6.611   6.525
 5533TIP3    H116540   3.488   6.645   6.508
 5533TIP3    H216541   3.633   6.688   6.520
 5534TIP3   OH216542   2.819   1.120   3.830
 5534TIP3    H116543   2.831   1.121   3.925
 5534TIP3    H216544   2.806   1.028   3.809
 5535TIP3   OH216545   5.930   3.719   1.604
 5535TIP3    H116546   5.976   3.792   1.645
 5535TIP3    H216547   5.917   3.747   1.514
 5536TIP3   OH216548   6.937   7.733   0.683
 5536TIP3    H116549   7.011   7.716   0.741
 5536TIP3    H216550   6.976   7.744   0.597
 5537TIP3   OH216551   4.921   7.092   6.532
 5537TIP3    H116552   4.948   7.166   6.585
 5537TIP3    H216553   4.916   7.018   6.593
 5538TIP3   OH216554   0.673   3.687   1.136
 5538TIP3    H116555   0.756   3.692   1.182
 5538TIP3    H216556   0.671   3.598   1.099
 5539TIP3   OH216557   6.314   1.598   4.971
 5539TIP3    H116558   6.222   1.623   4.973
 5539TIP3    H216559   6.362   1.680   4.971
 5540TIP3   OH216560   2.454   0.215   2.142
 5540TIP3    H116561   2.373   0.231   2.191
 5540TIP3    H216562   2.506   0.158   2.199
 5541TIP3   OH216563   3.425   4.825   3.953
 5541TIP3    H116564   3.440   4.908   3.999
 5541TIP3    H216565   3.355   4.783   4.003
 5542TIP3   OH216566   2.436   6.863   4.227
 5542TIP3    H116567   2.482   6.796   4.278
 5542TIP3    H216568   2.377   6.905   4.290
 5543TIP3   OH216569   4.053   0.574   0.614
 5543TIP3    H116570   4.072   0.486   0.581
 5543TIP3    H216571   4.037   0.626   0.535
 5544TIP3   OH216572   3.170   7.500   3.419
 5544TIP3    H116573   3.260   7.470   3.411
 5544TIP3    H216574   3.165   7.538   3.507
 5545TIP3   OH216575   0.177   0.709   5.392
 5545TIP3    H116576   0.178   0.739   5.483
 5545TIP3    H216577   0.206   0.784   5.342
 5546TIP3   OH216578   7.057   3.337   0.804
 5546TIP3    H116579   7.079   3.318   0.895
 5546TIP3    H216580   6.962   3.340   0.802
 5547TIP3   OH216581   3.361   7.497   6.336
 5547TIP3    H116582   3.436   7.555   6.349
 5547TIP3    H216583   3.388   7.437   6.267
 5548TIP3   OH216584   0.876   5.912   0.724
 5548TIP3    H116585   0.898   5.870   0.807
 5548TIP3    H216586   0.836   5.843   0.671
 5549TIP3   OH216587   4.870   5.780   1.073
 5549TIP3    H116588   4.782   5.817   1.070
 5549TIP3    H216589   4.868   5.719   1.147
 5550TIP3   OH216590   7.689   3.933   5.435
 5550TIP3    H116591   7.603   3.931   5.394
 5550TIP3    H216592   7.674   3.968   5.523
 5551TIP3   OH216593   4.718   6.658   1.345
 5551TIP3    H116594   4.710   6.595   1.273
 5551TIP3    H216595   4.789   6.716   1.318
 5552TIP3   OH216596   7.923   5.279   5.786
 5552TIP3    H116597   7.844   5.279   5.841
 5552TIP3    H216598   7.890   5.263   5.698
 5553TIP3   OH216599   4.368   7.719   5.976
 5553TIP3    H116600   4.376   7.807   5.939
 5553TIP3    H216601   4.324   7.731   6.060
 5554TIP3   OH216602   0.047   2.824   0.582
 5554TIP3    H116603   0.136   2.801   0.559
 5554TIP3    H216604   0.014   2.872   0.506
 5555TIP3   OH216605   4.464   1.964   4.529
 5555TIP3    H116606   4.491   1.998   4.444
 5555TIP3    H216607   4.467   1.869   4.518
 5556TIP3   OH216608   4.695   1.722   3.418
 5556TIP3    H116609   4.668   1.639   3.458
 5556TIP3    H216610   4.676   1.788   3.485
 5557TIP3   OH216611   8.229   2.352   3.390
 5557TIP3    H116612   8.163   2.317   3.330
 5557TIP3    H216613   8.205   2.315   3.475
 5558TIP3   OH216614   6.255   7.777   6.047
 5558TIP3    H116615   6.169   7.759   6.007
 5558TIP3    H216616   6.288   7.852   5.999
 5559TIP3   OH216617   3.496   0.353   3.889
 5559TIP3    H116618   3.406   0.350   3.921
 5559TIP3    H216619   3.488   0.380   3.798
 5560TIP3   OH216620   0.572   5.683   0.409
 5560TIP3    H116621   0.571   5.676   0.504
 5560TIP3    H216622   0.562   5.593   0.378
 5561TIP3   OH216623   7.141   4.861   4.137
 5561TIP3    H116624   7.199   4.868   4.213
 5561TIP3    H216625   7.148   4.769   4.111
 5562TIP3   OH216626   5.459   4.296   2.573
 5562TIP3    H116627   5.457   4.202   2.593
 5562TIP3    H216628   5.506   4.335   2.647
 5563TIP3   OH216629   4.146   0.641   1.473
 5563TIP3    H116630   4.194   0.558   1.475
 5563TIP3    H216631   4.208   0.706   1.507
 5564TIP3   OH216632   5.274   1.516   3.173
 5564TIP3    H116633   5.182   1.497   3.191
 5564TIP3    H216634   5.307   1.438   3.129
 5565TIP3   OH216635   7.570   1.974   4.352
 5565TIP3    H116636   7.499   1.917   4.323
 5565TIP3    H216637   7.548   1.995   4.443
 5566TIP3   OH216638   1.711   2.930   0.324
 5566TIP3    H116639   1.688   2.910   0.233
 5566TIP3    H216640   1.788   2.875   0.342
 5567TIP3   OH216641   7.054   0.314   6.227
 5567TIP3    H116642   7.010   0.246   6.278
 5567TIP3    H216643   7.118   0.266   6.173
 5568TIP3   OH216644   7.487   3.027   4.043
 5568TIP3    H116645   7.485   2.970   3.967
 5568TIP3    H216646   7.397   3.028   4.075
 5569TIP3   OH216647   3.560   1.054   0.743
 5569TIP3    H116648   3.638   0.998   0.740
 5569TIP3    H216649   3.590   1.134   0.787
 5570TIP3   OH216650   1.820   0.217   6.377
 5570TIP3    H116651   1.807   0.122   6.378
 5570TIP3    H216652   1.885   0.232   6.308
 5571TIP3   OH216653   0.649   2.556   1.054
 5571TIP3    H116654   0.570   2.522   1.012
 5571TIP3    H216655   0.714   2.560   0.983
 5572TIP3   OH216656   3.190   5.671   1.458
 5572TIP3    H116657   3.257   5.617   1.416
 5572TIP3    H216658   3.129   5.608   1.496
 5573TIP3   OH216659   3.093   7.625   5.069
 5573TIP3    H116660   3.106   7.592   5.158
 5573TIP3    H216661   3.051   7.553   5.023
 5574TIP3   OH216662   6.335   6.908   4.607
 5574TIP3    H116663   6.342   6.867   4.694
 5574TIP3    H216664   6.309   6.837   4.549
 5575TIP3   OH216665   5.528   5.759   3.977
 5575TIP3    H116666   5.576   5.697   4.032
 5575TIP3    H216667   5.455   5.788   4.031
 5576TIP3   OH216668   5.641   1.149   2.315
 5576TIP3    H116669   5.601   1.111   2.236
 5576TIP3    H216670   5.734   1.158   2.293
 5577TIP3   OH216671   7.260   4.163   6.355
 5577TIP3    H116672   7.295   4.121   6.277
 5577TIP3    H216673   7.165   4.150   6.348
 5578TIP3   OH216674   2.162   0.502   6.092
 5578TIP3    H116675   2.232   0.555   6.053
 5578TIP3    H216676   2.103   0.566   6.132
 5579TIP3   OH216677   5.535   6.689   2.728
 5579TIP3    H116678   5.534   6.594   2.716
 5579TIP3    H216679   5.454   6.707   2.777
 5580TIP3   OH216680   3.813   0.980   6.397
 5580TIP3    H116681   3.886   1.031   6.363
 5580TIP3    H216682   3.737   1.010   6.347
 5581TIP3   OH216683   1.147   6.532   6.514
 5581TIP3    H116684   1.189   6.604   6.561
 5581TIP3    H216685   1.064   6.568   6.483
 5582TIP3   OH216686   8.275   4.499   6.527
 5582TIP3    H116687   8.191   4.504   6.482
 5582TIP3    H216688   8.329   4.442   6.472
 5583TIP3   OH216689   0.774   3.281   1.692
 5583TIP3    H116690   0.752   3.222   1.764
 5583TIP3    H216691   0.784   3.367   1.733
 5584TIP3   OH216692   3.256   4.781   5.077
 5584TIP3    H116693   3.251   4.711   5.141
 5584TIP3    H216694   3.298   4.741   5.000
 5585TIP3   OH216695   4.128   2.917   5.512
 5585TIP3    H116696   4.089   2.999   5.482
 5585TIP3    H216697   4.206   2.944   5.561
 5586TIP3   OH216698   4.858   1.819   6.457
 5586TIP3    H116699   4.918   1.800   6.529
 5586TIP3    H216700   4.886   1.903   6.423
 5587TIP3   OH216701   6.179   1.777   6.294
 5587TIP3    H116702   6.233   1.762   6.216
 5587TIP3    H216703   6.159   1.689   6.326
 5588TIP3   OH216704   2.169   5.780   1.624
 5588TIP3    H116705   2.260   5.755   1.642
 5588TIP3    H216706   2.165   5.873   1.647
 5589TIP3   OH216707   3.820   5.439   2.838
 5589TIP3    H116708   3.826   5.403   2.927
 5589TIP3    H216709   3.771   5.373   2.789
 5590TIP3   OH216710   0.867   2.434   5.877
 5590TIP3    H116711   0.872   2.526   5.853
 5590TIP3    H216712   0.958   2.406   5.886
 5591TIP3   OH216713   3.410   0.944   3.654
 5591TIP3    H116714   3.413   0.865   3.600
 5591TIP3    H216715   3.367   0.916   3.735
 5592TIP3   OH216716   3.926   0.792   6.867
 5592TIP3    H116717   3.989   0.833   6.807
 5592TIP3    H216718   3.854   0.854   6.872
 5593TIP3   OH216719   1.276   7.555   3.947
 5593TIP3    H116720   1.201   7.593   3.993
 5593TIP3    H216721   1.270   7.589   3.858
 5594TIP3   OH216722   2.827   7.368   3.421
 5594TIP3    H116723   2.738   7.393   3.395
 5594TIP3    H216724   2.879   7.383   3.342
 5595TIP3   OH216725   4.082   4.314   1.513
 5595TIP3    H116726   4.090   4.260   1.434
 5595TIP3    H216727   3.988   4.315   1.532
 5596TIP3   OH216728   3.574   0.160   4.629
 5596TIP3    H116729   3.634   0.090   4.605
 5596TIP3    H216730   3.603   0.189   4.716
 5597TIP3   OH216731   2.462   6.884   4.556
 5597TIP3    H116732   2.544   6.933   4.559
 5597TIP3    H216733   2.484   6.804   4.509
 5598TIP3   OH216734   2.197   4.895   4.839
 5598TIP3    H116735   2.157   4.956   4.776
 5598TIP3    H216736   2.237   4.952   4.905
 5599TIP3   OH216737   3.071   0.121   1.101
 5599TIP3    H116738   3.011   0.096   1.171
 5599TIP3    H216739   3.112   0.202   1.132
 5600TIP3   OH216740   2.238   2.705   6.723
 5600TIP3    H116741   2.200   2.791   6.741
 5600TIP3    H216742   2.330   2.722   6.705
 5601TIP3   OH216743   0.660   7.413   0.687
 5601TIP3    H116744   0.610   7.460   0.619
 5601TIP3    H216745   0.661   7.322   0.658
 5602TIP3   OH216746   6.559   5.068   0.314
 5602TIP3    H116747   6.594   5.106   0.394
 5602TIP3    H216748   6.464   5.068   0.326
 5603TIP3   OH216749   3.152   1.137   3.913
 5603TIP3    H116750   3.070   1.165   3.952
 5603TIP3    H216751   3.216   1.203   3.940
 5604TIP3   OH216752   2.961   3.934   6.808
 5604TIP3    H116753   2.884   3.916   6.753
 5604TIP3    H216754   2.930   4.000   6.870
 5605TIP3   OH216755   2.127   6.120   4.941
 5605TIP3    H116756   2.042   6.163   4.930
 5605TIP3    H216757   2.172   6.172   5.008
 5606TIP3   OH216758   3.528   0.217   0.286
 5606TIP3    H116759   3.490   0.157   0.222
 5606TIP3    H216760   3.609   0.248   0.246
 5607TIP3   OH216761   4.914   1.931   3.565
 5607TIP3    H116762   4.888   1.841   3.546
 5607TIP3    H216763   5.000   1.941   3.523
 5608TIP3   OH216764   4.992   6.707   2.624
 5608TIP3    H116765   5.049   6.784   2.620
 5608TIP3    H216766   4.924   6.724   2.559
 5609TIP3   OH216767   1.472   2.596   1.721
 5609TIP3    H116768   1.564   2.576   1.736
 5609TIP3    H216769   1.442   2.633   1.804
 5610TIP3   OH216770   6.225   2.298   0.830
 5610TIP3    H116771   6.236   2.333   0.919
 5610TIP3    H216772   6.213   2.204   0.844
 5611TIP3   OH216773   3.951   6.040   1.874
 5611TIP3    H116774   3.949   5.957   1.923
 5611TIP3    H216775   3.867   6.081   1.892
 5612TIP3   OH216776   5.546   2.275   2.627
 5612TIP3    H116777   5.538   2.181   2.613
 5612TIP3    H216778   5.485   2.314   2.563
 5613TIP3   OH216779   1.391   1.087   2.836
 5613TIP3    H116780   1.447   1.132   2.773
 5613TIP3    H216781   1.422   0.996   2.834
 5614TIP3   OH216782   5.435   6.831   4.647
 5614TIP3    H116783   5.500   6.900   4.654
 5614TIP3    H216784   5.479   6.752   4.679
 5615TIP3   OH216785   4.578   2.201   4.011
 5615TIP3    H116786   4.534   2.196   4.096
 5615TIP3    H216787   4.507   2.222   3.949
 5616TIP3   OH216788   1.914   4.761   6.054
 5616TIP3    H116789   1.824   4.740   6.080
 5616TIP3    H216790   1.904   4.810   5.972
 5617TIP3   OH216791   6.315   3.933   5.969
 5617TIP3    H116792   6.375   3.862   5.989
 5617TIP3    H216793   6.360   3.985   5.902
 5618TIP3   OH216794   7.734   1.698   3.268
 5618TIP3    H116795   7.671   1.704   3.196
 5618TIP3    H216796   7.694   1.747   3.340
 5619TIP3   OH216797   1.554   1.610   0.746
 5619TIP3    H116798   1.641   1.581   0.718
 5619TIP3    H216799   1.571   1.678   0.811
 5620TIP3   OH216800   4.853   6.970   5.561
 5620TIP3    H116801   4.811   6.883   5.560
 5620TIP3    H216802   4.922   6.962   5.627
 5621TIP3   OH216803   7.231   5.698   1.762
 5621TIP3    H116804   7.203   5.656   1.681
 5621TIP3    H216805   7.173   5.661   1.829
 5622TIP3   OH216806   6.519   1.628   5.800
 5622TIP3    H116807   6.549   1.540   5.776
 5622TIP3    H216808   6.535   1.634   5.894
 5623TIP3   OH216809   2.404   5.877   2.305
 5623TIP3    H116810   2.372   5.834   2.384
 5623TIP3    H216811   2.331   5.933   2.277
 5624TIP3   OH216812   1.902   5.649   2.303
 5624TIP3    H116813   1.926   5.712   2.372
 5624TIP3    H216814   1.985   5.622   2.265
 5625TIP3   OH216815   2.252   1.087   4.308
 5625TIP3    H116816   2.225   1.131   4.228
 5625TIP3    H216817   2.218   1.142   4.378
 5626TIP3   OH216818   7.049   2.803   2.911
 5626TIP3    H116819   7.079   2.738   2.848
 5626TIP3    H216820   6.957   2.783   2.927
 5627TIP3   OH216821   5.590   0.646   0.537
 5627TIP3    H116822   5.508   0.694   0.532
 5627TIP3    H216823   5.565   0.554   0.530
 5628TIP3   OH216824   8.034   1.930   4.849
 5628TIP3    H116825   7.977   1.984   4.794
 5628TIP3    H216826   7.980   1.856   4.874
 5629TIP3   OH216827   6.040   2.248   0.560
 5629TIP3    H116828   5.968   2.212   0.613
 5629TIP3    H216829   5.995   2.292   0.487
 5630TIP3   OH216830   0.983   2.669   4.231
 5630TIP3    H116831   0.990   2.582   4.191
 5630TIP3    H216832   0.895   2.671   4.269
 5631TIP3   OH216833   7.933   1.895   4.418
 5631TIP3    H116834   7.863   1.930   4.473
 5631TIP3    H216835   8.014   1.921   4.462
 5632TIP3   OH216836   5.628   7.017   4.697
 5632TIP3    H116837   5.568   7.090   4.681
 5632TIP3    H216838   5.696   7.053   4.754
 5633TIP3   OH216839   6.580   6.367   3.112
 5633TIP3    H116840   6.606   6.405   3.195
 5633TIP3    H216841   6.650   6.389   3.052
 5634TIP3   OH216842   2.992   6.597   4.319
 5634TIP3    H116843   3.081   6.601   4.285
 5634TIP3    H216844   2.993   6.525   4.382
 5635TIP3   OH216845   2.266   6.923   0.153
 5635TIP3    H116846   2.237   7.009   0.123
 5635TIP3    H216847   2.206   6.861   0.112
 5636TIP3   OH216848   0.328   7.066   1.629
 5636TIP3    H116849   0.351   7.025   1.712
 5636TIP3    H216850   0.333   6.995   1.565
 5637TIP3   OH216851   4.155   1.859   3.471
 5637TIP3    H116852   4.211   1.782   3.480
 5637TIP3    H216853   4.068   1.823   3.451
 5638TIP3   OH216854   7.324   1.943   2.643
 5638TIP3    H116855   7.315   1.868   2.702
 5638TIP3    H216856   7.348   1.904   2.558
 5639TIP3   OH216857   5.522   7.516   5.142
 5639TIP3    H116858   5.548   7.587   5.082
 5639TIP3    H216859   5.427   7.511   5.133
 5640TIP3   OH216860   8.105   7.058   6.827
 5640TIP3    H116861   8.184   7.033   6.778
 5640TIP3    H216862   8.040   7.077   6.759
 5641TIP3   OH216863   3.412   3.446   5.366
 5641TIP3    H116864   3.481   3.391   5.329
 5641TIP3    H216865   3.455   3.493   5.438
 5642TIP3   OH216866   7.370   4.205   4.835
 5642TIP3    H116867   7.305   4.222   4.903
 5642TIP3    H216868   7.349   4.118   4.803
 5643TIP3   OH216869   0.641   1.398   6.463
 5643TIP3    H116870   0.546   1.405   6.459
 5643TIP3    H216871   0.669   1.477   6.511
 5644TIP3   OH216872   4.770   3.937   1.566
 5644TIP3    H116873   4.706   3.875   1.601
 5644TIP3    H216874   4.733   4.023   1.586
 5645TIP3   OH216875   4.254   2.739   2.052
 5645TIP3    H116876   4.218   2.651   2.065
 5645TIP3    H216877   4.192   2.797   2.095
 5646TIP3   OH216878   5.253   0.911   1.260
 5646TIP3    H116879   5.328   0.936   1.206
 5646TIP3    H216880   5.234   0.990   1.311
 5647TIP3   OH216881   1.618   3.485   1.517
 5647TIP3    H116882   1.595   3.512   1.606
 5647TIP3    H216883   1.577   3.399   1.507
 5648TIP3   OH216884   5.718   0.351   4.427
 5648TIP3    H116885   5.809   0.379   4.419
 5648TIP3    H216886   5.670   0.404   4.364
 5649TIP3   OH216887   5.918   1.549   1.638
 5649TIP3    H116888   5.852   1.579   1.576
 5649TIP3    H216889   5.999   1.545   1.587
 5650TIP3   OH216890   4.933   7.008   4.763
 5650TIP3    H116891   5.028   6.998   4.762
 5650TIP3    H216892   4.910   7.007   4.856
 5651TIP3   OH216893   6.346   7.323   6.567
 5651TIP3    H116894   6.384   7.253   6.514
 5651TIP3    H216895   6.281   7.364   6.510
 5652TIP3   OH216896   1.208   5.431   2.836
 5652TIP3    H116897   1.142   5.440   2.767
 5652TIP3    H216898   1.284   5.480   2.802
 5653TIP3   OH216899   0.761   2.378   6.136
 5653TIP3    H116900   0.785   2.365   6.044
 5653TIP3    H216901   0.750   2.472   6.144
 5654TIP3   OH216902   6.600   6.295   6.060
 5654TIP3    H116903   6.623   6.231   5.994
 5654TIP3    H216904   6.648   6.267   6.139
 5655TIP3   OH216905   0.250   7.354   1.345
 5655TIP3    H116906   0.285   7.441   1.324
 5655TIP3    H216907   0.324   7.306   1.381
 5656TIP3   OH216908   8.161   7.360   1.592
 5656TIP3    H116909   8.236   7.311   1.557
 5656TIP3    H216910   8.136   7.312   1.671
 5657TIP3   OH216911   1.744   6.313   1.570
 5657TIP3    H116912   1.722   6.354   1.486
 5657TIP3    H216913   1.835   6.339   1.586
 5658TIP3   OH216914   8.194   1.744   6.285
 5658TIP3    H116915   8.278   1.713   6.249
 5658TIP3    H216916   8.166   1.813   6.225
 5659TIP3   OH216917   2.357   2.801   2.860
 5659TIP3    H116918   2.391   2.783   2.772
 5659TIP3    H216919   2.304   2.725   2.881
 5660TIP3   OH216920   0.253   4.122   4.933
 5660TIP3    H116921   0.317   4.166   4.877
 5660TIP3    H216922   0.199   4.193   4.968
 5661TIP3   OH216923   3.786   1.869   2.622
 5661TIP3    H116924   3.742   1.804   2.677
 5661TIP3    H216925   3.767   1.842   2.533
 5662TIP3   OH216926   7.344   6.223   5.876
 5662TIP3    H116927   7.372   6.136   5.902
 5662TIP3    H216928   7.407   6.282   5.917
 5663TIP3   OH216929   0.520   7.667   3.994
 5663TIP3    H116930   0.557   7.611   3.926
 5663TIP3    H216931   0.469   7.608   4.050
 5664TIP3   OH216932   4.027   6.295   5.383
 5664TIP3    H116933   3.992   6.209   5.359
 5664TIP3    H216934   3.958   6.335   5.436
 5665TIP3   OH216935   0.045   7.781   3.919
 5665TIP3    H116936  -0.017   7.713   3.894
 5665TIP3    H216937   0.069   7.824   3.837
 5666TIP3   OH216938   2.415   1.579   1.206
 5666TIP3    H116939   2.379   1.665   1.228
 5666TIP3    H216940   2.359   1.546   1.136
 5667TIP3   OH216941   0.313   0.678   4.114
 5667TIP3    H116942   0.274   0.605   4.162
 5667TIP3    H216943   0.354   0.638   4.037
 5668TIP3   OH216944   1.852   5.193   0.481
 5668TIP3    H116945   1.783   5.165   0.542
 5668TIP3    H216946   1.914   5.120   0.480
 5669TIP3   OH216947   2.956   5.386   2.278
 5669TIP3    H116948   2.914   5.467   2.308
 5669TIP3    H216949   2.886   5.321   2.278
 5670TIP3   OH216950   6.462   7.928   3.904
 5670TIP3    H116951   6.436   7.991   3.837
 5670TIP3    H216952   6.415   7.848   3.881
 5671TIP3   OH216953   1.666   7.690   5.995
 5671TIP3    H116954   1.745   7.707   6.046
 5671TIP3    H216955   1.624   7.617   6.040
 5672TIP3   OH216956   3.326   1.713   2.045
 5672TIP3    H116957   3.268   1.637   2.039
 5672TIP3    H216958   3.309   1.762   1.965
 5673TIP3   OH216959   1.480   4.986   6.787
 5673TIP3    H116960   1.462   5.013   6.877
 5673TIP3    H216961   1.573   5.003   6.775
 5674TIP3   OH216962   5.616   0.822   5.987
 5674TIP3    H116963   5.545   0.873   5.947
 5674TIP3    H216964   5.571   0.748   6.029
 5675TIP3   OH216965   0.081   5.704   6.025
 5675TIP3    H116966   0.105   5.629   6.080
 5675TIP3    H216967   0.008   5.672   5.972
 5676TIP3   OH216968   4.826   1.694   6.126
 5676TIP3    H116969   4.735   1.699   6.156
 5676TIP3    H216970   4.829   1.754   6.051
 5677TIP3   OH216971   1.484   1.962   1.674
 5677TIP3    H116972   1.451   1.890   1.727
 5677TIP3    H216973   1.557   1.925   1.625
 5678TIP3   OH216974   0.640   5.040   0.037
 5678TIP3    H116975   0.645   4.957  -0.011
 5678TIP3    H216976   0.556   5.078   0.009
 5679TIP3   OH216977   3.719   6.304   2.133
 5679TIP3    H116978   3.676   6.324   2.216
 5679TIP3    H216979   3.811   6.327   2.148
 5680TIP3   OH216980   5.224   2.465   0.792
 5680TIP3    H116981   5.281   2.403   0.837
 5680TIP3    H216982   5.262   2.551   0.813
 5681TIP3   OH216983   5.298   3.992   2.441
 5681TIP3    H116984   5.377   3.967   2.489
 5681TIP3    H216985   5.283   3.919   2.380
 5682TIP3   OH216986   5.004   3.013   6.050
 5682TIP3    H116987   4.956   3.033   6.130
 5682TIP3    H216988   5.081   2.965   6.080
 5683TIP3   OH216989   7.387   5.478   1.089
 5683TIP3    H116990   7.474   5.473   1.050
 5683TIP3    H216991   7.392   5.422   1.167
 5684TIP3   OH216992   7.394   5.706   5.552
 5684TIP3    H116993   7.321   5.729   5.494
 5684TIP3    H216994   7.437   5.789   5.571
 5685TIP3   OH216995   5.612   1.197   5.685
 5685TIP3    H116996   5.647   1.186   5.774
 5685TIP3    H216997   5.679   1.160   5.628
 5686TIP3   OH216998   5.592   0.586   1.584
 5686TIP3    H116999   5.535   0.509   1.583
 5686TIP3    H217000   5.536   0.659   1.558
 5687TIP3   OH217001   6.917   4.986   4.481
 5687TIP3    H117002   6.877   4.986   4.568
 5687TIP3    H217003   6.986   5.052   4.486
 5688TIP3   OH217004   3.462   6.452   3.121
 5688TIP3    H117005   3.464   6.501   3.203
 5688TIP3    H217006   3.551   6.459   3.087
 5689TIP3   OH217007   0.378   6.359   4.587
 5689TIP3    H117008   0.299   6.316   4.554
 5689TIP3    H217009   0.346   6.437   4.631
 5690TIP3   OH217010   0.836   3.239   6.328
 5690TIP3    H117011   0.802   3.327   6.309
 5690TIP3    H217012   0.873   3.246   6.416
 5691TIP3   OH217013   0.916   0.655   3.776
 5691TIP3    H117014   0.898   0.747   3.793
 5691TIP3    H217015   0.835   0.621   3.739
 5692TIP3   OH217016   6.619   5.999   1.579
 5692TIP3    H117017   6.537   6.001   1.628
 5692TIP3    H217018   6.630   6.089   1.547
 5693TIP3   OH217019   5.671   7.621   5.347
 5693TIP3    H117020   5.622   7.578   5.277
 5693TIP3    H217021   5.613   7.616   5.423
 5694TIP3   OH217022   8.072   2.674   4.914
 5694TIP3    H117023   8.128   2.646   4.987
 5694TIP3    H217024   8.098   2.765   4.898
 5695TIP3   OH217025   7.171   2.352   3.006
 5695TIP3    H117026   7.163   2.440   3.043
 5695TIP3    H217027   7.081   2.325   2.988
 5696TIP3   OH217028   0.366   4.700   1.994
 5696TIP3    H117029   0.356   4.745   2.078
 5696TIP3    H217030   0.368   4.607   2.017
 5697TIP3   OH217031   3.794   3.225   4.939
 5697TIP3    H117032   3.707   3.203   4.906
 5697TIP3    H217033   3.853   3.201   4.868
 5698TIP3   OH217034   7.760   1.265   3.914
 5698TIP3    H117035   7.779   1.293   4.004
 5698TIP3    H217036   7.825   1.311   3.861
 5699TIP3   OH217037   5.046   6.216   0.447
 5699TIP3    H117038   5.037   6.303   0.411
 5699TIP3    H217039   4.972   6.207   0.507
 5700TIP3   OH217040   6.587   1.949   3.638
 5700TIP3    H117041   6.534   2.022   3.671
 5700TIP3    H217042   6.526   1.898   3.584
 5701TIP3   OH217043   2.543   3.934   6.631
 5701TIP3    H117044   2.480   3.863   6.636
 5701TIP3    H217045   2.496   4.004   6.586
 5702TIP3   OH217046   3.271   6.969   3.975
 5702TIP3    H117047   3.235   6.909   3.909
 5702TIP3    H217048   3.198   6.981   4.037
 5703TIP3   OH217049   2.479   7.391   1.999
 5703TIP3    H117050   2.558   7.440   1.975
 5703TIP3    H217051   2.423   7.457   2.041
 5704TIP3   OH217052   2.888   1.287   1.902
 5704TIP3    H117053   2.955   1.252   1.844
 5704TIP3    H217054   2.935   1.345   1.962
 5705TIP3   OH217055   2.099   5.104   6.181
 5705TIP3    H117056   2.185   5.072   6.209
 5705TIP3    H217057   2.119   5.165   6.110
 5706TIP3   OH217058   0.174   1.436   4.954
 5706TIP3    H117059   0.219   1.490   4.889
 5706TIP3    H217060   0.237   1.368   4.976
 5707TIP3   OH217061   5.242   0.371   6.476
 5707TIP3    H117062   5.161   0.423   6.470
 5707TIP3    H217063   5.242   0.318   6.396
 5708TIP3   OH217064   1.248   2.158   1.883
 5708TIP3    H117065   1.247   2.224   1.952
 5708TIP3    H217066   1.263   2.076   1.928
 5709TIP3   OH217067   1.754   0.823   1.883
 5709TIP3    H117068   1.703   0.744   1.897
 5709TIP3    H217069   1.780   0.851   1.971
 5710TIP3   OH217070   4.209   2.029   4.557
 5710TIP3    H117071   4.298   1.994   4.554
 5710TIP3    H217072   4.205   2.090   4.484
 5711TIP3   OH217073   1.615   2.209   5.920
 5711TIP3    H117074   1.532   2.239   5.956
 5711TIP3    H217075   1.679   2.227   5.989
 5712TIP3   OH217076   6.401   0.107   4.676
 5712TIP3    H117077   6.445   0.025   4.656
 5712TIP3    H217078   6.432   0.130   4.764
 5713TIP3   OH217079   3.671   3.183   2.727
 5713TIP3    H117080   3.601   3.245   2.709
 5713TIP3    H217081   3.646   3.139   2.808
 5714TIP3   OH217082   0.993   5.834   1.105
 5714TIP3    H117083   1.016   5.915   1.059
 5714TIP3    H217084   1.048   5.835   1.183
 5715TIP3   OH217085   0.740   7.044   0.872
 5715TIP3    H117086   0.738   7.087   0.787
 5715TIP3    H217087   0.810   7.088   0.920
 5716TIP3   OH217088   7.457   6.602   0.995
 5716TIP3    H117089   7.387   6.667   0.998
 5716TIP3    H217090   7.514   6.626   1.068
 5717TIP3   OH217091   3.100   0.935   6.390
 5717TIP3    H117092   3.048   1.009   6.420
 5717TIP3    H217093   3.191   0.958   6.413
 5718TIP3   OH217094   3.917   3.535   4.494
 5718TIP3    H117095   3.946   3.520   4.404
 5718TIP3    H217096   3.894   3.628   4.497
 5719TIP3   OH217097   0.404   6.725   6.364
 5719TIP3    H117098   0.460   6.803   6.358
 5719TIP3    H217099   0.437   6.678   6.440
 5720TIP3   OH217100   7.670   3.686   2.660
 5720TIP3    H117101   7.685   3.649   2.572
 5720TIP3    H217102   7.750   3.665   2.709
 5721TIP3   OH217103   7.748   4.808   1.299
 5721TIP3    H117104   7.810   4.865   1.344
 5721TIP3    H217105   7.662   4.834   1.333
 5722TIP3   OH217106   0.216   1.792   3.197
 5722TIP3    H117107   0.153   1.721   3.187
 5722TIP3    H217108   0.202   1.848   3.120
 5723TIP3   OH217109   6.460   6.141   0.461
 5723TIP3    H117110   6.488   6.128   0.552
 5723TIP3    H217111   6.368   6.167   0.468
 5724TIP3   OH217112   4.783   3.326   4.749
 5724TIP3    H117113   4.792   3.344   4.655
 5724TIP3    H217114   4.691   3.302   4.760
 5725TIP3   OH217115   1.968   4.691   0.777
 5725TIP3    H117116   2.046   4.663   0.728
 5725TIP3    H217117   1.895   4.649   0.732
 5726TIP3   OH217118   6.076   7.352   0.741
 5726TIP3    H117119   6.069   7.417   0.810
 5726TIP3    H217120   6.131   7.393   0.674
 5727TIP3   OH217121   1.828   5.598   5.046
 5727TIP3    H117122   1.816   5.542   5.122
 5727TIP3    H217123   1.844   5.685   5.083
 5728TIP3   OH217124   5.675   5.641   2.179
 5728TIP3    H117125   5.589   5.670   2.209
 5728TIP3    H217126   5.680   5.670   2.089
 5729TIP3   OH217127   4.694   1.785   6.818
 5729TIP3    H117128   4.612   1.778   6.768
 5729TIP3    H217129   4.703   1.699   6.860
 5730TIP3   OH217130   4.842   4.008   6.382
 5730TIP3    H117131   4.851   3.938   6.447
 5730TIP3    H217132   4.902   4.077   6.413
 5731TIP3   OH217133   8.035   3.960   0.019
 5731TIP3    H117134   8.048   3.951  -0.075
 5731TIP3    H217135   7.957   4.014   0.028
 5732TIP3   OH217136   2.699   2.111   6.420
 5732TIP3    H117137   2.707   2.029   6.468
 5732TIP3    H217138   2.644   2.166   6.475
 5733TIP3   OH217139   1.823   6.604   1.205
 5733TIP3    H117140   1.730   6.602   1.229
 5733TIP3    H217141   1.848   6.696   1.214
 5734TIP3   OH217142   4.273   3.896   2.502
 5734TIP3    H117143   4.194   3.916   2.552
 5734TIP3    H217144   4.332   3.970   2.519
 5735TIP3   OH217145   2.093   7.608   4.645
 5735TIP3    H117146   2.027   7.649   4.700
 5735TIP3    H217147   2.175   7.622   4.691
 5736TIP3   OH217148   0.610   0.878   2.121
 5736TIP3    H117149   0.653   0.906   2.041
 5736TIP3    H217150   0.519   0.908   2.111
 5737TIP3   OH217151   5.395   7.765   6.563
 5737TIP3    H117152   5.451   7.698   6.524
 5737TIP3    H217153   5.394   7.836   6.499
 5738TIP3   OH217154   4.745   1.024   4.528
 5738TIP3    H117155   4.789   1.096   4.482
 5738TIP3    H217156   4.754   0.949   4.468
 5739TIP3   OH217157   3.156   5.295   3.430
 5739TIP3    H117158   3.165   5.245   3.511
 5739TIP3    H217159   3.242   5.335   3.418
 5740TIP3   OH217160   7.090   2.660   3.845
 5740TIP3    H117161   6.994   2.663   3.840
 5740TIP3    H217162   7.117   2.751   3.858
 5741TIP3   OH217163   2.849   7.017   4.257
 5741TIP3    H117164   2.904   7.006   4.179
 5741TIP3    H217165   2.802   6.934   4.264
 5742TIP3   OH217166   1.953   1.015   1.777
 5742TIP3    H117167   1.870   0.966   1.781
 5742TIP3    H217168   2.020   0.950   1.799
 5743TIP3   OH217169   0.135   1.595   5.192
 5743TIP3    H117170   0.126   1.517   5.137
 5743TIP3    H217171   0.076   1.659   5.152
 5744TIP3   OH217172   2.477   3.209   6.500
 5744TIP3    H117173   2.491   3.149   6.573
 5744TIP3    H217174   2.481   3.153   6.422
 5745TIP3   OH217175   8.064   0.230   0.124
 5745TIP3    H117176   8.154   0.214   0.097
 5745TIP3    H217177   8.019   0.258   0.044
 5746TIP3   OH217178   4.196   1.018   2.452
 5746TIP3    H117179   4.109   0.981   2.465
 5746TIP3    H217180   4.180   1.101   2.407
 5747TIP3   OH217181   0.657   5.614   3.994
 5747TIP3    H117182   0.610   5.543   4.039
 5747TIP3    H217183   0.731   5.571   3.953
 5748TIP3   OH217184   5.425   1.718   3.109
 5748TIP3    H117185   5.487   1.719   3.182
 5748TIP3    H217186   5.367   1.644   3.128
 5749TIP3   OH217187   7.509   4.334   1.444
 5749TIP3    H117188   7.528   4.281   1.366
 5749TIP3    H217189   7.568   4.300   1.511
 5750TIP3   OH217190   1.098   4.694   5.581
 5750TIP3    H117191   1.107   4.705   5.486
 5750TIP3    H217192   1.045   4.769   5.609
 5751TIP3   OH217193   5.456   0.163   5.901
 5751TIP3    H117194   5.473   0.231   5.836
 5751TIP3    H217195   5.460   0.210   5.985
 5752TIP3   OH217196   3.566   0.051   4.972
 5752TIP3    H117197   3.589   0.136   4.936
 5752TIP3    H217198   3.572   0.062   5.067
 5753TIP3   OH217199   7.445   1.887   1.679
 5753TIP3    H117200   7.387   1.828   1.729
 5753TIP3    H217201   7.533   1.853   1.696
 5754TIP3   OH217202   3.824   0.716   3.114
 5754TIP3    H117203   3.822   0.751   3.025
 5754TIP3    H217204   3.742   0.748   3.153
 5755TIP3   OH217205   6.968   6.107   6.459
 5755TIP3    H117206   7.003   6.191   6.431
 5755TIP3    H217207   6.978   6.107   6.554
 5756TIP3   OH217208   2.865   1.483   0.514
 5756TIP3    H117209   2.847   1.544   0.442
 5756TIP3    H217210   2.842   1.397   0.479
 5757TIP3   OH217211   5.831   4.907   4.854
 5757TIP3    H117212   5.836   5.002   4.865
 5757TIP3    H217213   5.763   4.879   4.915
 5758TIP3   OH217214   3.056   6.250   0.882
 5758TIP3    H117215   3.047   6.273   0.974
 5758TIP3    H217216   3.151   6.248   0.866
 5759TIP3   OH217217   1.034   7.018   1.450
 5759TIP3    H117218   1.081   6.969   1.383
 5759TIP3    H217219   0.943   7.016   1.421
 5760TIP3   OH217220   3.590   6.609   5.015
 5760TIP3    H117221   3.623   6.537   4.961
 5760TIP3    H217222   3.522   6.650   4.962
 5761TIP3   OH217223   3.852   7.694   2.490
 5761TIP3    H117224   3.921   7.726   2.549
 5761TIP3    H217225   3.835   7.768   2.431
 5762TIP3   OH217226   3.798   6.003   2.615
 5762TIP3    H117227   3.857   6.078   2.606
 5762TIP3    H217228   3.757   5.995   2.529
 5763TIP3   OH217229   6.934   6.385   1.769
 5763TIP3    H117230   6.909   6.430   1.849
 5763TIP3    H217231   6.872   6.313   1.760
 5764TIP3   OH217232   7.440   2.492   6.280
 5764TIP3    H117233   7.467   2.520   6.192
 5764TIP3    H217234   7.484   2.408   6.293
 5765TIP3   OH217235   7.969   4.105   3.723
 5765TIP3    H117236   7.926   4.131   3.642
 5765TIP3    H217237   8.003   4.018   3.705
 5766TIP3   OH217238   7.078   3.241   5.241
 5766TIP3    H117239   7.127   3.323   5.238
 5766TIP3    H217240   7.135   3.178   5.198
 5767TIP3   OH217241   5.035   0.589   4.726
 5767TIP3    H117242   4.979   0.608   4.651
 5767TIP3    H217243   4.996   0.511   4.766
 5768TIP3   OH217244   1.310   4.554   3.402
 5768TIP3    H117245   1.352   4.637   3.422
 5768TIP3    H217246   1.382   4.491   3.395
 5769TIP3   OH217247   6.786   1.220   2.210
 5769TIP3    H117248   6.694   1.238   2.231
 5769TIP3    H217249   6.784   1.186   2.120
 5770TIP3   OH217250   4.970   1.314   6.535
 5770TIP3    H117251   4.948   1.405   6.517
 5770TIP3    H217252   4.911   1.264   6.478
 5771TIP3   OH217253   8.346   6.950   2.939
 5771TIP3    H117254   8.440   6.934   2.944
 5771TIP3    H217255   8.306   6.863   2.938
 5772TIP3   OH217256   5.165   1.142   1.417
 5772TIP3    H117257   5.088   1.155   1.472
 5772TIP3    H217258   5.239   1.142   1.478
 5773TIP3   OH217259   3.692   3.704   3.040
 5773TIP3    H117260   3.684   3.610   3.027
 5773TIP3    H217261   3.731   3.713   3.126
 5774TIP3   OH217262   4.164   6.548   3.957
 5774TIP3    H117263   4.129   6.636   3.970
 5774TIP3    H217264   4.133   6.499   4.033
 5775TIP3   OH217265   2.524   3.629   2.094
 5775TIP3    H117266   2.462   3.701   2.077
 5775TIP3    H217267   2.509   3.607   2.186
 5776TIP3   OH217268   3.476   2.409   4.690
 5776TIP3    H117269   3.568   2.395   4.669
 5776TIP3    H217270   3.477   2.481   4.752
 5777TIP3   OH217271   0.673   3.874   5.965
 5777TIP3    H117272   0.595   3.868   6.020
 5777TIP3    H217273   0.708   3.961   5.983
 5778TIP3   OH217274   3.891   1.797   6.383
 5778TIP3    H117275   3.906   1.879   6.430
 5778TIP3    H217276   3.796   1.788   6.379
 5779TIP3   OH217277   7.385   2.272   3.161
 5779TIP3    H117278   7.306   2.311   3.123
 5779TIP3    H217279   7.414   2.336   3.226
 5780TIP3   OH217280   4.437   6.171   2.512
 5780TIP3    H117281   4.400   6.200   2.428
 5780TIP3    H217282   4.438   6.250   2.566
 5781TIP3   OH217283   1.781   5.475   1.507
 5781TIP3    H117284   1.744   5.478   1.595
 5781TIP3    H217285   1.767   5.562   1.471
 5782TIP3   OH217286   5.715   5.060   3.638
 5782TIP3    H117287   5.775   5.117   3.686
 5782TIP3    H217288   5.772   4.992   3.602
 5783TIP3   OH217289   5.273   7.739   6.810
 5783TIP3    H117290   5.267   7.650   6.774
 5783TIP3    H217291   5.342   7.781   6.759
 5784TIP3   OH217292   7.268   7.356   1.516
 5784TIP3    H117293   7.305   7.442   1.535
 5784TIP3    H217294   7.221   7.332   1.596
 5785TIP3   OH217295   2.221   5.055   1.142
 5785TIP3    H117296   2.241   5.142   1.177
 5785TIP3    H217297   2.125   5.050   1.144
 5786TIP3   OH217298   0.059   5.019   6.166
 5786TIP3    H117299   0.100   5.049   6.248
 5786TIP3    H217300  -0.007   4.956   6.194
 5787TIP3   OH217301   6.063   3.336   0.019
 5787TIP3    H117302   6.075   3.273  -0.051
 5787TIP3    H217303   6.151   3.371   0.035
 5788TIP3   OH217304   1.925   4.111   3.624
 5788TIP3    H117305   1.830   4.119   3.624
 5788TIP3    H217306   1.955   4.187   3.575
 5789TIP3   OH217307   5.206   3.694   2.739
 5789TIP3    H117308   5.222   3.774   2.788
 5789TIP3    H217309   5.289   3.646   2.744
 5790TIP3   OH217310   1.297   5.843   4.478
 5790TIP3    H117311   1.347   5.900   4.537
 5790TIP3    H217312   1.232   5.901   4.438
 5791TIP3   OH217313   6.006   3.858   4.520
 5791TIP3    H117314   6.073   3.926   4.528
 5791TIP3    H217315   5.923   3.907   4.515
 5792TIP3   OH217316   7.397   2.620   4.316
 5792TIP3    H117317   7.370   2.659   4.232
 5792TIP3    H217318   7.325   2.561   4.339
 5793TIP3   OH217319   5.915   2.514   2.610
 5793TIP3    H117320   5.947   2.518   2.700
 5793TIP3    H217321   5.834   2.463   2.616
 5794TIP3   OH217322   2.517   1.466   3.126
 5794TIP3    H117323   2.446   1.529   3.142
 5794TIP3    H217324   2.579   1.482   3.197
 5795TIP3   OH217325   2.116   6.376   5.460
 5795TIP3    H117326   2.067   6.297   5.437
 5795TIP3    H217327   2.053   6.431   5.507
 5796TIP3   OH217328   3.767   2.721   5.321
 5796TIP3    H117329   3.712   2.678   5.256
 5796TIP3    H217330   3.788   2.806   5.282
 5797TIP3   OH217331   6.032   1.674   0.773
 5797TIP3    H117332   5.959   1.625   0.811
 5797TIP3    H217333   5.995   1.760   0.753
 5798TIP3   OH217334   2.557   0.532   4.718
 5798TIP3    H117335   2.560   0.486   4.634
 5798TIP3    H217336   2.554   0.625   4.694
 5799TIP3   OH217337   6.476   6.220   2.420
 5799TIP3    H117338   6.453   6.127   2.414
 5799TIP3    H217339   6.421   6.253   2.491
 5800TIP3   OH217340   5.339   3.419   4.543
 5800TIP3    H117341   5.244   3.432   4.536
 5800TIP3    H217342   5.350   3.324   4.539
 5801TIP3   OH217343   2.060   6.127   5.385
 5801TIP3    H117344   2.003   6.093   5.316
 5801TIP3    H217345   2.036   6.075   5.463
 5802TIP3   OH217346   2.450   1.210   3.169
 5802TIP3    H117347   2.513   1.277   3.142
 5802TIP3    H217348   2.458   1.208   3.264
 5803TIP3   OH217349   5.045   5.380   3.426
 5803TIP3    H117350   5.068   5.320   3.497
 5803TIP3    H217351   5.028   5.463   3.470
 5804TIP3   OH217352   1.611   0.436   0.774
 5804TIP3    H117353   1.638   0.415   0.864
 5804TIP3    H217354   1.634   0.528   0.764
 5805TIP3   OH217355   6.619   6.707   0.342
 5805TIP3    H117356   6.548   6.645   0.353
 5805TIP3    H217357   6.576   6.790   0.323
 5806TIP3   OH217358   3.313   7.851   2.744
 5806TIP3    H117359   3.332   7.892   2.828
 5806TIP3    H217360   3.399   7.837   2.704
 5807TIP3   OH217361   0.899   4.949   6.221
 5807TIP3    H117362   0.966   4.937   6.287
 5807TIP3    H217363   0.912   5.039   6.189
 5808TIP3   OH217364   2.593   0.731   6.511
 5808TIP3    H117365   2.531   0.772   6.450
 5808TIP3    H217366   2.634   0.662   6.459
 5809TIP3   OH217367   0.919   2.810   0.039
 5809TIP3    H117368   0.930   2.715   0.037
 5809TIP3    H217369   0.938   2.835   0.129
 5810TIP3   OH217370   7.590   3.001   3.324
 5810TIP3    H117371   7.548   2.961   3.247
 5810TIP3    H217372   7.641   3.073   3.288
 5811TIP3   OH217373   1.460   4.428   3.857
 5811TIP3    H117374   1.515   4.387   3.925
 5811TIP3    H217375   1.523   4.468   3.797
 5812TIP3   OH217376   4.790   5.824   6.297
 5812TIP3    H117377   4.802   5.833   6.391
 5812TIP3    H217378   4.834   5.900   6.259
 5813TIP3   OH217379   0.140   6.452   5.202
 5813TIP3    H117380   0.204   6.518   5.230
 5813TIP3    H217381   0.164   6.373   5.251
 5814TIP3   OH217382   2.612   1.375   2.583
 5814TIP3    H117383   2.592   1.421   2.665
 5814TIP3    H217384   2.568   1.291   2.591
 5815TIP3   OH217385   0.679   6.685   1.371
 5815TIP3    H117386   0.690   6.594   1.399
 5815TIP3    H217387   0.585   6.701   1.383
 5816TIP3   OH217388   3.562   3.574   6.822
 5816TIP3    H117389   3.640   3.627   6.836
 5816TIP3    H217390   3.514   3.620   6.753
 5817TIP3   OH217391   6.266   0.675   5.687
 5817TIP3    H117392   6.254   0.581   5.694
 5817TIP3    H217393   6.177   0.710   5.680
 5818TIP3   OH217394   6.690   4.663   5.442
 5818TIP3    H117395   6.670   4.579   5.481
 5818TIP3    H217396   6.627   4.724   5.480
 5819TIP3   OH217397   6.100   2.074   4.640
 5819TIP3    H117398   6.022   2.129   4.628
 5819TIP3    H217399   6.174   2.133   4.625
 5820TIP3   OH217400   3.409   5.014   0.830
 5820TIP3    H117401   3.413   4.959   0.907
 5820TIP3    H217402   3.336   4.979   0.779
 5821TIP3   OH217403   7.559   2.047   3.711
 5821TIP3    H117404   7.467   2.047   3.686
 5821TIP3    H217405   7.572   2.131   3.756
 5822TIP3   OH217406   1.886   1.242   3.228
 5822TIP3    H117407   1.807   1.280   3.189
 5822TIP3    H217408   1.925   1.190   3.157
 5823TIP3   OH217409   3.441   4.708   5.310
 5823TIP3    H117410   3.455   4.620   5.345
 5823TIP3    H217411   3.426   4.762   5.387
 5824TIP3   OH217412   5.963   0.262   6.530
 5824TIP3    H117413   5.974   0.287   6.438
 5824TIP3    H217414   5.897   0.323   6.563
 5825TIP3   OH217415   3.979   1.968   5.296
 5825TIP3    H117416   3.985   2.011   5.382
 5825TIP3    H217417   4.066   1.980   5.258
 5826TIP3   OH217418   7.985   1.474   5.559
 5826TIP3    H117419   7.921   1.411   5.594
 5826TIP3    H217420   7.937   1.520   5.490
 5827TIP3   OH217421   7.324   3.758   5.948
 5827TIP3    H117422   7.358   3.791   5.865
 5827TIP3    H217423   7.237   3.725   5.926
 5828TIP3   OH217424   5.715   2.864   1.889
 5828TIP3    H117425   5.805   2.892   1.900
 5828TIP3    H217426   5.702   2.799   1.959
 5829TIP3   OH217427   2.658   7.059   2.149
 5829TIP3    H117428   2.642   7.029   2.059
 5829TIP3    H217429   2.718   7.133   2.139
 5830TIP3   OH217430   4.779   0.829   2.187
 5830TIP3    H117431   4.754   0.921   2.198
 5830TIP3    H217432   4.758   0.809   2.096
 5831TIP3   OH217433   2.793   6.068   5.940
 5831TIP3    H117434   2.874   6.119   5.939
 5831TIP3    H217435   2.725   6.131   5.918
 5832TIP3   OH217436   2.718   2.459   0.235
 5832TIP3    H117437   2.785   2.391   0.234
 5832TIP3    H217438   2.748   2.523   0.171
 5833TIP3   OH217439   1.295   7.639   1.148
 5833TIP3    H117440   1.222   7.618   1.089
 5833TIP3    H217441   1.253   7.674   1.226
 5834TIP3   OH217442   2.691   2.576   4.698
 5834TIP3    H117443   2.694   2.484   4.724
 5834TIP3    H217444   2.772   2.589   4.648
 5835TIP3   OH217445   5.740   3.634   2.465
 5835TIP3    H117446   5.673   3.606   2.528
 5835TIP3    H217447   5.789   3.555   2.445
 5836TIP3   OH217448   2.793   2.518   3.092
 5836TIP3    H117449   2.872   2.478   3.054
 5836TIP3    H217450   2.771   2.461   3.165
 5837TIP3   OH217451   6.702   3.793   2.729
 5837TIP3    H117452   6.794   3.768   2.737
 5837TIP3    H217453   6.669   3.794   2.819
 5838TIP3   OH217454   3.274   5.057   1.929
 5838TIP3    H117455   3.216   4.993   1.887
 5838TIP3    H217456   3.271   5.034   2.022
 5839TIP3   OH217457   5.854   1.234   4.663
 5839TIP3    H117458   5.775   1.281   4.686
 5839TIP3    H217459   5.918   1.302   4.642
 5840TIP3   OH217460   8.334   1.740   0.061
 5840TIP3    H117461   8.392   1.703  -0.006
 5840TIP3    H217462   8.299   1.819   0.021
 5841TIP3   OH217463   8.122   4.514   3.822
 5841TIP3    H117464   8.181   4.507   3.897
 5841TIP3    H217465   8.176   4.548   3.751
 5842TIP3   OH217466   6.899   6.645   1.301
 5842TIP3    H117467   6.984   6.624   1.262
 5842TIP3    H217468   6.904   6.609   1.390
 5843TIP3   OH217469   6.361   5.876   2.151
 5843TIP3    H117470   6.451   5.858   2.123
 5843TIP3    H217471   6.368   5.952   2.209
 5844TIP3   OH217472   0.941   4.033   3.569
 5844TIP3    H117473   1.009   3.989   3.518
 5844TIP3    H217474   0.945   4.124   3.540
 5845TIP3   OH217475   7.391   5.135   2.295
 5845TIP3    H117476   7.414   5.220   2.332
 5845TIP3    H217477   7.295   5.129   2.304
 5846TIP3   OH217478   3.257   2.569   6.327
 5846TIP3    H117479   3.229   2.572   6.418
 5846TIP3    H217480   3.208   2.496   6.289
 5847TIP3   OH217481   6.316   6.886   5.202
 5847TIP3    H117482   6.273   6.822   5.259
 5847TIP3    H217483   6.352   6.833   5.130
 5848TIP3   OH217484   1.644   4.018   5.648
 5848TIP3    H117485   1.720   3.960   5.654
 5848TIP3    H217486   1.659   4.068   5.568
 5849TIP3   OH217487   2.685   5.677   3.496
 5849TIP3    H117488   2.776   5.645   3.499
 5849TIP3    H217489   2.638   5.620   3.557
 5850TIP3   OH217490   6.310   3.199   4.761
 5850TIP3    H117491   6.272   3.272   4.710
 5850TIP3    H217492   6.368   3.155   4.699
 5851TIP3   OH217493   1.717   1.887   6.170
 5851TIP3    H117494   1.803   1.925   6.190
 5851TIP3    H217495   1.732   1.792   6.171
 5852TIP3   OH217496   1.344   2.831   0.920
 5852TIP3    H117497   1.349   2.859   0.828
 5852TIP3    H217498   1.346   2.736   0.916
 5853TIP3   OH217499   2.980   6.365   4.747
 5853TIP3    H117500   2.898   6.402   4.714
 5853TIP3    H217501   3.043   6.437   4.741
 5854TIP3   OH217502   1.467   7.522   5.068
 5854TIP3    H117503   1.403   7.451   5.062
 5854TIP3    H217504   1.551   7.481   5.047
 5855TIP3   OH217505   7.860   0.728   5.131
 5855TIP3    H117506   7.888   0.813   5.099
 5855TIP3    H217507   7.766   0.740   5.149
 5856TIP3   OH217508   0.199   4.581   4.789
 5856TIP3    H117509   0.207   4.544   4.877
 5856TIP3    H217510   0.275   4.639   4.781
 5857TIP3   OH217511   0.753   2.363   6.506
 5857TIP3    H117512   0.802   2.323   6.434
 5857TIP3    H217513   0.714   2.289   6.553
 5858TIP3   OH217514   7.724   0.173   4.176
 5858TIP3    H117515   7.804   0.175   4.229
 5858TIP3    H217516   7.666   0.112   4.221
 5859TIP3   OH217517   0.389   3.956   6.320
 5859TIP3    H117518   0.412   3.968   6.413
 5859TIP3    H217519   0.454   4.007   6.272
 5860TIP3   OH217520   7.370   7.399   1.941
 5860TIP3    H117521   7.461   7.377   1.921
 5860TIP3    H217522   7.355   7.362   2.029
 5861TIP3   OH217523   4.099   4.203   5.794
 5861TIP3    H117524   4.150   4.276   5.828
 5861TIP3    H217525   4.084   4.224   5.702
 5862TIP3   OH217526   6.929   2.945   6.700
 5862TIP3    H117527   6.987   2.999   6.646
 5862TIP3    H217528   6.920   2.864   6.651
 5863TIP3   OH217529   1.628   1.301   6.654
 5863TIP3    H117530   1.534   1.296   6.668
 5863TIP3    H217531   1.665   1.297   6.743
 5864TIP3   OH217532   7.980   6.933   3.289
 5864TIP3    H117533   8.046   6.993   3.255
 5864TIP3    H217534   8.031   6.864   3.331
 5865TIP3   OH217535   2.687   2.518   0.481
 5865TIP3    H117536   2.713   2.523   0.389
 5865TIP3    H217537   2.689   2.609   0.511
 5866TIP3   OH217538   0.849   2.383   5.172
 5866TIP3    H117539   0.757   2.407   5.168
 5866TIP3    H217540   0.892   2.461   5.207
 5867TIP3   OH217541   4.381   0.948   3.705
 5867TIP3    H117542   4.291   0.943   3.674
 5867TIP3    H217543   4.424   1.008   3.643
 5868TIP3   OH217544   6.802   2.630   0.144
 5868TIP3    H117545   6.758   2.713   0.128
 5868TIP3    H217546   6.893   2.646   0.118
 5869TIP3   OH217547   4.564   1.576   4.157
 5869TIP3    H117548   4.507   1.581   4.234
 5869TIP3    H217549   4.567   1.483   4.135
 5870TIP3   OH217550   1.913   7.833   4.172
 5870TIP3    H117551   1.862   7.783   4.108
 5870TIP3    H217552   1.986   7.776   4.195
 5871TIP3   OH217553   0.720   0.180   4.833
 5871TIP3    H117554   0.697   0.100   4.881
 5871TIP3    H217555   0.695   0.251   4.893
 5872TIP3   OH217556   0.089   7.285   3.206
 5872TIP3    H117557   0.161   7.305   3.147
 5872TIP3    H217558   0.010   7.309   3.157
 5873TIP3   OH217559   5.374   4.632   6.638
 5873TIP3    H117560   5.442   4.607   6.699
 5873TIP3    H217561   5.308   4.563   6.645
 5874TIP3   OH217562   7.967   0.582   0.007
 5874TIP3    H117563   7.963   0.527   0.086
 5874TIP3    H217564   7.877   0.585  -0.024
 5875TIP3   OH217565   0.059   6.821   5.804
 5875TIP3    H117566   0.028   6.770   5.879
 5875TIP3    H217567   0.014   6.782   5.729
 5876TIP3   OH217568   6.245   7.319   5.557
 5876TIP3    H117569   6.198   7.382   5.502
 5876TIP3    H217570   6.200   7.323   5.641
 5877TIP3   OH217571   2.390   4.873   2.588
 5877TIP3    H117572   2.457   4.809   2.565
 5877TIP3    H217573   2.357   4.905   2.504
 5878TIP3   OH217574   6.603   6.700   3.681
 5878TIP3    H117575   6.555   6.775   3.714
 5878TIP3    H217576   6.574   6.627   3.736
 5879TIP3   OH217577   0.776   6.416   1.424
 5879TIP3    H117578   0.826   6.341   1.456
 5879TIP3    H217579   0.748   6.391   1.336
 5880TIP3   OH217580   5.464   2.393   2.378
 5880TIP3    H117581   5.551   2.431   2.371
 5880TIP3    H217582   5.442   2.367   2.288
 5881TIP3   OH217583   4.506   0.831   0.956
 5881TIP3    H117584   4.411   0.840   0.958
 5881TIP3    H217585   4.524   0.747   0.997
 5882TIP3   OH217586   1.413   5.113   1.949
 5882TIP3    H117587   1.338   5.056   1.966
 5882TIP3    H217588   1.385   5.199   1.980
 5883TIP3   OH217589   8.127   2.209   5.484
 5883TIP3    H117590   8.123   2.119   5.451
 5883TIP3    H217591   8.137   2.263   5.406
 5884TIP3   OH217592   3.773   5.692   2.814
 5884TIP3    H117593   3.699   5.715   2.869
 5884TIP3    H217594   3.779   5.597   2.822
 5885TIP3   OH217595   0.577   7.682   6.184
 5885TIP3    H117596   0.494   7.675   6.231
 5885TIP3    H217597   0.610   7.769   6.208
 5886TIP3   OH217598   7.462   5.451   6.519
 5886TIP3    H117599   7.429   5.520   6.462
 5886TIP3    H217600   7.558   5.458   6.512
 5887TIP3   OH217601   2.475   7.824   6.402
 5887TIP3    H117602   2.384   7.796   6.409
 5887TIP3    H217603   2.485   7.889   6.472
 5888TIP3   OH217604   7.144   6.631   2.418
 5888TIP3    H117605   7.196   6.692   2.470
 5888TIP3    H217606   7.058   6.672   2.412
 5889TIP3   OH217607   4.672   6.581   6.401
 5889TIP3    H117608   4.750   6.634   6.411
 5889TIP3    H217609   4.659   6.541   6.487
 5890TIP3   OH217610   1.361   7.553   3.176
 5890TIP3    H117611   1.408   7.471   3.168
 5890TIP3    H217612   1.421   7.620   3.144
 5891TIP3   OH217613   3.446   2.613   1.171
 5891TIP3    H117614   3.462   2.645   1.260
 5891TIP3    H217615   3.520   2.554   1.154
 5892TIP3   OH217616   5.576   7.192   6.677
 5892TIP3    H117617   5.485   7.168   6.694
 5892TIP3    H217618   5.614   7.203   6.764
 5893TIP3   OH217619   2.404   4.620   4.257
 5893TIP3    H117620   2.498   4.623   4.240
 5893TIP3    H217621   2.383   4.527   4.262
 5894TIP3   OH217622   2.965   6.051   4.271
 5894TIP3    H117623   3.057   6.044   4.247
 5894TIP3    H217624   2.918   6.048   4.188
 5895TIP3   OH217625   7.692   0.971   4.065
 5895TIP3    H117626   7.692   1.009   4.153
 5895TIP3    H217627   7.748   0.894   4.072
 5896TIP3   OH217628   5.929   3.198   3.001
 5896TIP3    H117629   5.967   3.113   2.978
 5896TIP3    H217630   5.948   3.254   2.926
 5897TIP3   OH217631   1.423   4.656   2.661
 5897TIP3    H117632   1.398   4.627   2.749
 5897TIP3    H217633   1.517   4.671   2.667
 5898TIP3   OH217634   2.567   5.155   3.100
 5898TIP3    H117635   2.566   5.113   3.186
 5898TIP3    H217636   2.570   5.082   3.038
 5899TIP3   OH217637   4.574   4.922   4.477
 5899TIP3    H117638   4.583   4.889   4.566
 5899TIP3    H217639   4.494   4.881   4.445
 5900TIP3   OH217640   7.346   1.480   6.295
 5900TIP3    H117641   7.330   1.386   6.289
 5900TIP3    H217642   7.269   1.520   6.254
 5901TIP3   OH217643   4.495   1.265   0.756
 5901TIP3    H117644   4.534   1.352   0.766
 5901TIP3    H217645   4.408   1.282   0.719
 5902TIP3   OH217646   3.536   2.065   2.884
 5902TIP3    H117647   3.525   2.151   2.923
 5902TIP3    H217648   3.605   2.076   2.819
 5903TIP3   OH217649   6.603   5.766   3.660
 5903TIP3    H117650   6.603   5.721   3.576
 5903TIP3    H217651   6.539   5.836   3.650
 5904TIP3   OH217652   5.518   4.673   2.028
 5904TIP3    H117653   5.564   4.754   2.052
 5904TIP3    H217654   5.554   4.650   1.943
 5905TIP3   OH217655   0.072   0.545   1.896
 5905TIP3    H117656   0.064   0.451   1.882
 5905TIP3    H217657   0.101   0.579   1.811
 5906TIP3   OH217658   4.592   5.072   2.841
 5906TIP3    H117659   4.626   5.122   2.915
 5906TIP3    H217660   4.639   4.989   2.844
 5907TIP3   OH217661   2.073   1.349   3.551
 5907TIP3    H117662   2.088   1.288   3.623
 5907TIP3    H217663   1.990   1.392   3.572
 5908TIP3   OH217664   5.487   7.685   2.256
 5908TIP3    H117665   5.412   7.626   2.256
 5908TIP3    H217666   5.512   7.694   2.348
 5909TIP3   OH217667   2.564   6.414   2.602
 5909TIP3    H117668   2.524   6.343   2.552
 5909TIP3    H217669   2.648   6.377   2.632
 5910TIP3   OH217670   1.388   6.670   6.130
 5910TIP3    H117671   1.308   6.722   6.129
 5910TIP3    H217672   1.409   6.659   6.222
 5911TIP3   OH217673   8.255   5.215   4.495
 5911TIP3    H117674   8.259   5.167   4.411
 5911TIP3    H217675   8.342   5.253   4.505
 5912TIP3   OH217676   3.757   4.691   4.500
 5912TIP3    H117677   3.796   4.776   4.483
 5912TIP3    H217678   3.828   4.628   4.483
 5913TIP3   OH217679   1.689   6.034   3.928
 5913TIP3    H117680   1.616   6.083   3.889
 5913TIP3    H217681   1.691   6.063   4.020
 5914TIP3   OH217682   4.903   1.938   0.200
 5914TIP3    H117683   4.976   1.957   0.258
 5914TIP3    H217684   4.938   1.877   0.136
 5915TIP3   OH217685   5.768   2.299   4.780
 5915TIP3    H117686   5.763   2.390   4.751
 5915TIP3    H217687   5.835   2.299   4.848
 5916TIP3   OH217688   2.141   0.820   1.853
 5916TIP3    H117689   2.135   0.728   1.829
 5916TIP3    H217690   2.216   0.824   1.913
 5917TIP3   OH217691   6.625   4.811   0.450
 5917TIP3    H117692   6.616   4.899   0.413
 5917TIP3    H217693   6.547   4.799   0.503
 5918TIP3   OH217694   0.641   0.939   3.920
 5918TIP3    H117695   0.579   0.866   3.914
 5918TIP3    H217696   0.612   1.001   3.853
 5919TIP3   OH217697   5.164   6.491   4.279
 5919TIP3    H117698   5.156   6.583   4.254
 5919TIP3    H217699   5.242   6.460   4.233
 5920TIP3   OH217700   4.227   0.877   3.271
 5920TIP3    H117701   4.139   0.903   3.244
 5920TIP3    H217702   4.221   0.866   3.366
 5921TIP3   OH217703   1.696   3.453   3.797
 5921TIP3    H117704   1.668   3.472   3.707
 5921TIP3    H217705   1.772   3.395   3.786
 5922TIP3   OH217706   6.544   4.957   0.044
 5922TIP3    H117707   6.554   4.987   0.134
 5922TIP3    H217708   6.568   5.033  -0.009
 5923TIP3   OH217709   2.065   2.077   1.060
 5923TIP3    H117710   2.116   2.076   1.141
 5923TIP3    H217711   2.046   2.169   1.044
 5924TIP3   OH217712   6.460   4.111   2.540
 5924TIP3    H117713   6.426   4.034   2.494
 5924TIP3    H217714   6.382   4.164   2.559
 5925TIP3   OH217715   1.478   2.076   3.337
 5925TIP3    H117716   1.546   2.142   3.344
 5925TIP3    H217717   1.434   2.095   3.254
 5926TIP3   OH217718   1.484   2.510   5.244
 5926TIP3    H117719   1.435   2.575   5.194
 5926TIP3    H217720   1.456   2.522   5.335
 5927TIP3   OH217721   3.905   7.630   1.368
 5927TIP3    H117722   3.907   7.664   1.279
 5927TIP3    H217723   3.812   7.612   1.384
 5928TIP3   OH217724   0.102   3.912   0.095
 5928TIP3    H117725   0.151   3.957   0.164
 5928TIP3    H217726   0.032   3.867   0.141
 5929TIP3   OH217727   2.859   1.804   5.275
 5929TIP3    H117728   2.949   1.810   5.242
 5929TIP3    H217729   2.863   1.840   5.364
 5930TIP3   OH217730   3.098   1.053   5.362
 5930TIP3    H117731   3.043   1.131   5.371
 5930TIP3    H217732   3.039   0.980   5.380
 5931TIP3   OH217733   6.904   3.220   2.080
 5931TIP3    H117734   6.953   3.237   2.000
 5931TIP3    H217735   6.813   3.241   2.057
 5932TIP3   OH217736   0.731   3.633   1.651
 5932TIP3    H117737   0.800   3.676   1.601
 5932TIP3    H217738   0.677   3.590   1.584
 5933TIP3   OH217739   5.022   3.099   6.325
 5933TIP3    H117740   4.948   3.081   6.382
 5933TIP3    H217741   5.097   3.105   6.384
 5934TIP3   OH217742   6.534   2.396   5.555
 5934TIP3    H117743   6.569   2.441   5.633
 5934TIP3    H217744   6.597   2.417   5.486
 5935TIP3   OH217745   7.933   6.756   4.725
 5935TIP3    H117746   7.985   6.770   4.804
 5935TIP3    H217747   7.997   6.728   4.659
 5936TIP3   OH217748   6.223   1.187   4.381
 5936TIP3    H117749   6.286   1.257   4.397
 5936TIP3    H217750   6.274   1.106   4.393
 5937TIP3   OH217751   4.097   5.193   1.544
 5937TIP3    H117752   4.005   5.182   1.518
 5937TIP3    H217753   4.092   5.241   1.627
 5938TIP3   OH217754   7.928   1.504   1.001
 5938TIP3    H117755   7.906   1.410   1.000
 5938TIP3    H217756   8.022   1.506   0.986
 5939TIP3   OH217757   8.389   2.338   4.861
 5939TIP3    H117758   8.341   2.256   4.847
 5939TIP3    H217759   8.340   2.403   4.810
 5940TIP3   OH217760   2.153   4.129   1.606
 5940TIP3    H117761   2.113   4.116   1.520
 5940TIP3    H217762   2.140   4.222   1.625
 5941TIP3   OH217763   1.645   7.496   0.968
 5941TIP3    H117764   1.681   7.492   0.880
 5941TIP3    H217765   1.599   7.580   0.972
 5942TIP3   OH217766   3.609   1.862   0.615
 5942TIP3    H117767   3.700   1.840   0.595
 5942TIP3    H217768   3.609   1.958   0.622
 5943TIP3   OH217769   2.405   2.600   4.699
 5943TIP3    H117770   2.498   2.596   4.721
 5943TIP3    H217771   2.362   2.617   4.782
 5944TIP3   OH217772   0.956   3.184   0.780
 5944TIP3    H117773   0.943   3.204   0.872
 5944TIP3    H217774   1.050   3.195   0.766
 5945TIP3   OH217775   5.571   7.744   5.722
 5945TIP3    H117776   5.486   7.763   5.761
 5945TIP3    H217777   5.551   7.687   5.648
 5946TIP3   OH217778   3.586   5.467   3.598
 5946TIP3    H117779   3.667   5.431   3.632
 5946TIP3    H217780   3.517   5.427   3.651
 5947TIP3   OH217781   1.734   1.148   5.572
 5947TIP3    H117782   1.823   1.125   5.599
 5947TIP3    H217783   1.685   1.067   5.581
 5948TIP3   OH217784   2.710   6.047   1.246
 5948TIP3    H117785   2.753   6.076   1.166
 5948TIP3    H217786   2.735   5.954   1.254
 5949TIP3   OH217787   3.559   4.865   3.524
 5949TIP3    H117788   3.643   4.820   3.530
 5949TIP3    H217789   3.567   4.921   3.447
 5950TIP3   OH217790   8.366   5.639   4.767
 5950TIP3    H117791   8.441   5.579   4.764
 5950TIP3    H217792   8.375   5.685   4.850
 5951TIP3   OH217793   6.490   0.051   1.473
 5951TIP3    H117794   6.435  -0.022   1.503
 5951TIP3    H217795   6.579   0.023   1.490
 5952TIP3   OH217796   0.791   5.695   5.729
 5952TIP3    H117797   0.727   5.655   5.669
 5952TIP3    H217798   0.755   5.678   5.816
 5953TIP3   OH217799   7.840   6.293   6.220
 5953TIP3    H117800   7.842   6.389   6.217
 5953TIP3    H217801   7.928   6.269   6.249
 5954TIP3   OH217802   1.262   1.127   6.352
 5954TIP3    H117803   1.208   1.057   6.388
 5954TIP3    H217804   1.287   1.096   6.265
 5955TIP3   OH217805   6.470   4.382   1.777
 5955TIP3    H117806   6.526   4.366   1.852
 5955TIP3    H217807   6.522   4.438   1.719
 5956TIP3   OH217808   1.863   1.796   4.455
 5956TIP3    H117809   1.901   1.715   4.419
 5956TIP3    H217810   1.915   1.866   4.416
 5957TIP3   OH217811   0.446   6.762   0.343
 5957TIP3    H117812   0.470   6.683   0.293
 5957TIP3    H217813   0.405   6.728   0.422
 5958TIP3   OH217814   1.976   4.074   1.372
 5958TIP3    H117815   2.002   3.983   1.357
 5958TIP3    H217816   1.892   4.083   1.327
 5959TIP3   OH217817   7.856   4.029   1.736
 5959TIP3    H117818   7.828   4.117   1.758
 5959TIP3    H217819   7.845   3.979   1.816
 5960TIP3   OH217820   5.389   4.749   1.464
 5960TIP3    H117821   5.387   4.727   1.371
 5960TIP3    H217822   5.417   4.841   1.466
 5961TIP3   OH217823   5.121   1.095   4.717
 5961TIP3    H117824   5.074   1.024   4.761
 5961TIP3    H217825   5.134   1.063   4.628
 5962TIP3   OH217826   8.284   4.951   4.314
 5962TIP3    H117827   8.276   4.871   4.365
 5962TIP3    H217828   8.353   4.933   4.251
 5963TIP3   OH217829   2.231   2.542   3.169
 5963TIP3    H117830   2.249   2.609   3.236
 5963TIP3    H217831   2.316   2.524   3.129
 5964TIP3   OH217832   3.916   0.218   2.751
 5964TIP3    H117833   3.997   0.184   2.788
 5964TIP3    H217834   3.865   0.141   2.729
 5965TIP3   OH217835   6.514   6.273   0.213
 5965TIP3    H117836   6.430   6.242   0.248
 5965TIP3    H217837   6.579   6.218   0.257
 5966TIP3   OH217838   0.614   3.292   0.277
 5966TIP3    H117839   0.676   3.333   0.217
 5966TIP3    H217840   0.528   3.305   0.236
 5967TIP3   OH217841   7.643   3.455   3.239
 5967TIP3    H117842   7.721   3.406   3.215
 5967TIP3    H217843   7.583   3.389   3.273
 5968TIP3   OH217844   5.196   4.491   1.373
 5968TIP3    H117845   5.253   4.560   1.338
 5968TIP3    H217846   5.148   4.533   1.444
 5969TIP3   OH217847   8.086   1.108   0.259
 5969TIP3    H117848   8.171   1.105   0.303
 5969TIP3    H217849   8.050   1.193   0.284
 5970TIP3   OH217850   0.465   5.534   6.654
 5970TIP3    H117851   0.531   5.490   6.601
 5970TIP3    H217852   0.463   5.483   6.736
 5971TIP3   OH217853   1.079   7.605   0.359
 5971TIP3    H117854   1.121   7.571   0.437
 5971TIP3    H217855   0.999   7.554   0.349
 5972TIP3   OH217856   2.896   6.015   4.994
 5972TIP3    H117857   2.921   6.092   5.044
 5972TIP3    H217858   2.832   6.047   4.930
 5973TIP3   OH217859   2.694   5.078   3.769
 5973TIP3    H117860   2.762   5.050   3.708
 5973TIP3    H217861   2.695   5.012   3.838
 5974TIP3   OH217862   0.261   1.089   6.599
 5974TIP3    H117863   0.170   1.069   6.621
 5974TIP3    H217864   0.300   1.004   6.579
 5975TIP3   OH217865   5.022   6.885   3.621
 5975TIP3    H117866   5.111   6.921   3.622
 5975TIP3    H217867   4.987   6.911   3.536
 5976TIP3   OH217868   1.891   6.814   2.699
 5976TIP3    H117869   1.813   6.831   2.647
 5976TIP3    H217870   1.920   6.901   2.728
 5977TIP3   OH217871   1.432   2.079   0.476
 5977TIP3    H117872   1.416   1.997   0.523
 5977TIP3    H217873   1.361   2.084   0.412
 5978TIP3   OH217874   0.227   6.989   3.785
 5978TIP3    H117875   0.287   7.046   3.737
 5978TIP3    H217876   0.285   6.932   3.836
 5979TIP3   OH217877   6.952   7.048   4.001
 5979TIP3    H117878   6.886   6.983   4.024
 5979TIP3    H217879   6.961   7.041   3.906
 5980TIP3   OH217880   0.252   1.967   6.484
 5980TIP3    H117881   0.281   1.981   6.574
 5980TIP3    H217882   0.318   1.907   6.447
 5981TIP3   OH217883   6.545   4.326   0.290
 5981TIP3    H117884   6.604   4.343   0.217
 5981TIP3    H217885   6.503   4.410   0.307
 5982TIP3   OH217886   6.959   0.759   5.401
 5982TIP3    H117887   6.948   0.794   5.313
 5982TIP3    H217888   7.050   0.729   5.404
 5983TIP3   OH217889   4.681   5.998   1.072
 5983TIP3    H117890   4.664   6.058   1.145
 5983TIP3    H217891   4.597   5.990   1.027
 5984TIP3   OH217892   1.125   6.773   4.479
 5984TIP3    H117893   1.076   6.743   4.556
 5984TIP3    H217894   1.184   6.840   4.513
 5985TIP3   OH217895   3.058   1.126   1.753
 5985TIP3    H117896   3.150   1.150   1.750
 5985TIP3    H217897   3.058   1.031   1.764
 5986TIP3   OH217898   3.163   6.735   1.255
 5986TIP3    H117899   3.186   6.644   1.234
 5986TIP3    H217900   3.070   6.731   1.277
 5987TIP3   OH217901   8.200   4.922   0.917
 5987TIP3    H117902   8.205   5.003   0.867
 5987TIP3    H217903   8.119   4.881   0.888
 5988TIP3   OH217904   2.071   4.294   6.781
 5988TIP3    H117905   2.025   4.246   6.712
 5988TIP3    H217906   2.103   4.373   6.738
 5989TIP3   OH217907   2.502   1.898   5.550
 5989TIP3    H117908   2.524   1.861   5.464
 5989TIP3    H217909   2.517   1.826   5.611
 5990TIP3   OH217910   3.404   5.486   2.010
 5990TIP3    H117911   3.487   5.444   2.034
 5990TIP3    H217912   3.361   5.423   1.952
 5991TIP3   OH217913   4.358   1.173   3.917
 5991TIP3    H117914   4.445   1.195   3.884
 5991TIP3    H217915   4.329   1.102   3.860
 5992TIP3   OH217916   1.629   1.635   4.047
 5992TIP3    H117917   1.695   1.687   4.094
 5992TIP3    H217918   1.595   1.575   4.113
 5993TIP3   OH217919   4.224   5.478   1.994
 5993TIP3    H117920   4.161   5.452   1.927
 5993TIP3    H217921   4.175   5.537   2.052
 5994TIP3   OH217922   7.713   0.404   2.254
 5994TIP3    H117923   7.712   0.360   2.338
 5994TIP3    H217924   7.804   0.431   2.242
 5995TIP3   OH217925   0.556   2.212   2.871
 5995TIP3    H117926   0.557   2.226   2.966
 5995TIP3    H217927   0.463   2.220   2.847
 5996TIP3   OH217928   4.927   0.357   4.800
 5996TIP3    H117929   4.845   0.319   4.768
 5996TIP3    H217930   4.979   0.281   4.829
 5997TIP3   OH217931   1.546   1.932   5.943
 5997TIP3    H117932   1.568   2.021   5.915
 5997TIP3    H217933   1.584   1.924   6.030
 5998TIP3   OH217934   2.112   3.203   6.543
 5998TIP3    H117935   2.131   3.297   6.540
 5998TIP3    H217936   2.035   3.196   6.600
 5999TIP3   OH217937   3.112   1.315   2.446
 5999TIP3    H117938   3.099   1.236   2.393
 5999TIP3    H217939   3.027   1.357   2.448
 6000TIP3   OH217940   6.808   1.983   2.024
 6000TIP3    H117941   6.792   1.904   2.076
 6000TIP3    H217942   6.896   2.010   2.050
 6001TIP3   OH217943   3.497   4.017   1.777
 6001TIP3    H117944   3.496   4.083   1.707
 6001TIP3    H217945   3.566   3.956   1.750
 6002TIP3   OH217946   1.143   3.137   4.221
 6002TIP3    H117947   1.135   3.189   4.301
 6002TIP3    H217948   1.185   3.196   4.158
 6003TIP3   OH217949   6.069   0.227   3.298
 6003TIP3    H117950   6.153   0.184   3.281
 6003TIP3    H217951   6.030   0.176   3.369
 6004TIP3   OH217952   0.321   1.581   6.823
 6004TIP3    H117953   0.405   1.551   6.858
 6004TIP3    H217954   0.268   1.502   6.817
 6005TIP3   OH217955   1.056   1.079   3.565
 6005TIP3    H117956   1.031   1.031   3.486
 6005TIP3    H217957   0.993   1.151   3.570
 6006TIP3   OH217958   3.800   6.463   0.768
 6006TIP3    H117959   3.880   6.418   0.741
 6006TIP3    H217960   3.797   6.452   0.863
 6007TIP3   OH217961   5.999   3.705   3.146
 6007TIP3    H117962   5.971   3.647   3.075
 6007TIP3    H217963   5.955   3.669   3.223
 6008TIP3   OH217964   7.460   3.247   3.192
 6008TIP3    H117965   7.426   3.158   3.201
 6008TIP3    H217966   7.384   3.304   3.203
 6009TIP3   OH217967   3.717   4.314   1.896
 6009TIP3    H117968   3.733   4.344   1.807
 6009TIP3    H217969   3.641   4.256   1.888
 6010TIP3   OH217970   1.294   6.070   1.741
 6010TIP3    H117971   1.380   6.047   1.704
 6010TIP3    H217972   1.231   6.035   1.678
 6011TIP3   OH217973   6.309   0.604   4.236
 6011TIP3    H117974   6.270   0.654   4.165
 6011TIP3    H217975   6.261   0.631   4.314
 6012TIP3   OH217976   1.121   7.296   5.907
 6012TIP3    H117977   1.135   7.372   5.851
 6012TIP3    H217978   1.035   7.311   5.945
 6013TIP3   OH217979   7.087   6.887   4.812
 6013TIP3    H117980   7.013   6.870   4.753
 6013TIP3    H217981   7.054   6.862   4.899
 6014TIP3   OH217982   2.435   5.497   5.726
 6014TIP3    H117983   2.505   5.556   5.754
 6014TIP3    H217984   2.367   5.554   5.693
 6015TIP3   OH217985   8.299   2.949   2.290
 6015TIP3    H117986   8.257   2.891   2.226
 6015TIP3    H217987   8.239   3.024   2.297
 6016TIP3   OH217988   1.606   4.675   0.054
 6016TIP3    H117989   1.669   4.744   0.075
 6016TIP3    H217990   1.616   4.610   0.123
 6017TIP3   OH217991   3.740   1.148   3.592
 6017TIP3    H117992   3.763   1.225   3.644
 6017TIP3    H217993   3.648   1.160   3.570
 6018TIP3   OH217994   4.920   3.955   2.995
 6018TIP3    H117995   4.828   3.978   3.005
 6018TIP3    H217996   4.920   3.862   2.972
 6019TIP3   OH217997   3.455   4.749   4.889
 6019TIP3    H117998   3.483   4.834   4.924
 6019TIP3    H217999   3.513   4.685   4.932
 6020TIP3   OH218000   1.168   4.358   0.038
 6020TIP3    H118001   1.218   4.384  -0.039
 6020TIP3    H218002   1.232   4.313   0.094
 6021TIP3   OH218003   7.571   3.623   0.994
 6021TIP3    H118004   7.539   3.569   0.922
 6021TIP3    H218005   7.493   3.649   1.043
 6022TIP3   OH218006   2.378   3.149   3.190
 6022TIP3    H118007   2.419   3.095   3.122
 6022TIP3    H218008   2.303   3.189   3.146
 6023TIP3   OH218009   2.724   0.968   0.657
 6023TIP3    H118010   2.695   0.992   0.745
 6023TIP3    H218011   2.745   1.052   0.615
 6024TIP3   OH218012   0.232   2.519   4.925
 6024TIP3    H118013   0.181   2.446   4.887
 6024TIP3    H218014   0.228   2.504   5.019
 6025TIP3   OH218015   2.454   7.053   6.062
 6025TIP3    H118016   2.402   7.011   6.130
 6025TIP3    H218017   2.544   7.047   6.093
 6026TIP3   OH218018   3.391   1.690   2.749
 6026TIP3    H118019   3.359   1.625   2.686
 6026TIP3    H218020   3.320   1.702   2.811
 6027TIP3   OH218021   1.529   4.651   1.548
 6027TIP3    H118022   1.490   4.565   1.563
 6027TIP3    H218023   1.592   4.636   1.477
 6028TIP3   OH218024   5.047   5.107   5.106
 6028TIP3    H118025   5.131   5.147   5.128
 6028TIP3    H218026   5.055   5.084   5.014
 6029TIP3   OH218027   8.018   0.463   1.239
 6029TIP3    H118028   8.096   0.505   1.276
 6029TIP3    H218029   8.051   0.384   1.196
 6030TIP3   OH218030   0.287   1.696   1.733
 6030TIP3    H118031   0.275   1.604   1.713
 6030TIP3    H218032   0.381   1.705   1.750
 6031TIP3   OH218033   5.278   3.773   3.576
 6031TIP3    H118034   5.229   3.760   3.495
 6031TIP3    H218035   5.231   3.721   3.641
 6032TIP3   OH218036   5.580   1.643   3.337
 6032TIP3    H118037   5.568   1.671   3.428
 6032TIP3    H218038   5.558   1.549   3.337
 6033TIP3   OH218039   3.673   7.365   1.129
 6033TIP3    H118040   3.595   7.310   1.125
 6033TIP3    H218041   3.738   7.311   1.175
 6034TIP3   OH218042   2.164   1.080   0.454
 6034TIP3    H118043   2.158   1.171   0.484
 6034TIP3    H218044   2.162   1.028   0.534
 6035TIP3   OH218045   2.320   0.550   1.294
 6035TIP3    H118046   2.288   0.561   1.205
 6035TIP3    H218047   2.257   0.491   1.335
 6036TIP3   OH218048   6.862   2.621   1.373
 6036TIP3    H118049   6.883   2.537   1.330
 6036TIP3    H218050   6.767   2.620   1.381
 6037TIP3   OH218051   0.998   2.845   6.108
 6037TIP3    H118052   0.965   2.885   6.189
 6037TIP3    H218053   0.982   2.911   6.041
 6038TIP3   OH218054   4.166   3.832   3.225
 6038TIP3    H118055   4.197   3.909   3.177
 6038TIP3    H218056   4.227   3.823   3.297
 6039TIP3   OH218057   7.312   1.900   1.096
 6039TIP3    H118058   7.353   1.830   1.046
 6039TIP3    H218059   7.385   1.954   1.127
 6040TIP3   OH218060   4.024   2.767   5.737
 6040TIP3    H118061   4.055   2.735   5.652
 6040TIP3    H218062   3.934   2.795   5.720
 6041TIP3   OH218063   0.772   0.146   3.085
 6041TIP3    H118064   0.735   0.168   3.171
 6041TIP3    H218065   0.867   0.152   3.098
 6042TIP3   OH218066   2.193   6.976   1.501
 6042TIP3    H118067   2.099   6.988   1.513
 6042TIP3    H218068   2.200   6.911   1.431
 6043TIP3   OH218069   2.925   6.824   0.894
 6043TIP3    H118070   2.973   6.846   0.974
 6043TIP3    H218071   2.832   6.827   0.920
 6044TIP3   OH218072   1.613   7.003   0.422
 6044TIP3    H118073   1.607   6.908   0.435
 6044TIP3    H218074   1.560   7.020   0.344
 6045TIP3   OH218075   0.279   6.747   1.811
 6045TIP3    H118076   0.329   6.677   1.853
 6045TIP3    H218077   0.310   6.827   1.853
 6046TIP3   OH218078   0.874   3.340   2.010
 6046TIP3    H118079   0.954   3.309   2.053
 6046TIP3    H218080   0.904   3.396   1.940
 6047TIP3   OH218081   4.864   1.370   1.129
 6047TIP3    H118082   4.770   1.385   1.119
 6047TIP3    H218083   4.904   1.456   1.119
 6048TIP3   OH218084   6.584   6.072   4.645
 6048TIP3    H118085   6.597   5.980   4.625
 6048TIP3    H218086   6.597   6.078   4.740
 6049TIP3   OH218087   4.974   6.325   4.162
 6049TIP3    H118088   5.005   6.386   4.229
 6049TIP3    H218089   4.879   6.337   4.161
 6050TIP3   OH218090   2.120   6.983   0.420
 6050TIP3    H118091   2.185   6.958   0.354
 6050TIP3    H218092   2.167   7.044   0.477
 6051TIP3   OH218093   6.567   7.447   2.910
 6051TIP3    H118094   6.559   7.451   3.006
 6051TIP3    H218095   6.642   7.389   2.895
 6052TIP3   OH218096   2.765   3.522   2.520
 6052TIP3    H118097   2.856   3.534   2.545
 6052TIP3    H218098   2.736   3.445   2.569
 6053TIP3   OH218099   2.073   2.180   4.775
 6053TIP3    H118100   2.050   2.093   4.744
 6053TIP3    H218101   2.014   2.196   4.848
 6054TIP3   OH218102   5.280   6.065   2.495
 6054TIP3    H118103   5.218   6.065   2.422
 6054TIP3    H218104   5.341   6.136   2.475
 6055TIP3   OH218105   1.222   7.815   6.772
 6055TIP3    H118106   1.227   7.877   6.845
 6055TIP3    H218107   1.296   7.756   6.785
 6056TIP3   OH218108   5.258   6.881   0.118
 6056TIP3    H118109   5.250   6.871   0.213
 6056TIP3    H218110   5.298   6.967   0.107
 6057TIP3   OH218111   2.985   7.337   1.061
 6057TIP3    H118112   3.053   7.399   1.037
 6057TIP3    H218113   2.939   7.378   1.134
 6058TIP3   OH218114   3.483   1.513   1.035
 6058TIP3    H118115   3.390   1.504   1.054
 6058TIP3    H218116   3.519   1.425   1.049
 6059TIP3   OH218117   4.543   7.631   4.557
 6059TIP3    H118118   4.538   7.616   4.651
 6059TIP3    H218119   4.469   7.581   4.520
 6060TIP3   OH218120   5.848   1.627   4.514
 6060TIP3    H118121   5.907   1.698   4.491
 6060TIP3    H218122   5.887   1.549   4.476
 6061TIP3   OH218123   0.986   3.157   1.581
 6061TIP3    H118124   0.917   3.221   1.599
 6061TIP3    H218125   0.955   3.076   1.623
 6062TIP3   OH218126   7.606   5.239   2.485
 6062TIP3    H118127   7.593   5.324   2.443
 6062TIP3    H218128   7.696   5.215   2.462
 6063TIP3   OH218129   6.826   6.319   2.789
 6063TIP3    H118130   6.852   6.263   2.862
 6063TIP3    H218131   6.732   6.304   2.780
 6064TIP3   OH218132   1.281   6.831   4.937
 6064TIP3    H118133   1.195   6.791   4.953
 6064TIP3    H218134   1.283   6.844   4.842
 6065TIP3   OH218135   1.474   0.631   4.256
 6065TIP3    H118136   1.528   0.701   4.292
 6065TIP3    H218137   1.529   0.591   4.189
 6066TIP3   OH218138   2.411   1.298   5.549
 6066TIP3    H118139   2.427   1.238   5.476
 6066TIP3    H218140   2.390   1.381   5.507
 6067TIP3   OH218141   5.866   2.036   3.008
 6067TIP3    H118142   5.809   2.008   2.937
 6067TIP3    H218143   5.840   1.982   3.083
 6068TIP3   OH218144   7.493   4.798   3.987
 6068TIP3    H118145   7.493   4.875   4.044
 6068TIP3    H218146   7.554   4.737   4.029
 6069TIP3   OH218147   1.479   4.719   6.752
 6069TIP3    H118148   1.467   4.690   6.843
 6069TIP3    H218149   1.486   4.814   6.758
 6070TIP3   OH218150   7.457   5.656   4.185
 6070TIP3    H118151   7.378   5.704   4.161
 6070TIP3    H218152   7.463   5.586   4.120
 6071TIP3   OH218153   4.088   7.643   3.300
 6071TIP3    H118154   4.088   7.577   3.370
 6071TIP3    H218155   4.082   7.726   3.346
 6072TIP3   OH218156   4.130   6.079   2.803
 6072TIP3    H118157   4.207   6.028   2.779
 6072TIP3    H218158   4.152   6.169   2.779
 6073TIP3   OH218159   2.668   1.908   2.772
 6073TIP3    H118160   2.678   1.866   2.858
 6073TIP3    H218161   2.654   2.000   2.793
 6074TIP3   OH218162   1.716   3.969   0.786
 6074TIP3    H118163   1.750   4.009   0.866
 6074TIP3    H218164   1.657   3.900   0.816
 6075TIP3   OH218165   6.392   2.255   4.799
 6075TIP3    H118166   6.358   2.327   4.852
 6075TIP3    H218167   6.400   2.182   4.860
 6076TIP3   OH218168   6.803   1.251   3.628
 6076TIP3    H118169   6.756   1.334   3.643
 6076TIP3    H218170   6.818   1.249   3.533
 6077TIP3   OH218171   5.498   6.936   6.186
 6077TIP3    H118172   5.455   6.868   6.135
 6077TIP3    H218173   5.448   6.940   6.267
 6078TIP3   OH218174   1.009   6.265   5.889
 6078TIP3    H118175   0.997   6.348   5.934
 6078TIP3    H218176   1.034   6.203   5.958
 6079TIP3   OH218177   2.804   0.894   0.284
 6079TIP3    H118178   2.883   0.869   0.331
 6079TIP3    H218179   2.733   0.849   0.330
 6080TIP3   OH218180   4.829   1.928   3.868
 6080TIP3    H118181   4.893   1.998   3.857
 6080TIP3    H218182   4.876   1.848   3.846
 6081TIP3   OH218183   3.342   1.072   2.795
 6081TIP3    H118184   3.256   1.030   2.787
 6081TIP3    H218185   3.396   1.007   2.839
 6082TIP3   OH218186   8.241   3.651   0.651
 6082TIP3    H118187   8.162   3.679   0.605
 6082TIP3    H218188   8.213   3.639   0.742
 6083TIP3   OH218189   3.210   2.942   1.563
 6083TIP3    H118190   3.204   2.916   1.655
 6083TIP3    H218191   3.276   3.011   1.562
 6084TIP3   OH218192   8.098   3.143   4.658
 6084TIP3    H118193   8.135   3.147   4.570
 6084TIP3    H218194   8.141   3.214   4.705
 6085TIP3   OH218195   2.804   0.180   2.489
 6085TIP3    H118196   2.736   0.178   2.421
 6085TIP3    H218197   2.886   0.179   2.440
 6086TIP3   OH218198   8.033   5.681   5.043
 6086TIP3    H118199   8.014   5.598   5.087
 6086TIP3    H218200   8.075   5.654   4.961
 6087TIP3   OH218201   2.370   5.023   0.460
 6087TIP3    H118202   2.378   4.928   0.457
 6087TIP3    H218203   2.317   5.041   0.537
 6088TIP3   OH218204   5.470   0.780   5.409
 6088TIP3    H118205   5.446   0.693   5.440
 6088TIP3    H218206   5.463   0.773   5.314
 6089TIP3   OH218207   3.041   2.702   2.696
 6089TIP3    H118208   3.102   2.659   2.636
 6089TIP3    H218209   3.066   2.670   2.783
 6090TIP3   OH218210   0.344   0.281   0.400
 6090TIP3    H118211   0.316   0.342   0.468
 6090TIP3    H218212   0.311   0.318   0.319
 6091TIP3   OH218213   3.162   0.445   4.206
 6091TIP3    H118214   3.233   0.382   4.213
 6091TIP3    H218215   3.138   0.464   4.297
 6092TIP3   OH218216   7.929   3.416   4.610
 6092TIP3    H118217   7.907   3.414   4.703
 6092TIP3    H218218   7.904   3.329   4.578
 6093TIP3   OH218219   5.470   7.438   6.567
 6093TIP3    H118220   5.532   7.490   6.515
 6093TIP3    H218221   5.520   7.359   6.591
 6094TIP3   OH218222   8.017   0.048   3.270
 6094TIP3    H118223   8.020   0.140   3.244
 6094TIP3    H218224   8.060   0.002   3.198
 6095TIP3   OH218225   2.812   2.363   1.951
 6095TIP3    H118226   2.733   2.404   1.915
 6095TIP3    H218227   2.851   2.430   2.006
 6096TIP3   OH218228   7.194   3.300   2.217
 6096TIP3    H118229   7.269   3.359   2.208
 6096TIP3    H218230   7.118   3.359   2.217
 6097TIP3   OH218231   1.751   2.293   2.479
 6097TIP3    H118232   1.791   2.285   2.566
 6097TIP3    H218233   1.786   2.218   2.431
 6098TIP3   OH218234   4.633   0.425   2.935
 6098TIP3    H118235   4.590   0.356   2.884
 6098TIP3    H218236   4.562   0.467   2.983
 6099TIP3   OH218237   2.191   6.229   0.248
 6099TIP3    H118238   2.213   6.190   0.164
 6099TIP3    H218239   2.096   6.233   0.250
 6100TIP3   OH218240   0.711   1.266   5.406
 6100TIP3    H118241   0.773   1.210   5.358
 6100TIP3    H218242   0.722   1.241   5.497
 6101TIP3   OH218243   4.702   6.541   6.668
 6101TIP3    H118244   4.681   6.574   6.756
 6101TIP3    H218245   4.701   6.446   6.678
 6102TIP3   OH218246   5.280   4.858   4.114
 6102TIP3    H118247   5.204   4.861   4.172
 6102TIP3    H218248   5.267   4.932   4.054
 6103TIP3   OH218249   5.291   1.962   3.359
 6103TIP3    H118250   5.364   1.981   3.299
 6103TIP3    H218251   5.252   1.882   3.325
 6104TIP3   OH218252   0.781   7.185   4.325
 6104TIP3    H118253   0.798   7.261   4.380
 6104TIP3    H218254   0.867   7.143   4.315
 6105TIP3   OH218255   3.920   5.813   5.836
 6105TIP3    H118256   4.007   5.841   5.867
 6105TIP3    H218257   3.899   5.875   5.766
 6106TIP3   OH218258   0.528   4.728   0.417
 6106TIP3    H118259   0.593   4.796   0.433
 6106TIP3    H218260   0.573   4.663   0.364
 6107TIP3   OH218261   5.207   7.612   3.529
 6107TIP3    H118262   5.232   7.647   3.615
 6107TIP3    H218263   5.273   7.544   3.511
 6108TIP3   OH218264   7.046   6.239   0.421
 6108TIP3    H118265   7.016   6.200   0.503
 6108TIP3    H218266   6.978   6.302   0.398
 6109TIP3   OH218267   4.107   0.459   6.544
 6109TIP3    H118268   4.037   0.502   6.593
 6109TIP3    H218269   4.075   0.370   6.530
 6110TIP3   OH218270   7.718   0.750   0.781
 6110TIP3    H118271   7.640   0.793   0.743
 6110TIP3    H218272   7.745   0.687   0.714
 6111TIP3   OH218273   2.082   7.849   1.649
 6111TIP3    H118274   1.987   7.845   1.638
 6111TIP3    H218275   2.107   7.761   1.676
 6112TIP3   OH218276   2.722   4.620   6.433
 6112TIP3    H118277   2.671   4.551   6.475
 6112TIP3    H218278   2.771   4.575   6.363
 6113TIP3   OH218279   2.876   1.814   3.844
 6113TIP3    H118280   2.845   1.903   3.829
 6113TIP3    H218281   2.930   1.795   3.767
 6114TIP3   OH218282   4.427   6.477   1.839
 6114TIP3    H118283   4.348   6.466   1.786
 6114TIP3    H218284   4.459   6.388   1.854
 6115TIP3   OH218285   3.218   7.652   1.050
 6115TIP3    H118286   3.135   7.670   1.096
 6115TIP3    H218287   3.280   7.631   1.120
 6116TIP3   OH218288   0.036   0.221   5.013
 6116TIP3    H118289   0.074   0.216   5.101
 6116TIP3    H218290  -0.027   0.292   5.018
 6117TIP3   OH218291   6.132   6.920   5.942
 6117TIP3    H118292   6.187   6.843   5.948
 6117TIP3    H218293   6.099   6.920   5.852
 6118TIP3   OH218294   1.000   4.579   0.149
 6118TIP3    H118295   1.040   4.520   0.085
 6118TIP3    H218296   1.070   4.595   0.213
 6119TIP3   OH218297   7.059   7.603   5.031
 6119TIP3    H118298   7.139   7.633   4.988
 6119TIP3    H218299   7.003   7.572   4.960
 6120TIP3   OH218300   0.136   1.178   1.461
 6120TIP3    H118301   0.097   1.141   1.381
 6120TIP3    H218302   0.203   1.239   1.428
 6121TIP3   OH218303   5.612   6.186   3.427
 6121TIP3    H118304   5.609   6.103   3.475
 6121TIP3    H218305   5.610   6.161   3.335
 6122TIP3   OH218306   6.328   6.538   3.535
 6122TIP3    H118307   6.403   6.594   3.553
 6122TIP3    H218308   6.252   6.597   3.542
 6123TIP3   OH218309   8.019   4.920   4.869
 6123TIP3    H118310   7.959   4.885   4.802
 6123TIP3    H218311   8.079   4.848   4.888
 6124TIP3   OH218312   6.534   7.553   1.522
 6124TIP3    H118313   6.448   7.512   1.521
 6124TIP3    H218314   6.572   7.533   1.436
 6125TIP3   OH218315   5.977   2.580   3.201
 6125TIP3    H118316   5.907   2.646   3.201
 6125TIP3    H218317   5.982   2.552   3.292
 6126TIP3   OH218318   0.854   4.346   3.125
 6126TIP3    H118319   0.884   4.434   3.103
 6126TIP3    H218320   0.763   4.358   3.152
 6127TIP3   OH218321   2.574   5.713   5.378
 6127TIP3    H118322   2.484   5.692   5.353
 6127TIP3    H218323   2.586   5.804   5.350
 6128TIP3   OH218324   3.377   1.832   6.773
 6128TIP3    H118325   3.419   1.862   6.853
 6128TIP3    H218326   3.283   1.843   6.790
 6129TIP3   OH218327   3.299   1.409   3.668
 6129TIP3    H118328   3.235   1.455   3.722
 6129TIP3    H218329   3.382   1.451   3.689
 6130TIP3   OH218330   1.184   7.305   2.195
 6130TIP3    H118331   1.167   7.295   2.102
 6130TIP3    H218332   1.250   7.238   2.215
 6131TIP3   OH218333   1.305   7.095   4.185
 6131TIP3    H118334   1.286   7.137   4.101
 6131TIP3    H218335   1.253   7.014   4.183
 6132TIP3   OH218336   7.861   6.252   0.443
 6132TIP3    H118337   7.879   6.257   0.537
 6132TIP3    H218338   7.776   6.296   0.433
 6133TIP3   OH218339   2.347   6.283   4.380
 6133TIP3    H118340   2.425   6.301   4.432
 6133TIP3    H218341   2.285   6.352   4.404
 6134TIP3   OH218342   0.279   6.977   5.924
 6134TIP3    H118343   0.291   6.998   6.016
 6134TIP3    H218344   0.194   6.932   5.920
 6135TIP3   OH218345   2.832   0.842   5.755
 6135TIP3    H118346   2.805   0.931   5.778
 6135TIP3    H218347   2.755   0.789   5.772
 6136TIP3   OH218348   6.769   4.490   5.798
 6136TIP3    H118349   6.731   4.569   5.838
 6136TIP3    H218350   6.863   4.501   5.808
 6137TIP3   OH218351   0.413   4.001   6.602
 6137TIP3    H118352   0.365   3.933   6.649
 6137TIP3    H218353   0.505   3.974   6.610
 6138TIP3   OH218354   4.063   3.308   1.639
 6138TIP3    H118355   4.101   3.220   1.642
 6138TIP3    H218356   4.108   3.356   1.708
 6139TIP3   OH218357   5.482   7.690   4.906
 6139TIP3    H118358   5.507   7.693   4.813
 6139TIP3    H218359   5.427   7.767   4.918
 6140TIP3   OH218360   8.044   0.212   6.786
 6140TIP3    H118361   8.138   0.211   6.771
 6140TIP3    H218362   8.006   0.162   6.714
 6141TIP3   OH218363   2.650   7.452   2.334
 6141TIP3    H118364   2.666   7.378   2.276
 6141TIP3    H218365   2.688   7.426   2.418
 6142TIP3   OH218366   2.686   1.064   1.824
 6142TIP3    H118367   2.603   1.044   1.868
 6142TIP3    H218368   2.726   1.132   1.877
 6143TIP3   OH218369   7.521   5.959   1.972
 6143TIP3    H118370   7.511   5.960   1.877
 6143TIP3    H218371   7.598   5.904   1.987
 6144TIP3   OH218372   5.734   1.204   6.542
 6144TIP3    H118373   5.683   1.187   6.622
 6144TIP3    H218374   5.674   1.250   6.484
 6145TIP3   OH218375   5.174   7.085   3.318
 6145TIP3    H118376   5.258   7.049   3.346
 6145TIP3    H218377   5.197   7.170   3.279
 6146TIP3   OH218378   7.725   2.705   1.708
 6146TIP3    H118379   7.736   2.762   1.633
 6146TIP3    H218380   7.742   2.617   1.674
 6147TIP3   OH218381   2.723   1.269   6.769
 6147TIP3    H118382   2.762   1.287   6.855
 6147TIP3    H218383   2.658   1.338   6.757
 6148TIP3   OH218384   3.275   5.107   1.529
 6148TIP3    H118385   3.274   5.020   1.568
 6148TIP3    H218386   3.284   5.091   1.435
 6149TIP3   OH218387   8.019   3.331   1.711
 6149TIP3    H118388   7.953   3.377   1.763
 6149TIP3    H218389   8.009   3.368   1.623
 6150TIP3   OH218390   7.541   6.685   4.640
 6150TIP3    H118391   7.534   6.591   4.624
 6150TIP3    H218392   7.543   6.724   4.553
 6151TIP3   OH218393   4.831   1.989   4.910
 6151TIP3    H118394   4.882   1.933   4.852
 6151TIP3    H218395   4.834   2.075   4.869
 6152TIP3   OH218396   6.487   3.482   4.191
 6152TIP3    H118397   6.502   3.532   4.272
 6152TIP3    H218398   6.575   3.467   4.157
 6153TIP3   OH218399   2.575   6.825   5.541
 6153TIP3    H118400   2.589   6.775   5.460
 6153TIP3    H218401   2.563   6.916   5.511
 6154TIP3   OH218402   6.817   5.639   0.228
 6154TIP3    H118403   6.725   5.625   0.206
 6154TIP3    H218404   6.832   5.583   0.305
 6155TIP3   OH218405   0.238   3.073   5.064
 6155TIP3    H118406   0.148   3.042   5.067
 6155TIP3    H218407   0.267   3.055   4.975
 6156TIP3   OH218408   2.592   2.197   2.968
 6156TIP3    H118409   2.583   2.164   3.058
 6156TIP3    H218410   2.680   2.171   2.942
 6157TIP3   OH218411   0.594   3.564   4.680
 6157TIP3    H118412   0.586   3.640   4.737
 6157TIP3    H218413   0.508   3.554   4.640
 6158TIP3   OH218414   1.300   2.505   3.510
 6158TIP3    H118415   1.268   2.481   3.597
 6158TIP3    H218416   1.225   2.491   3.452
 6159TIP3   OH218417   4.501   3.111   2.062
 6159TIP3    H118418   4.471   3.200   2.083
 6159TIP3    H218419   4.593   3.110   2.088
 6160TIP3   OH218420   0.781   4.133   4.589
 6160TIP3    H118421   0.761   4.213   4.541
 6160TIP3    H218422   0.848   4.089   4.536
 6161TIP3   OH218423   6.220   1.229   6.379
 6161TIP3    H118424   6.129   1.211   6.403
 6161TIP3    H218425   6.271   1.205   6.456
 6162TIP3   OH218426   4.705   7.872   3.876
 6162TIP3    H118427   4.737   7.820   3.950
 6162TIP3    H218428   4.782   7.920   3.845
 6163TIP3   OH218429   3.223   7.130   1.538
 6163TIP3    H118430   3.248   7.112   1.628
 6163TIP3    H218431   3.147   7.188   1.546
 6164TIP3   OH218432   7.049   5.224   4.440
 6164TIP3    H118433   7.144   5.235   4.443
 6164TIP3    H218434   7.015   5.306   4.476
 6165TIP3   OH218435   4.338   1.358   2.452
 6165TIP3    H118436   4.288   1.302   2.393
 6165TIP3    H218437   4.279   1.429   2.475
 6166TIP3   OH218438   6.438   1.065   3.791
 6166TIP3    H118439   6.531   1.055   3.811
 6166TIP3    H218440   6.393   1.019   3.862
 6167TIP3   OH218441   6.705   3.964   3.622
 6167TIP3    H118442   6.720   3.979   3.528
 6167TIP3    H218443   6.732   4.046   3.663
 6168TIP3   OH218444   7.046   0.234   2.618
 6168TIP3    H118445   7.015   0.317   2.656
 6168TIP3    H218446   7.057   0.253   2.525
 6169TIP3   OH218447   1.740   2.802   6.535
 6169TIP3    H118448   1.713   2.746   6.463
 6169TIP3    H218449   1.762   2.886   6.493
 6170TIP3   OH218450   1.862   0.414   1.541
 6170TIP3    H118451   1.875   0.322   1.563
 6170TIP3    H218452   1.877   0.461   1.624
 6171TIP3   OH218453   7.034   6.329   2.614
 6171TIP3    H118454   6.988   6.327   2.698
 6171TIP3    H218455   6.969   6.301   2.550
 6172TIP3   OH218456   1.093   3.104   3.388
 6172TIP3    H118457   1.136   3.084   3.471
 6172TIP3    H218458   1.009   3.143   3.412
 6173TIP3   OH218459   6.215   2.154   3.945
 6173TIP3    H118460   6.199   2.199   3.863
 6173TIP3    H218461   6.186   2.215   4.013
 6174TIP3   OH218462   5.416   3.550   1.457
 6174TIP3    H118463   5.440   3.640   1.478
 6174TIP3    H218464   5.345   3.530   1.517
 6175TIP3   OH218465   7.640   7.826   6.684
 6175TIP3    H118466   7.696   7.774   6.626
 6175TIP3    H218467   7.694   7.839   6.763
 6176TIP3   OH218468   2.761   6.817   3.056
 6176TIP3    H118469   2.749   6.882   3.126
 6176TIP3    H218470   2.740   6.865   2.976
 6177TIP3   OH218471   2.882   7.493   4.112
 6177TIP3    H118472   2.892   7.547   4.191
 6177TIP3    H218473   2.945   7.422   4.123
 6178TIP3   OH218474   2.134   0.591   4.089
 6178TIP3    H118475   2.200   0.522   4.088
 6178TIP3    H218476   2.185   0.672   4.094
 6179TIP3   OH218477   3.675   1.086   5.604
 6179TIP3    H118478   3.650   1.177   5.617
 6179TIP3    H218479   3.624   1.037   5.669
 6180TIP3   OH218480   2.739   6.634   0.982
 6180TIP3    H118481   2.818   6.623   1.036
 6180TIP3    H218482   2.695   6.550   0.988
 6181TIP3   OH218483   2.724   0.874   4.827
 6181TIP3    H118484   2.678   0.957   4.836
 6181TIP3    H218485   2.775   0.883   4.746
 6182TIP3   OH218486   5.874   7.802   2.088
 6182TIP3    H118487   5.806   7.868   2.100
 6182TIP3    H218488   5.946   7.832   2.144
 6183TIP3   OH218489   7.630   6.487   2.195
 6183TIP3    H118490   7.611   6.523   2.281
 6183TIP3    H218491   7.650   6.395   2.211
 6184TIP3   OH218492   0.303   3.233   2.886
 6184TIP3    H118493   0.346   3.299   2.831
 6184TIP3    H218494   0.230   3.201   2.833
 6185TIP3   OH218495   2.700   6.154   0.390
 6185TIP3    H118496   2.753   6.163   0.311
 6185TIP3    H218497   2.610   6.171   0.361
 6186TIP3   OH218498   3.914   2.678   4.772
 6186TIP3    H118499   3.893   2.651   4.861
 6186TIP3    H218500   3.834   2.721   4.739
 6187TIP3   OH218501   0.714   6.520   4.269
 6187TIP3    H118502   0.686   6.428   4.270
 6187TIP3    H218503   0.810   6.516   4.265
 6188TIP3   OH218504   8.144   2.017   2.231
 6188TIP3    H118505   8.193   2.012   2.149
 6188TIP3    H218506   8.173   2.098   2.272
 6189TIP3   OH218507   1.035   7.574   3.403
 6189TIP3    H118508   1.082   7.506   3.451
 6189TIP3    H218509   1.102   7.641   3.386
 6190TIP3   OH218510   7.835   3.875   3.217
 6190TIP3    H118511   7.906   3.916   3.168
 6190TIP3    H218512   7.803   3.944   3.275
 6191TIP3   OH218513   0.581   0.014   5.262
 6191TIP3    H118514   0.526  -0.063   5.250
 6191TIP3    H218515   0.519   0.083   5.287
 6192TIP3   OH218516   0.453   0.258   2.444
 6192TIP3    H118517   0.399   0.224   2.516
 6192TIP3    H218518   0.543   0.241   2.472
 6193TIP3   OH218519   1.561   2.554   3.079
 6193TIP3    H118520   1.624   2.492   3.043
 6193TIP3    H218521   1.563   2.540   3.173
 6194TIP3   OH218522   0.872   1.126   5.242
 6194TIP3    H118523   0.930   1.177   5.186
 6194TIP3    H218524   0.868   1.040   5.202
 6195TIP3   OH218525   2.499   1.432   4.316
 6195TIP3    H118526   2.514   1.495   4.246
 6195TIP3    H218527   2.404   1.419   4.316
 6196TIP3   OH218528   1.508   0.630   3.847
 6196TIP3    H118529   1.440   0.638   3.914
 6196TIP3    H218530   1.580   0.684   3.879
 6197TIP3   OH218531   5.616   2.765   1.607
 6197TIP3    H118532   5.533   2.724   1.585
 6197TIP3    H218533   5.614   2.775   1.702
 6198TIP3   OH218534   1.946   2.018   4.066
 6198TIP3    H118535   1.990   1.979   3.991
 6198TIP3    H218536   2.001   1.995   4.141
 6199TIP3   OH218537   6.715   5.357   6.373
 6199TIP3    H118538   6.696   5.290   6.438
 6199TIP3    H218539   6.784   5.410   6.412
 6200TIP3   OH218540   7.161   3.904   3.277
 6200TIP3    H118541   7.096   3.849   3.233
 6200TIP3    H218542   7.239   3.900   3.221
 6201TIP3   OH218543   7.904   6.326   4.578
 6201TIP3    H118544   7.906   6.299   4.670
 6201TIP3    H218545   7.810   6.337   4.559
 6202TIP3   OH218546   7.769   1.996   4.146
 6202TIP3    H118547   7.828   2.044   4.204
 6202TIP3    H218548   7.690   1.983   4.199
 6203TIP3   OH218549   7.266   0.195   5.659
 6203TIP3    H118550   7.318   0.125   5.619
 6203TIP3    H218551   7.331   0.252   5.700
 6204TIP3   OH218552   5.318   4.574   1.732
 6204TIP3    H118553   5.378   4.538   1.666
 6204TIP3    H218554   5.270   4.643   1.687
 6205TIP3   OH218555   1.133   1.502   4.262
 6205TIP3    H118556   1.130   1.598   4.251
 6205TIP3    H218557   1.226   1.481   4.268
 6206TIP3   OH218558   5.383   1.326   4.269
 6206TIP3    H118559   5.464   1.359   4.307
 6206TIP3    H218560   5.343   1.403   4.228
 6207TIP3   OH218561   0.217   0.393   2.976
 6207TIP3    H118562   0.146   0.436   2.929
 6207TIP3    H218563   0.244   0.321   2.919
 6208TIP3   OH218564   3.334   1.819   4.658
 6208TIP3    H118565   3.363   1.889   4.598
 6208TIP3    H218566   3.370   1.844   4.743
 6209TIP3   OH218567   8.303   4.666   2.100
 6209TIP3    H118568   8.243   4.599   2.134
 6209TIP3    H218569   8.388   4.623   2.096
 6210TIP3   OH218570   4.990   1.275   6.800
 6210TIP3    H118571   5.082   1.296   6.815
 6210TIP3    H218572   4.978   1.283   6.706
 6211TIP3   OH218573   1.998   6.958   4.165
 6211TIP3    H118574   1.994   7.030   4.228
 6211TIP3    H218575   1.930   6.897   4.193
 6212TIP3   OH218576   5.979   1.475   2.881
 6212TIP3    H118577   5.945   1.430   2.959
 6212TIP3    H218578   6.040   1.412   2.843
 6213TIP3   OH218579   2.364   1.114   5.290
 6213TIP3    H118580   2.372   1.056   5.366
 6213TIP3    H218581   2.346   1.056   5.217
 6214TIP3   OH218582   5.730   4.052   1.483
 6214TIP3    H118583   5.780   4.073   1.404
 6214TIP3    H218584   5.796   4.044   1.552
 6215TIP3   OH218585   1.858   2.728   4.486
 6215TIP3    H118586   1.939   2.681   4.504
 6215TIP3    H218587   1.866   2.809   4.537
 6216TIP3   OH218588   1.085   0.901   6.475
 6216TIP3    H118589   1.075   0.929   6.566
 6216TIP3    H218590   1.063   0.808   6.475
 6217TIP3   OH218591   1.941   7.645   5.456
 6217TIP3    H118592   1.907   7.556   5.447
 6217TIP3    H218593   1.951   7.676   5.366
 6218TIP3   OH218594   6.583   5.033   1.963
 6218TIP3    H118595   6.540   5.109   1.924
 6218TIP3    H218596   6.592   5.055   2.056
 6219TIP3   OH218597   4.907   3.386   4.225
 6219TIP3    H118598   4.993   3.385   4.267
 6219TIP3    H218599   4.904   3.304   4.174
 6220TIP3   OH218600   3.123   5.037   2.458
 6220TIP3    H118601   3.033   5.034   2.490
 6220TIP3    H218602   3.140   4.949   2.425
 6221TIP3   OH218603   0.242   1.407   5.392
 6221TIP3    H118604   0.240   1.493   5.434
 6221TIP3    H218605   0.309   1.415   5.324
 6222TIP3   OH218606   3.828   2.466   6.612
 6222TIP3    H118607   3.792   2.494   6.696
 6222TIP3    H218608   3.915   2.432   6.633
 6223TIP3   OH218609   0.887   0.038   0.785
 6223TIP3    H118610   0.926   0.092   0.716
 6223TIP3    H218611   0.948  -0.035   0.796
 6224TIP3   OH218612   3.350   1.853   3.436
 6224TIP3    H118613   3.414   1.864   3.507
 6224TIP3    H218614   3.339   1.759   3.428
 6225TIP3   OH218615   1.556   6.891   1.986
 6225TIP3    H118616   1.471   6.850   1.967
 6225TIP3    H218617   1.534   6.978   2.017
 6226TIP3   OH218618   3.346   5.005   2.979
 6226TIP3    H118619   3.263   4.971   2.944
 6226TIP3    H218620   3.391   4.928   3.013
 6227TIP3   OH218621   5.423   3.659   1.191
 6227TIP3    H118622   5.471   3.739   1.171
 6227TIP3    H218623   5.467   3.622   1.267
 6228TIP3   OH218624   1.737   5.051   1.863
 6228TIP3    H118625   1.702   5.035   1.951
 6228TIP3    H218626   1.677   5.116   1.825
 6229TIP3   OH218627   6.142   3.762   4.829
 6229TIP3    H118628   6.143   3.734   4.921
 6229TIP3    H218629   6.067   3.822   4.823
 6230TIP3   OH218630   0.493   0.560   5.197
 6230TIP3    H118631   0.421   0.497   5.199
 6230TIP3    H218632   0.460   0.632   5.143
 6231TIP3   OH218633   0.063   2.722   4.852
 6231TIP3    H118634  -0.021   2.682   4.828
 6231TIP3    H218635   0.120   2.648   4.871
 6232TIP3   OH218636   6.248   3.854   2.179
 6232TIP3    H118637   6.229   3.945   2.203
 6232TIP3    H218638   6.270   3.858   2.086
 6233TIP3   OH218639   5.829   2.581   0.039
 6233TIP3    H118640   5.777   2.629  -0.026
 6233TIP3    H218641   5.785   2.598   0.122
 6234TIP3   OH218642   5.393   5.921   5.126
 6234TIP3    H118643   5.452   5.952   5.195
 6234TIP3    H218644   5.397   5.988   5.058
 6235TIP3   OH218645   6.699   6.931   4.876
 6235TIP3    H118646   6.780   6.885   4.853
 6235TIP3    H218647   6.716   6.968   4.963
 6236TIP3   OH218648   5.654   4.021   3.221
 6236TIP3    H118649   5.714   4.086   3.258
 6236TIP3    H218650   5.687   4.004   3.133
 6237TIP3   OH218651   1.750   4.321   0.131
 6237TIP3    H118652   1.772   4.341   0.222
 6237TIP3    H218653   1.706   4.236   0.135
 6238TIP3   OH218654   6.190   0.151   2.370
 6238TIP3    H118655   6.278   0.167   2.404
 6238TIP3    H218656   6.197   0.066   2.326
 6239TIP3   OH218657   6.019   3.194   5.787
 6239TIP3    H118658   6.027   3.101   5.767
 6239TIP3    H218659   5.932   3.218   5.755
 6240TIP3   OH218660   0.979   1.074   1.216
 6240TIP3    H118661   0.883   1.069   1.221
 6240TIP3    H218662   0.998   1.168   1.220
 6241TIP3   OH218663   1.082   5.922   0.225
 6241TIP3    H118664   1.081   5.949   0.317
 6241TIP3    H218665   1.006   5.865   0.217
 6242TIP3   OH218666   2.969   4.033   5.174
 6242TIP3    H118667   2.937   3.976   5.244
 6242TIP3    H218668   2.910   4.109   5.177
 6243TIP3   OH218669   5.205   4.342   6.347
 6243TIP3    H118670   5.138   4.282   6.379
 6243TIP3    H218671   5.234   4.304   6.264
 6244TIP3   OH218672   0.336   4.718   6.119
 6244TIP3    H118673   0.281   4.728   6.042
 6244TIP3    H218674   0.371   4.629   6.113
 6245TIP3   OH218675   3.898   4.888   3.245
 6245TIP3    H118676   3.850   4.954   3.196
 6245TIP3    H218677   3.847   4.808   3.233
 6246TIP3   OH218678   5.633   3.588   0.166
 6246TIP3    H118679   5.622   3.649   0.238
 6246TIP3    H218680   5.545   3.556   0.147
 6247TIP3   OH218681   0.578   3.492   6.042
 6247TIP3    H118682   0.583   3.398   6.059
 6247TIP3    H218683   0.529   3.527   6.117
 6248TIP3   OH218684   4.990   7.200   2.843
 6248TIP3    H118685   4.933   7.176   2.916
 6248TIP3    H218686   4.933   7.196   2.766
 6249TIP3   OH218687   7.621   2.439   2.902
 6249TIP3    H118688   7.639   2.482   2.818
 6249TIP3    H218689   7.527   2.425   2.901
 6250TIP3   OH218690   7.568   1.995   0.738
 6250TIP3    H118691   7.512   1.922   0.764
 6250TIP3    H218692   7.532   2.071   0.784
 6251TIP3   OH218693   5.256   5.099   5.774
 6251TIP3    H118694   5.312   5.146   5.712
 6251TIP3    H218695   5.222   5.167   5.832
 6252TIP3   OH218696   1.506   0.253   0.371
 6252TIP3    H118697   1.443   0.203   0.320
 6252TIP3    H218698   1.587   0.202   0.365
 6253TIP3   OH218699   0.151   6.822   6.422
 6253TIP3    H118700   0.082   6.757   6.414
 6253TIP3    H218701   0.226   6.784   6.375
 6254TIP3   OH218702   7.372   5.959   5.960
 6254TIP3    H118703   7.321   5.896   5.909
 6254TIP3    H218704   7.343   5.946   6.050
 6255TIP3   OH218705   7.948   4.839   6.490
 6255TIP3    H118706   7.888   4.892   6.437
 6255TIP3    H218707   7.995   4.785   6.426
 6256TIP3   OH218708   2.010   5.682   3.232
 6256TIP3    H118709   1.977   5.609   3.179
 6256TIP3    H218710   1.969   5.760   3.194
 6257TIP3   OH218711   3.682   3.801   0.182
 6257TIP3    H118712   3.644   3.781   0.096
 6257TIP3    H218713   3.684   3.897   0.185
 6258TIP3   OH218714   0.746   2.980   3.018
 6258TIP3    H118715   0.664   2.935   3.037
 6258TIP3    H218716   0.774   2.945   2.933
 6259TIP3   OH218717   5.949   4.031   2.852
 6259TIP3    H118718   6.024   4.010   2.796
 6259TIP3    H218719   5.988   4.053   2.936
 6260TIP3   OH218720   1.261   3.556   1.392
 6260TIP3    H118721   1.332   3.501   1.359
 6260TIP3    H218722   1.193   3.551   1.325
 6261TIP3   OH218723   5.275   6.848   2.341
 6261TIP3    H118724   5.331   6.773   2.320
 6261TIP3    H218725   5.287   6.909   2.268
 6262TIP3   OH218726   7.871   4.459   0.905
 6262TIP3    H118727   7.822   4.537   0.934
 6262TIP3    H218728   7.962   4.488   0.904
 6263TIP3   OH218729   4.839   6.416   2.599
 6263TIP3    H118730   4.913   6.477   2.589
 6263TIP3    H218731   4.795   6.444   2.679
 6264TIP3   OH218732   6.316   5.446   3.704
 6264TIP3    H118733   6.344   5.519   3.759
 6264TIP3    H218734   6.259   5.487   3.638
 6265TIP3   OH218735   6.866   6.730   0.786
 6265TIP3    H118736   6.826   6.799   0.839
 6265TIP3    H218737   6.896   6.774   0.707
 6266TIP3   OH218738   0.371   0.358   3.207
 6266TIP3    H118739   0.299   0.332   3.265
 6266TIP3    H218740   0.330   0.407   3.136
 6267TIP3   OH218741   3.881   6.524   5.881
 6267TIP3    H118742   3.949   6.535   5.814
 6267TIP3    H218743   3.909   6.448   5.931
 6268TIP3   OH218744   5.991   2.935   2.909
 6268TIP3    H118745   6.083   2.908   2.919
 6268TIP3    H218746   5.970   2.913   2.818
 6269TIP3   OH218747   6.468   5.963   5.560
 6269TIP3    H118748   6.534   6.023   5.525
 6269TIP3    H218749   6.472   5.887   5.502
 6270TIP3   OH218750   1.631   0.745   0.805
 6270TIP3    H118751   1.721   0.761   0.778
 6270TIP3    H218752   1.578   0.791   0.740
 6271TIP3   OH218753   7.459   7.087   3.518
 6271TIP3    H118754   7.443   7.074   3.612
 6271TIP3    H218755   7.391   7.036   3.474
 6272TIP3   OH218756   3.866   0.870   1.910
 6272TIP3    H118757   3.901   0.815   1.841
 6272TIP3    H218758   3.896   0.829   1.991
 6273TIP3   OH218759   7.764   4.609   5.521
 6273TIP3    H118760   7.848   4.628   5.479
 6273TIP3    H218761   7.756   4.513   5.515
 6274TIP3   OH218762   7.722   1.149   4.724
 6274TIP3    H118763   7.751   1.062   4.695
 6274TIP3    H218764   7.711   1.141   4.818
 6275TIP3   OH218765   1.205   2.311   5.327
 6275TIP3    H118766   1.205   2.285   5.235
 6275TIP3    H218767   1.247   2.237   5.373
 6276TIP3   OH218768   3.442   6.857   6.324
 6276TIP3    H118769   3.393   6.929   6.364
 6276TIP3    H218770   3.383   6.782   6.329
 6277TIP3   OH218771   4.618   3.354   3.995
 6277TIP3    H118772   4.540   3.377   4.046
 6277TIP3    H218773   4.585   3.294   3.928
 6278TIP3   OH218774   0.649   7.058   3.238
 6278TIP3    H118775   0.685   7.037   3.325
 6278TIP3    H218776   0.691   7.141   3.215
 6279TIP3   OH218777   6.802   1.234   4.061
 6279TIP3    H118778   6.825   1.321   4.094
 6279TIP3    H218779   6.836   1.174   4.127
 6280TIP3   OH218780   3.279   4.384   3.594
 6280TIP3    H118781   3.286   4.425   3.508
 6280TIP3    H218782   3.305   4.293   3.580
 6281TIP3   OH218783   3.206   3.793   1.164
 6281TIP3    H118784   3.202   3.775   1.070
 6281TIP3    H218785   3.262   3.724   1.199
 6282TIP3   OH218786   2.871   4.022   0.065
 6282TIP3    H118787   2.784   4.062   0.073
 6282TIP3    H218788   2.854   3.933   0.034
 6283TIP3   OH218789   2.326   1.138   1.495
 6283TIP3    H118790   2.244   1.089   1.504
 6283TIP3    H218791   2.301   1.218   1.450
 6284TIP3   OH218792   6.159   6.919   1.277
 6284TIP3    H118793   6.171   6.939   1.184
 6284TIP3    H218794   6.133   7.003   1.316
 6285TIP3   OH218795   7.169   6.128   3.792
 6285TIP3    H118796   7.186   6.218   3.819
 6285TIP3    H218797   7.234   6.112   3.724
 6286TIP3   OH218798   1.639   2.696   2.128
 6286TIP3    H118799   1.717   2.744   2.156
 6286TIP3    H218800   1.660   2.604   2.144
 6287TIP3   OH218801   7.259   7.080   1.530
 6287TIP3    H118802   7.203   7.105   1.603
 6287TIP3    H218803   7.313   7.157   1.513
 6288TIP3   OH218804   5.631   4.181   4.021
 6288TIP3    H118805   5.568   4.251   4.034
 6288TIP3    H218806   5.578   4.104   3.999
 6289TIP3   OH218807   4.046   5.015   5.254
 6289TIP3    H118808   4.050   4.987   5.163
 6289TIP3    H218809   3.955   5.000   5.280
 6290TIP3   OH218810   4.728   4.486   0.068
 6290TIP3    H118811   4.752   4.428   0.139
 6290TIP3    H218812   4.678   4.431   0.007
 6291TIP3   OH218813   2.199   5.950   0.788
 6291TIP3    H118814   2.144   5.872   0.784
 6291TIP3    H218815   2.140   6.022   0.765
 6292TIP3   OH218816   5.075   5.012   2.212
 6292TIP3    H118817   5.117   5.052   2.137
 6292TIP3    H218818   4.989   4.985   2.180
 6293TIP3   OH218819   6.210   2.817   2.407
 6293TIP3    H118820   6.234   2.727   2.427
 6293TIP3    H218821   6.151   2.810   2.332
 6294TIP3   OH218822   3.609   5.028   3.303
 6294TIP3    H118823   3.681   5.089   3.316
 6294TIP3    H218824   3.618   4.999   3.212
 6295TIP3   OH218825   6.952   0.905   0.592
 6295TIP3    H118826   6.932   0.977   0.651
 6295TIP3    H218827   6.892   0.917   0.518
 6296TIP3   OH218828   5.965   5.574   0.566
 6296TIP3    H118829   5.922   5.497   0.530
 6296TIP3    H218830   5.906   5.646   0.545
 6297TIP3   OH218831   1.100   7.809   5.786
 6297TIP3    H118832   1.087   7.859   5.867
 6297TIP3    H218833   1.195   7.798   5.780
 6298TIP3   OH218834   5.928   5.890   4.678
 6298TIP3    H118835   5.988   5.823   4.644
 6298TIP3    H218836   5.904   5.858   4.765
 6299TIP3   OH218837   6.988   2.933   1.535
 6299TIP3    H118838   6.912   2.914   1.590
 6299TIP3    H218839   6.955   2.991   1.467
 6300TIP3   OH218840   2.569   2.405   1.283
 6300TIP3    H118841   2.546   2.319   1.318
 6300TIP3    H218842   2.504   2.422   1.215
 6301TIP3   OH218843   4.609   5.164   4.368
 6301TIP3    H118844   4.613   5.082   4.417
 6301TIP3    H218845   4.616   5.138   4.276
 6302TIP3   OH218846   6.927   4.344   4.140
 6302TIP3    H118847   6.962   4.395   4.213
 6302TIP3    H218848   6.844   4.309   4.173
 6303TIP3   OH218849   4.089   5.053   1.009
 6303TIP3    H118850   4.169   5.103   0.991
 6303TIP3    H218851   4.120   4.976   1.057
 6304TIP3   OH218852   5.924   0.993   2.735
 6304TIP3    H118853   5.892   0.925   2.675
 6304TIP3    H218854   5.846   1.022   2.782
 6305TIP3   OH218855   4.673   3.255   0.022
 6305TIP3    H118856   4.683   3.349   0.038
 6305TIP3    H218857   4.763   3.221   0.019
 6306TIP3   OH218858   2.258   6.152   3.464
 6306TIP3    H118859   2.350   6.143   3.438
 6306TIP3    H218860   2.243   6.080   3.525
 6307TIP3   OH218861   6.289   1.815   0.203
 6307TIP3    H118862   6.334   1.880   0.150
 6307TIP3    H218863   6.227   1.865   0.255
 6308TIP3   OH218864   8.330   0.350   4.310
 6308TIP3    H118865   8.386   0.318   4.380
 6308TIP3    H218866   8.271   0.277   4.291
 6309TIP3   OH218867   7.297   1.509   3.825
 6309TIP3    H118868   7.277   1.457   3.747
 6309TIP3    H218869   7.307   1.445   3.895
 6310TIP3   OH218870   8.099   2.483   4.130
 6310TIP3    H118871   8.150   2.468   4.210
 6310TIP3    H218872   8.091   2.578   4.124
 6311TIP3   OH218873   2.265   7.308   6.794
 6311TIP3    H118874   2.263   7.333   6.887
 6311TIP3    H218875   2.345   7.347   6.760
 6312TIP3   OH218876   2.898   7.501   1.354
 6312TIP3    H118877   2.870   7.585   1.391
 6312TIP3    H218878   2.816   7.456   1.333
 6313TIP3   OH218879   4.698   0.192   4.075
 6313TIP3    H118880   4.787   0.159   4.089
 6313TIP3    H218881   4.642   0.123   4.111
 6314TIP3   OH218882   3.078   1.416   4.722
 6314TIP3    H118883   3.166   1.452   4.713
 6314TIP3    H218884   3.083   1.330   4.681
 6315TIP3   OH218885   7.276   4.619   6.614
 6315TIP3    H118886   7.183   4.631   6.596
 6315TIP3    H218887   7.282   4.619   6.710
 6316TIP3   OH218888   2.417   6.159   0.408
 6316TIP3    H118889   2.406   6.064   0.396
 6316TIP3    H218890   2.342   6.198   0.363
 6317TIP3   OH218891   4.484   4.970   0.949
 6317TIP3    H118892   4.565   4.978   0.999
 6317TIP3    H218893   4.431   5.044   0.975
 6318TIP3   OH218894   5.329   0.489   4.208
 6318TIP3    H118895   5.267   0.455   4.144
 6318TIP3    H218896   5.412   0.492   4.161
 6319TIP3   OH218897   5.293   2.723   5.570
 6319TIP3    H118898   5.307   2.757   5.659
 6319TIP3    H218899   5.347   2.645   5.565
 6320TIP3   OH218900   0.471   4.268   4.392
 6320TIP3    H118901   0.490   4.215   4.469
 6320TIP3    H218902   0.556   4.304   4.366
 6321TIP3   OH218903   7.703   1.819   5.395
 6321TIP3    H118904   7.691   1.780   5.482
 6321TIP3    H218905   7.723   1.911   5.413
 6322TIP3   OH218906   1.307   5.363   1.978
 6322TIP3    H118907   1.214   5.368   2.000
 6322TIP3    H218908   1.316   5.415   1.899
 6323TIP3   OH218909   6.646   5.183   2.203
 6323TIP3    H118910   6.629   5.116   2.270
 6323TIP3    H218911   6.571   5.241   2.206
 6324TIP3   OH218912   3.971   1.355   2.936
 6324TIP3    H118913   4.029   1.385   2.867
 6324TIP3    H218914   3.903   1.423   2.941
 6325TIP3   OH218915   7.126   5.007   0.447
 6325TIP3    H118916   7.078   5.066   0.506
 6325TIP3    H218917   7.165   5.064   0.382
 6326TIP3   OH218918   7.710   2.426   1.664
 6326TIP3    H118919   7.645   2.370   1.622
 6326TIP3    H218920   7.711   2.399   1.756
 6327TIP3   OH218921   7.625   1.974   5.940
 6327TIP3    H118922   7.720   1.958   5.944
 6327TIP3    H218923   7.614   2.028   5.861
 6328TIP3   OH218924   3.499   7.695   3.351
 6328TIP3    H118925   3.522   7.602   3.346
 6328TIP3    H218926   3.404   7.696   3.357
 6329TIP3   OH218927   8.084   5.087   4.142
 6329TIP3    H118928   8.142   5.041   4.202
 6329TIP3    H218929   8.133   5.092   4.060
 6330TIP3   OH218930   4.306   3.565   3.274
 6330TIP3    H118931   4.381   3.517   3.240
 6330TIP3    H218932   4.270   3.612   3.199
 6331TIP3   OH218933   3.768   3.235   2.463
 6331TIP3    H118934   3.751   3.228   2.557
 6331TIP3    H218935   3.771   3.145   2.432
 6332TIP3   OH218936   4.317   7.193   3.797
 6332TIP3    H118937   4.251   7.235   3.852
 6332TIP3    H218938   4.280   7.108   3.774
 6333TIP3   OH218939   3.900   1.805   0.865
 6333TIP3    H118940   3.821   1.756   0.888
 6333TIP3    H218941   3.892   1.820   0.771
 6334TIP3   OH218942   8.346   1.378   6.605
 6334TIP3    H118943   8.339   1.472   6.588
 6334TIP3    H218944   8.293   1.364   6.684
 6335TIP3   OH218945   7.657   1.696   1.901
 6335TIP3    H118946   7.725   1.750   1.940
 6335TIP3    H218947   7.668   1.709   1.806
 6336TIP3   OH218948   0.681   0.724   5.346
 6336TIP3    H118949   0.676   0.715   5.251
 6336TIP3    H218950   0.646   0.642   5.380
 6337TIP3   OH218951   6.241   6.423   4.177
 6337TIP3    H118952   6.168   6.374   4.140
 6337TIP3    H218953   6.233   6.409   4.272
 6338TIP3   OH218954   6.935   5.953   3.431
 6338TIP3    H118955   6.924   5.982   3.341
 6338TIP3    H218956   6.996   6.016   3.469
 6339TIP3   OH218957   1.573   6.767   0.298
 6339TIP3    H118958   1.479   6.751   0.292
 6339TIP3    H218959   1.593   6.823   0.224
 6340TIP3   OH218960   3.037   4.629   5.436
 6340TIP3    H118961   3.057   4.705   5.381
 6340TIP3    H218962   3.081   4.648   5.520
 6341TIP3   OH218963   2.017   5.645   5.668
 6341TIP3    H118964   2.021   5.682   5.579
 6341TIP3    H218965   1.929   5.607   5.674
 6342TIP3   OH218966   5.790   4.230   0.777
 6342TIP3    H118967   5.865   4.274   0.738
 6342TIP3    H218968   5.717   4.249   0.718
 6343TIP3   OH218969   8.082   1.866   5.162
 6343TIP3    H118970   8.062   1.959   5.153
 6343TIP3    H218971   8.006   1.821   5.125
 6344TIP3   OH218972   0.222   1.080   0.266
 6344TIP3    H118973   0.313   1.108   0.256
 6344TIP3    H218974   0.215   1.003   0.209
 6345TIP3   OH218975   2.837   3.536   3.816
 6345TIP3    H118976   2.928   3.562   3.830
 6345TIP3    H218977   2.807   3.592   3.745
 6346TIP3   OH218978   5.497   7.699   1.181
 6346TIP3    H118979   5.421   7.646   1.157
 6346TIP3    H218980   5.531   7.658   1.261
 6347TIP3   OH218981   7.607   4.825   2.401
 6347TIP3    H118982   7.576   4.915   2.393
 6347TIP3    H218983   7.690   4.824   2.352
 6348TIP3   OH218984   2.039   0.264   3.544
 6348TIP3    H118985   2.103   0.278   3.475
 6348TIP3    H218986   2.060   0.329   3.611
 6349TIP3   OH218987   0.612   1.169   3.636
 6349TIP3    H118988   0.606   1.090   3.582
 6349TIP3    H218989   0.704   1.194   3.631
 6350TIP3   OH218990   7.736   6.923   6.223
 6350TIP3    H118991   7.750   6.950   6.314
 6350TIP3    H218992   7.800   6.853   6.209
 6351TIP3   OH218993   1.883   7.058   4.580
 6351TIP3    H118994   1.852   7.061   4.490
 6351TIP3    H218995   1.875   7.149   4.611
 6352TIP3   OH218996   2.884   6.738   1.282
 6352TIP3    H118997   2.849   6.753   1.370
 6352TIP3    H218998   2.872   6.822   1.237
 6353TIP3   OH218999   4.594   4.397   5.858
 6353TIP3    H119000   4.639   4.477   5.883
 6353TIP3    H219001   4.539   4.376   5.933
 6354TIP3   OH219002   0.218   6.166   6.259
 6354TIP3    H119003   0.239   6.233   6.194
 6354TIP3    H219004   0.245   6.084   6.219
 6355TIP3   OH219005   0.674   6.617   3.243
 6355TIP3    H119006   0.652   6.691   3.187
 6355TIP3    H219007   0.646   6.540   3.194
 6356TIP3   OH219008   3.427   2.013   4.510
 6356TIP3    H119009   3.478   2.093   4.518
 6356TIP3    H219010   3.415   2.003   4.416
 6357TIP3   OH219011   4.555   4.631   5.065
 6357TIP3    H119012   4.511   4.571   5.126
 6357TIP3    H219013   4.643   4.642   5.103
 6358TIP3   OH219014   6.949   5.126   4.754
 6358TIP3    H119015   6.964   5.114   4.848
 6358TIP3    H219016   7.022   5.181   4.725
 6359TIP3   OH219017   6.987   2.604   5.935
 6359TIP3    H119018   6.903   2.632   5.971
 6359TIP3    H219019   6.970   2.589   5.842
 6360TIP3   OH219020   1.373   2.368   6.279
 6360TIP3    H119021   1.417   2.436   6.329
 6360TIP3    H219022   1.383   2.289   6.332
 6361TIP3   OH219023   0.241   4.926   1.465
 6361TIP3    H119024   0.303   4.985   1.422
 6361TIP3    H219025   0.288   4.843   1.471
 6362TIP3   OH219026   0.416   5.547   2.207
 6362TIP3    H119027   0.437   5.490   2.280
 6362TIP3    H219028   0.389   5.629   2.248
 6363TIP3   OH219029   0.531   5.122   6.273
 6363TIP3    H119030   0.457   5.179   6.252
 6363TIP3    H219031   0.537   5.061   6.200
 6364TIP3   OH219032   6.573   6.958   4.469
 6364TIP3    H119033   6.652   7.002   4.500
 6364TIP3    H219034   6.517   6.948   4.546
 6365TIP3   OH219035   1.436   2.174   1.117
 6365TIP3    H119036   1.469   2.188   1.028
 6365TIP3    H219037   1.462   2.084   1.139
 6366TIP3   OH219038   4.594   1.127   3.609
 6366TIP3    H119039   4.684   1.131   3.577
 6366TIP3    H219040   4.599   1.157   3.700
 6367TIP3   OH219041   7.559   1.999   6.685
 6367TIP3    H119042   7.527   1.984   6.596
 6367TIP3    H219043   7.649   1.966   6.684
 6368TIP3   OH219044   2.751   7.867   6.379
 6368TIP3    H119045   2.785   7.927   6.446
 6368TIP3    H219046   2.656   7.866   6.393
 6369TIP3   OH219047   3.900   0.724   1.263
 6369TIP3    H119048   3.944   0.661   1.320
 6369TIP3    H219049   3.903   0.684   1.176
 6370TIP3   OH219050   5.069   0.423   1.179
 6370TIP3    H119051   5.113   0.350   1.224
 6370TIP3    H219052   5.103   0.501   1.221
 6371TIP3   OH219053   4.260   0.132   6.304
 6371TIP3    H119054   4.337   0.098   6.258
 6371TIP3    H219055   4.293   0.209   6.350
 6372TIP3   OH219056   5.485   6.065   0.497
 6372TIP3    H119057   5.509   6.153   0.466
 6372TIP3    H219058   5.463   6.077   0.589
 6373TIP3   OH219059   1.811   7.704   3.706
 6373TIP3    H119060   1.899   7.673   3.686
 6373TIP3    H219061   1.788   7.761   3.633
 6374TIP3   OH219062   2.846   6.555   5.374
 6374TIP3    H119063   2.892   6.523   5.451
 6374TIP3    H219064   2.907   6.542   5.302
 6375TIP3   OH219065   7.910   2.240   6.185
 6375TIP3    H119066   7.973   2.260   6.115
 6375TIP3    H219067   7.927   2.306   6.252
 6376TIP3   OH219068   2.616   3.417   3.189
 6376TIP3    H119069   2.701   3.390   3.223
 6376TIP3    H219070   2.583   3.341   3.142
 6377TIP3   OH219071   0.819   0.809   4.115
 6377TIP3    H119072   0.774   0.749   4.055
 6377TIP3    H219073   0.826   0.891   4.065
 6378TIP3   OH219074   7.167   7.294   1.786
 6378TIP3    H119075   7.195   7.208   1.818
 6378TIP3    H219076   7.225   7.356   1.831
 6379TIP3   OH219077   2.399   3.811   5.405
 6379TIP3    H119078   2.442   3.874   5.464
 6379TIP3    H219079   2.461   3.738   5.400
 6380TIP3   OH219080   1.464   2.877   3.980
 6380TIP3    H119081   1.390   2.919   3.936
 6380TIP3    H219082   1.424   2.829   4.053
 6381TIP3   OH219083   2.781   0.415   6.000
 6381TIP3    H119084   2.817   0.504   5.995
 6381TIP3    H219085   2.690   0.425   5.973
 6382TIP3   OH219086   4.452   5.808   4.449
 6382TIP3    H119087   4.542   5.797   4.418
 6382TIP3    H219088   4.419   5.882   4.398
 6383TIP3   OH219089   3.483   1.804   5.441
 6383TIP3    H119090   3.423   1.799   5.516
 6383TIP3    H219091   3.567   1.828   5.481
 6384TIP3   OH219092   2.639   2.536   1.778
 6384TIP3    H119093   2.626   2.618   1.825
 6384TIP3    H219094   2.598   2.550   1.693
 6385TIP3   OH219095   1.057   7.779   6.115
 6385TIP3    H119096   0.982   7.738   6.074
 6385TIP3    H219097   1.062   7.866   6.074
 6386TIP3   OH219098   1.029   2.215   4.005
 6386TIP3    H119099   1.025   2.169   3.922
 6386TIP3    H219100   1.063   2.150   4.067
 6387TIP3   OH219101   6.799   3.593   6.077
 6387TIP3    H119102   6.878   3.569   6.029
 6387TIP3    H219103   6.820   3.574   6.169
 6388TIP3   OH219104   6.710   1.451   0.930
 6388TIP3    H119105   6.688   1.502   0.852
 6388TIP3    H219106   6.638   1.465   0.990
 6389TIP3   OH219107   5.329   5.798   1.217
 6389TIP3    H119108   5.362   5.884   1.242
 6389TIP3    H219109   5.403   5.739   1.227
 6390TIP3   OH219110   7.442   5.502   5.368
 6390TIP3    H119111   7.458   5.568   5.437
 6390TIP3    H219112   7.519   5.509   5.312
 6391TIP3   OH219113   6.686   2.198   0.619
 6391TIP3    H119114   6.597   2.184   0.587
 6391TIP3    H219115   6.734   2.120   0.592
 6392TIP3   OH219116   4.630   3.213   4.260
 6392TIP3    H119117   4.628   3.221   4.164
 6392TIP3    H219118   4.714   3.251   4.285
 6393TIP3   OH219119   1.982   6.719   4.425
 6393TIP3    H119120   1.971   6.670   4.507
 6393TIP3    H219121   2.064   6.767   4.436
 6394TIP3   OH219122   7.093   4.875   2.059
 6394TIP3    H119123   7.102   4.846   1.968
 6394TIP3    H219124   7.043   4.956   2.054
 6395TIP3   OH219125   8.186   5.889   6.620
 6395TIP3    H119126   8.154   5.979   6.620
 6395TIP3    H219127   8.243   5.884   6.543
 6396TIP3   OH219128   0.969   1.456   5.822
 6396TIP3    H119129   0.959   1.541   5.780
 6396TIP3    H219130   0.915   1.397   5.770
 6397TIP3   OH219131   5.081   6.379   5.892
 6397TIP3    H119132   5.130   6.297   5.884
 6397TIP3    H219133   4.990   6.352   5.903
 6398TIP3   OH219134   5.697   2.736   2.328
 6398TIP3    H119135   5.738   2.649   2.332
 6398TIP3    H219136   5.682   2.751   2.235
 6399TIP3   OH219137   2.534   2.451   5.480
 6399TIP3    H119138   2.545   2.482   5.570
 6399TIP3    H219139   2.500   2.362   5.489
 6400TIP3   OH219140   8.271   1.273   2.808
 6400TIP3    H119141   8.298   1.223   2.731
 6400TIP3    H219142   8.175   1.271   2.806
 6401TIP3   OH219143   1.973   6.973   6.235
 6401TIP3    H119144   1.963   6.918   6.156
 6401TIP3    H219145   1.884   7.000   6.256
 6402TIP3   OH219146   6.739   3.995   6.449
 6402TIP3    H119147   6.654   3.979   6.407
 6402TIP3    H219148   6.757   3.914   6.497
 6403TIP3   OH219149   4.543   7.507   6.049
 6403TIP3    H119150   4.622   7.557   6.071
 6403TIP3    H219151   4.483   7.572   6.014
 6404TIP3   OH219152   0.335   4.023   3.300
 6404TIP3    H119153   0.309   4.111   3.329
 6404TIP3    H219154   0.413   4.037   3.247
 6405TIP3   OH219155   6.426   7.077   6.792
 6405TIP3    H119156   6.333   7.064   6.814
 6405TIP3    H219157   6.430   7.165   6.755
 6406TIP3   OH219158   8.110   1.220   5.452
 6406TIP3    H119159   8.186   1.258   5.407
 6406TIP3    H219160   8.067   1.294   5.494
 6407TIP3   OH219161   8.301   0.370   6.307
 6407TIP3    H119162   8.283   0.463   6.325
 6407TIP3    H219163   8.265   0.355   6.219
 6408TIP3   OH219164   3.393   4.177   4.072
 6408TIP3    H119165   3.365   4.260   4.031
 6408TIP3    H219166   3.488   4.175   4.059
 6409TIP3   OH219167   1.388   6.933   3.416
 6409TIP3    H119168   1.431   7.009   3.456
 6409TIP3    H219169   1.398   6.863   3.480
 6410TIP3   OH219170   3.891   5.361   6.797
 6410TIP3    H119171   3.801   5.392   6.794
 6410TIP3    H219172   3.938   5.427   6.848
 6411TIP3   OH219173   7.994   4.178   5.457
 6411TIP3    H119174   7.935   4.239   5.502
 6411TIP3    H219175   7.945   4.150   5.380
 6412TIP3   OH219176   3.722   5.327   3.090
 6412TIP3    H119177   3.759   5.287   3.169
 6412TIP3    H219178   3.637   5.285   3.079
 6413TIP3   OH219179   3.958   5.008   2.004
 6413TIP3    H119180   3.971   4.929   1.951
 6413TIP3    H219181   3.899   4.981   2.074
 6414TIP3   OH219182   0.268   6.167   4.072
 6414TIP3    H119183   0.225   6.093   4.029
 6414TIP3    H219184   0.276   6.232   4.003
 6415TIP3   OH219185   0.333   7.655   6.292
 6415TIP3    H119186   0.307   7.593   6.224
 6415TIP3    H219187   0.279   7.733   6.275
 6416TIP3   OH219188   3.641   0.770   2.198
 6416TIP3    H119189   3.553   0.804   2.218
 6416TIP3    H219190   3.668   0.727   2.279
 6417TIP3   OH219191   7.146   3.069   2.664
 6417TIP3    H119192   7.155   3.146   2.607
 6417TIP3    H219193   7.090   3.009   2.614
 6418TIP3   OH219194   3.744   3.643   0.389
 6418TIP3    H119195   3.734   3.694   0.308
 6418TIP3    H219196   3.698   3.693   0.455
 6419TIP3   OH219197   2.381   1.015   0.691
 6419TIP3    H119198   2.304   1.044   0.738
 6419TIP3    H219199   2.425   1.096   0.663
 6420TIP3   OH219200   7.740   7.616   1.499
 6420TIP3    H119201   7.742   7.711   1.511
 6420TIP3    H219202   7.829   7.594   1.470
 6421TIP3   OH219203   4.459   2.294   2.757
 6421TIP3    H119204   4.532   2.323   2.702
 6421TIP3    H219205   4.481   2.204   2.781
 6422TIP3   OH219206   8.304   4.121   2.042
 6422TIP3    H119207   8.310   4.205   1.996
 6422TIP3    H219208   8.255   4.065   1.983
 6423TIP3   OH219209   0.338   4.785   0.228
 6423TIP3    H119210   0.390   4.779   0.308
 6423TIP3    H219211   0.249   4.760   0.255
 6424TIP3   OH219212   8.133   1.021   6.594
 6424TIP3    H119213   8.063   1.018   6.659
 6424TIP3    H219214   8.097   1.072   6.521
 6425TIP3   OH219215   3.828   3.229   1.779
 6425TIP3    H119216   3.891   3.199   1.844
 6425TIP3    H219217   3.880   3.274   1.712
 6426TIP3   OH219218   7.633   1.323   6.463
 6426TIP3    H119219   7.577   1.307   6.387
 6426TIP3    H219220   7.676   1.239   6.480
 6427TIP3   OH219221   6.637   5.198   4.412
 6427TIP3    H119222   6.569   5.166   4.471
 6427TIP3    H219223   6.666   5.120   4.364
 6428TIP3   OH219224   0.455   7.113   5.503
 6428TIP3    H119225   0.460   7.036   5.560
 6428TIP3    H219226   0.534   7.163   5.523
 6429TIP3   OH219227   0.127   3.556   1.018
 6429TIP3    H119228   0.042   3.529   1.053
 6429TIP3    H219229   0.175   3.587   1.095
 6430TIP3   OH219230   0.735   2.370   0.771
 6430TIP3    H119231   0.688   2.336   0.846
 6430TIP3    H219232   0.682   2.444   0.741
 6431TIP3   OH219233   0.488   4.750   3.552
 6431TIP3    H119234   0.557   4.737   3.617
 6431TIP3    H219235   0.411   4.707   3.591
 6432TIP3   OH219236   8.106   2.199   0.193
 6432TIP3    H119237   8.044   2.173   0.126
 6432TIP3    H219238   8.104   2.128   0.257
 6433TIP3   OH219239   3.912   7.379   2.462
 6433TIP3    H119240   3.943   7.299   2.506
 6433TIP3    H219241   3.949   7.450   2.514
 6434TIP3   OH219242   2.536   5.784   4.690
 6434TIP3    H119243   2.477   5.840   4.741
 6434TIP3    H219244   2.624   5.815   4.712
 6435TIP3   OH219245   0.439   2.200   4.049
 6435TIP3    H119246   0.532   2.221   4.035
 6435TIP3    H219247   0.400   2.204   3.962
 6436TIP3   OH219248   5.030   7.250   5.748
 6436TIP3    H119249   4.954   7.305   5.767
 6436TIP3    H219250   4.997   7.160   5.756
 6437TIP3   OH219251   3.684   6.354   4.955
 6437TIP3    H119252   3.772   6.323   4.934
 6437TIP3    H219253   3.641   6.279   4.996
 6438TIP3   OH219254   5.936   0.658   4.660
 6438TIP3    H119255   6.010   0.622   4.709
 6438TIP3    H219256   5.908   0.734   4.712
 6439TIP3   OH219257   4.057   4.322  -0.015
 6439TIP3    H119258   4.025   4.233  -0.030
 6439TIP3    H219259   4.135   4.310   0.040
 6440TIP3   OH219260   7.854   0.771   5.850
 6440TIP3    H119261   7.782   0.724   5.808
 6440TIP3    H219262   7.812   0.846   5.892
 6441TIP3   OH219263   6.928   3.575   2.778
 6441TIP3    H119264   6.962   3.505   2.722
 6441TIP3    H219265   6.941   3.543   2.867
 6442TIP3   OH219266   5.646   1.165   3.523
 6442TIP3    H119267   5.582   1.094   3.521
 6442TIP3    H219268   5.729   1.122   3.542
 6443TIP3   OH219269   3.645  -0.032   6.592
 6443TIP3    H119270   3.662  -0.057   6.501
 6443TIP3    H219271   3.699   0.045   6.607
 6444TIP3   OH219272   3.521   2.805   1.394
 6444TIP3    H119273   3.557   2.889   1.365
 6444TIP3    H219274   3.597   2.754   1.421
 6445TIP3   OH219275   7.654   2.101   2.241
 6445TIP3    H119276   7.565   2.129   2.223
 6445TIP3    H219277   7.688   2.071   2.157
 6446TIP3   OH219278   2.883   6.762   4.549
 6446TIP3    H119279   2.835   6.691   4.591
 6446TIP3    H219280   2.923   6.722   4.472
 6447TIP3   OH219281   5.342   3.752   3.108
 6447TIP3    H119282   5.427   3.718   3.082
 6447TIP3    H219283   5.301   3.779   3.026
 6448TIP3   OH219284   3.117   1.829   0.579
 6448TIP3    H119285   3.136   1.852   0.670
 6448TIP3    H219286   3.189   1.772   0.553
 6449TIP3   OH219287   3.889   2.421   1.907
 6449TIP3    H119288   3.958   2.481   1.878
 6449TIP3    H219289   3.811   2.448   1.859
 6450TIP3   OH219290   7.518   4.379   2.345
 6450TIP3    H119291   7.524   4.419   2.258
 6450TIP3    H219292   7.493   4.451   2.403
 6451TIP3   OH219293   1.444   3.821   1.248
 6451TIP3    H119294   1.469   3.752   1.187
 6451TIP3    H219295   1.469   3.902   1.204
 6452TIP3   OH219296   3.004   0.934   3.540
 6452TIP3    H119297   3.031   1.025   3.551
 6452TIP3    H219298   2.918   0.940   3.499
 6453TIP3   OH219299   6.379   2.412   5.279
 6453TIP3    H119300   6.368   2.430   5.185
 6453TIP3    H219301   6.465   2.371   5.285
 6454TIP3   OH219302   0.301   0.853   2.931
 6454TIP3    H119303   0.211   0.822   2.942
 6454TIP3    H219304   0.294   0.926   2.870
 6455TIP3   OH219305   1.060   2.838   0.895
 6455TIP3    H119306   1.098   2.912   0.942
 6455TIP3    H219307   1.126   2.769   0.902
 6456TIP3   OH219308   0.072   1.468   2.378
 6456TIP3    H119309   0.149   1.470   2.321
 6456TIP3    H219310   0.079   1.549   2.429
 6457TIP3   OH219311   3.316   2.899   2.968
 6457TIP3    H119312   3.375   2.949   3.024
 6457TIP3    H219313   3.236   2.952   2.964
 6458TIP3   OH219314   5.454   5.033   2.483
 6458TIP3    H119315   5.406   5.076   2.412
 6458TIP3    H219316   5.480   5.104   2.541
 6459TIP3   OH219317   3.400   3.675   4.403
 6459TIP3    H119318   3.417   3.696   4.311
 6459TIP3    H219319   3.487   3.671   4.443
 6460TIP3   OH219320   6.039   2.281   2.366
 6460TIP3    H119321   6.002   2.297   2.453
 6460TIP3    H219322   6.077   2.194   2.371
 6461TIP3   OH219323   5.369   2.533   3.118
 6461TIP3    H119324   5.323   2.450   3.123
 6461TIP3    H219325   5.462   2.509   3.115
 6462TIP3   OH219326   3.989   6.256   5.959
 6462TIP3    H119327   3.925   6.193   5.926
 6462TIP3    H219328   4.033   6.209   6.031
 6463TIP3   OH219329   2.467   4.413   6.360
 6463TIP3    H119330   2.389   4.468   6.349
 6463TIP3    H219331   2.494   4.427   6.451
 6464TIP3   OH219332   8.001   5.474   5.218
 6464TIP3    H119333   8.069   5.430   5.269
 6464TIP3    H219334   7.979   5.413   5.149
 6465TIP3   OH219335   4.040   3.660   0.205
 6465TIP3    H119336   4.093   3.739   0.195
 6465TIP3    H219337   3.967   3.671   0.144
 6466TIP3   OH219338   8.040   0.050   6.128
 6466TIP3    H119339   8.033   0.133   6.175
 6466TIP3    H219340   7.959   0.004   6.150
 6467TIP3   OH219341  -0.003   4.612   5.665
 6467TIP3    H119342   0.062   4.577   5.725
 6467TIP3    H219343  -0.041   4.687   5.711
 6468TIP3   OH219344   6.590   0.410   3.607
 6468TIP3    H119345   6.510   0.397   3.659
 6468TIP3    H219346   6.661   0.388   3.668
 6469TIP3   OH219347   7.846   4.751   2.276
 6469TIP3    H119348   7.864   4.796   2.194
 6469TIP3    H219349   7.839   4.658   2.252
 6470TIP3   OH219350   8.228   2.596   5.535
 6470TIP3    H119351   8.147   2.581   5.585
 6470TIP3    H219352   8.291   2.626   5.601
 6471TIP3   OH219353   8.353   6.465   3.468
 6471TIP3    H119354   8.367   6.540   3.410
 6471TIP3    H219355   8.401   6.488   3.548
 6472TIP3   OH219356   1.846   5.034   6.261
 6472TIP3    H119357   1.910   5.066   6.198
 6472TIP3    H219358   1.761   5.050   6.220
 6473TIP3   OH219359   4.361   2.801   5.133
 6473TIP3    H119360   4.288   2.850   5.171
 6473TIP3    H219361   4.396   2.750   5.206
 6474TIP3   OH219362   6.975   1.585   1.843
 6474TIP3    H119363   6.892   1.631   1.841
 6474TIP3    H219364   6.954   1.496   1.814
 6475TIP3   OH219365   4.235   6.492   4.931
 6475TIP3    H119366   4.170   6.479   5.000
 6475TIP3    H219367   4.241   6.587   4.921
 6476TIP3   OH219368   3.668   3.068   4.388
 6476TIP3    H119369   3.623   2.991   4.354
 6476TIP3    H219370   3.751   3.071   4.339
 6477TIP3   OH219371   3.198   5.903   1.631
 6477TIP3    H119372   3.200   5.835   1.564
 6477TIP3    H219373   3.250   5.867   1.703
 6478TIP3   OH219374   5.937   2.155   4.246
 6478TIP3    H119375   5.960   2.221   4.312
 6478TIP3    H219376   5.928   2.205   4.164
 6479TIP3   OH219377   4.181   7.609   1.155
 6479TIP3    H119378   4.262   7.566   1.181
 6479TIP3    H219379   4.125   7.537   1.124
 6480TIP3   OH219380   3.610   3.102   0.567
 6480TIP3    H119381   3.676   3.170   0.553
 6480TIP3    H219382   3.531   3.149   0.591
 6481TIP3   OH219383   1.953   3.067   3.278
 6481TIP3    H119384   1.971   3.097   3.189
 6481TIP3    H219385   2.017   3.112   3.332
 6482TIP3   OH219386   5.550   5.009   4.074
 6482TIP3    H119387   5.572   5.097   4.105
 6482TIP3    H219388   5.483   4.978   4.135
 6483TIP3   OH219389   5.553   2.706   4.759
 6483TIP3    H119390   5.543   2.773   4.826
 6483TIP3    H219391   5.557   2.755   4.677
 6484TIP3   OH219392   1.720   5.621   4.422
 6484TIP3    H119393   1.691   5.707   4.392
 6484TIP3    H219394   1.653   5.594   4.484
 6485TIP3   OH219395   3.463   0.225   6.549
 6485TIP3    H119396   3.523   0.231   6.475
 6485TIP3    H219397   3.483   0.140   6.589
 6486TIP3   OH219398   4.495   5.470   6.139
 6486TIP3    H119399   4.568   5.408   6.136
 6486TIP3    H219400   4.515   5.533   6.070
 6487TIP3   OH219401   2.368   4.817   0.865
 6487TIP3    H119402   2.350   4.728   0.895
 6487TIP3    H219403   2.429   4.852   0.930
 6488TIP3   OH219404   7.902   2.128   1.696
 6488TIP3    H119405   7.872   2.069   1.627
 6488TIP3    H219406   7.827   2.138   1.754
 6489TIP3   OH219407   6.654   3.592   2.287
 6489TIP3    H119408   6.623   3.610   2.375
 6489TIP3    H219409   6.606   3.654   2.231
 6490TIP3   OH219410   3.994   0.193   4.525
 6490TIP3    H119411   4.020   0.283   4.548
 6490TIP3    H219412   4.042   0.138   4.587
 6491TIP3   OH219413   2.514   6.445   1.055
 6491TIP3    H119414   2.483   6.425   0.966
 6491TIP3    H219415   2.439   6.424   1.111
 6492TIP3   OH219416   5.322   2.212   6.546
 6492TIP3    H119417   5.308   2.215   6.451
 6492TIP3    H219418   5.261   2.278   6.581
 6493TIP3   OH219419   0.133   4.519   2.151
 6493TIP3    H119420   0.112   4.426   2.146
 6493TIP3    H219421   0.122   4.541   2.244
 6494TIP3   OH219422   1.895   2.912   4.679
 6494TIP3    H119423   1.864   2.885   4.766
 6494TIP3    H219424   1.990   2.901   4.683
 6495TIP3   OH219425   1.758   2.811   0.748
 6495TIP3    H119426   1.832   2.757   0.720
 6495TIP3    H219427   1.745   2.788   0.840
 6496TIP3   OH219428   6.139   1.954   4.233
 6496TIP3    H119429   6.217   2.003   4.258
 6496TIP3    H219430   6.066   2.012   4.255
 6497TIP3   OH219431   6.793   5.505   0.460
 6497TIP3    H119432   6.880   5.497   0.498
 6497TIP3    H219433   6.733   5.488   0.533
 6498TIP3   OH219434   5.235   5.679   5.537
 6498TIP3    H119435   5.203   5.671   5.447
 6498TIP3    H219436   5.330   5.686   5.528
 6499TIP3   OH219437   7.033   6.314   6.277
 6499TIP3    H119438   7.018   6.376   6.206
 6499TIP3    H219439   7.054   6.368   6.353
 6500TIP3   OH219440   8.123   6.759   0.332
 6500TIP3    H119441   8.190   6.815   0.371
 6500TIP3    H219442   8.080   6.815   0.267
 6501TIP3   OH219443   8.139   6.082   1.553
 6501TIP3    H119444   8.173   6.126   1.631
 6501TIP3    H219445   8.157   5.989   1.567
 6502TIP3   OH219446   6.466   3.481   4.829
 6502TIP3    H119447   6.501   3.478   4.740
 6502TIP3    H219448   6.458   3.390   4.855
 6503TIP3   OH219449   0.520   5.306   2.341
 6503TIP3    H119450   0.481   5.243   2.279
 6503TIP3    H219451   0.467   5.298   2.420
 6504TIP3   OH219452   4.818   6.055   3.516
 6504TIP3    H119453   4.762   6.100   3.453
 6504TIP3    H219454   4.903   6.098   3.509
 6505TIP3   OH219455   7.949   7.063   4.221
 6505TIP3    H119456   7.980   7.078   4.131
 6505TIP3    H219457   7.983   6.976   4.243
 6506TIP3   OH219458   5.568   5.581   1.267
 6506TIP3    H119459   5.637   5.570   1.201
 6506TIP3    H219460   5.616   5.596   1.348
 6507TIP3   OH219461   1.556   4.573   3.123
 6507TIP3    H119462   1.479   4.517   3.133
 6507TIP3    H219463   1.622   4.516   3.083
 6508TIP3   OH219464   2.876   0.813   0.030
 6508TIP3    H119465   2.817   0.869  -0.020
 6508TIP3    H219466   2.860   0.836   0.121
 6509TIP3   OH219467   7.300   1.356   5.903
 6509TIP3    H119468   7.228   1.415   5.881
 6509TIP3    H219469   7.348   1.344   5.821
 6510TIP3   OH219470   7.049   6.731   6.093
 6510TIP3    H119471   6.976   6.774   6.139
 6510TIP3    H219472   7.117   6.721   6.160
 6511TIP3   OH219473   2.060   7.777   0.685
 6511TIP3    H119474   2.051   7.787   0.590
 6511TIP3    H219475   2.055   7.683   0.700
 6512TIP3   OH219476   0.470   2.624   6.213
 6512TIP3    H119477   0.536   2.679   6.171
 6512TIP3    H219478   0.388   2.645   6.168
 6513TIP3   OH219479   1.362   2.097   4.677
 6513TIP3    H119480   1.302   2.171   4.692
 6513TIP3    H219481   1.410   2.088   4.759
 6514TIP3   OH219482   5.521   0.654   1.213
 6514TIP3    H119483   5.562   0.602   1.283
 6514TIP3    H219484   5.466   0.717   1.259
 6515TIP3   OH219485   7.266   2.699   5.296
 6515TIP3    H119486   7.350   2.664   5.324
 6515TIP3    H219487   7.273   2.705   5.201
 6516TIP3   OH219488   5.529   3.306   1.252
 6516TIP3    H119489   5.519   3.236   1.316
 6516TIP3    H219490   5.600   3.360   1.287
 6517TIP3   OH219491   4.242   6.998   0.052
 6517TIP3    H119492   4.189   6.999   0.131
 6517TIP3    H219493   4.213   6.920   0.005
 6518TIP3   OH219494   7.819   0.886   2.085
 6518TIP3    H119495   7.891   0.928   2.039
 6518TIP3    H219496   7.829   0.793   2.065
 6519TIP3   OH219497   0.189   3.444   2.381
 6519TIP3    H119498   0.168   3.506   2.451
 6519TIP3    H219499   0.282   3.426   2.392
 6520TIP3   OH219500   5.245   0.457   0.620
 6520TIP3    H119501   5.207   0.388   0.565
 6520TIP3    H219502   5.222   0.432   0.709
 6521TIP3   OH219503   1.471   7.417   4.093
 6521TIP3    H119504   1.544   7.404   4.032
 6521TIP3    H219505   1.410   7.472   4.045
 6522TIP3   OH219506   4.744   5.955   5.348
 6522TIP3    H119507   4.811   5.972   5.414
 6522TIP3    H219508   4.683   5.895   5.391
 6523TIP3   OH219509   1.565   6.357   3.198
 6523TIP3    H119510   1.515   6.376   3.278
 6523TIP3    H219511   1.512   6.392   3.127
 6524TIP3   OH219512   2.451   0.416   2.472
 6524TIP3    H119513   2.482   0.344   2.526
 6524TIP3    H219514   2.362   0.432   2.502
 6525TIP3   OH219515   5.715   7.400   1.125
 6525TIP3    H119516   5.675   7.474   1.080
 6525TIP3    H219517   5.646   7.334   1.129
 6526TIP3   OH219518   3.608   3.200   1.594
 6526TIP3    H119519   3.694   3.187   1.633
 6526TIP3    H219520   3.548   3.155   1.654
 6527TIP3   OH219521   6.179   1.719   1.349
 6527TIP3    H119522   6.178   1.660   1.274
 6527TIP3    H219523   6.087   1.742   1.363
 6528TIP3   OH219524   7.846   6.793   0.680
 6528TIP3    H119525   7.874   6.810   0.590
 6528TIP3    H219526   7.764   6.744   0.670
 6529TIP3   OH219527   5.314   4.234   2.867
 6529TIP3    H119528   5.332   4.297   2.797
 6529TIP3    H219529   5.353   4.274   2.945
 6530TIP3   OH219530   2.838   0.014   3.664
 6530TIP3    H119531   2.756   0.064   3.662
 6530TIP3    H219532   2.867   0.015   3.573
 6531TIP3   OH219533   2.169   0.807   3.677
 6531TIP3    H119534   2.220   0.782   3.600
 6531TIP3    H219535   2.111   0.877   3.646
 6532TIP3   OH219536   7.618   3.807   0.569
 6532TIP3    H119537   7.639   3.793   0.476
 6532TIP3    H219538   7.638   3.723   0.611
 6533TIP3   OH219539   4.986   7.241   3.510
 6533TIP3    H119540   4.904   7.278   3.475
 6533TIP3    H219541   5.025   7.196   3.435
 6534TIP3   OH219542   5.204   1.314   5.220
 6534TIP3    H119543   5.213   1.402   5.183
 6534TIP3    H219544   5.164   1.263   5.149
 6535TIP3   OH219545   5.788   3.924   6.190
 6535TIP3    H119546   5.842   3.846   6.200
 6535TIP3    H219547   5.842   3.984   6.139
 6536TIP3   OH219548   8.254   6.693   2.902
 6536TIP3    H119549   8.256   6.602   2.875
 6536TIP3    H219550   8.164   6.708   2.931
 6537TIP3   OH219551   1.827   6.262   5.924
 6537TIP3    H119552   1.811   6.355   5.904
 6537TIP3    H219553   1.827   6.219   5.839
 6538TIP3   OH219554   5.341   7.109   5.872
 6538TIP3    H119555   5.328   7.192   5.919
 6538TIP3    H219556   5.350   7.135   5.780
 6539TIP3   OH219557   7.786   4.336   5.603
 6539TIP3    H119558   7.845   4.397   5.646
 6539TIP3    H219559   7.729   4.304   5.673
 6540TIP3   OH219560   6.557   2.406   3.584
 6540TIP3    H119561   6.504   2.401   3.504
 6540TIP3    H219562   6.642   2.438   3.554
 6541TIP3   OH219563   6.860   5.978   1.678
 6541TIP3    H119564   6.780   5.988   1.628
 6541TIP3    H219565   6.851   6.040   1.751
 6542TIP3   OH219566   4.927   5.585   3.001
 6542TIP3    H119567   4.907   5.532   3.078
 6542TIP3    H219568   4.978   5.658   3.034
 6543TIP3   OH219569   1.067   7.663   1.337
 6543TIP3    H119570   0.974   7.682   1.349
 6543TIP3    H219571   1.069   7.603   1.263
 6544TIP3   OH219572   5.724   3.276   3.858
 6544TIP3    H119573   5.795   3.341   3.859
 6544TIP3    H219574   5.692   3.276   3.768
 6545TIP3   OH219575   7.950   4.098   0.405
 6545TIP3    H119576   7.869   4.104   0.455
 6545TIP3    H219577   7.947   4.173   0.345
 6546TIP3   OH219578   2.286   4.455   3.353
 6546TIP3    H119579   2.254   4.498   3.432
 6546TIP3    H219580   2.259   4.364   3.363
 6547TIP3   OH219581   4.668   4.369   6.272
 6547TIP3    H119582   4.608   4.424   6.221
 6547TIP3    H219583   4.632   4.281   6.266
 6548TIP3   OH219584   1.107   7.497   2.923
 6548TIP3    H119585   1.063   7.475   3.006
 6548TIP3    H219586   1.191   7.452   2.928
 6549TIP3   OH219587   4.344   1.900   1.332
 6549TIP3    H119588   4.329   1.880   1.425
 6549TIP3    H219589   4.263   1.941   1.303
 6550TIP3   OH219590   6.339   5.848   4.358
 6550TIP3    H119591   6.394   5.871   4.283
 6550TIP3    H219592   6.277   5.784   4.323
 6551TIP3   OH219593   2.482   5.116   1.444
 6551TIP3    H119594   2.518   5.029   1.461
 6551TIP3    H219595   2.504   5.167   1.523
 6552TIP3   OH219596   3.209   6.411   2.478
 6552TIP3    H119597   3.224   6.421   2.572
 6552TIP3    H219598   3.184   6.498   2.448
 6553TIP3   OH219599   6.710   4.578   0.296
 6553TIP3    H119600   6.668   4.596   0.212
 6553TIP3    H219601   6.682   4.650   0.353
 6554TIP3   OH219602   0.777   3.142   5.821
 6554TIP3    H119603   0.733   3.200   5.883
 6554TIP3    H219604   0.845   3.195   5.780
 6555TIP3   OH219605   5.893   4.972   4.526
 6555TIP3    H119606   5.978   4.934   4.503
 6555TIP3    H219607   5.895   4.981   4.621
 6556TIP3   OH219608   3.405   0.486   3.231
 6556TIP3    H119609   3.438   0.576   3.237
 6556TIP3    H219610   3.470   0.433   3.278
 6557TIP3   OH219611   4.746   5.213   3.335
 6557TIP3    H119612   4.724   5.121   3.324
 6557TIP3    H219613   4.776   5.220   3.425
 6558TIP3   OH219614   0.214   1.362   0.873
 6558TIP3    H119615   0.219   1.424   0.945
 6558TIP3    H219616   0.190   1.279   0.914
 6559TIP3   OH219617   1.529   1.074   1.278
 6559TIP3    H119618   1.618   1.049   1.300
 6559TIP3    H219619   1.525   1.168   1.295
 6560TIP3   OH219620   6.762   6.272   2.446
 6560TIP3    H119621   6.759   6.367   2.439
 6560TIP3    H219622   6.671   6.246   2.459
 6561TIP3   OH219623   6.217   2.137   6.857
 6561TIP3    H119624   6.210   2.150   6.763
 6561TIP3    H219625   6.139   2.086   6.880
 6562TIP3   OH219626   4.220   6.573   5.934
 6562TIP3    H119627   4.303   6.620   5.932
 6562TIP3    H219628   4.180   6.593   5.849
 6563TIP3   OH219629   3.902   4.518   0.488
 6563TIP3    H119630   3.972   4.566   0.443
 6563TIP3    H219631   3.863   4.582   0.547
 6564TIP3   OH219632   2.428   6.860   3.308
 6564TIP3    H119633   2.418   6.883   3.216
 6564TIP3    H219634   2.507   6.805   3.311
 6565TIP3   OH219635   3.457   4.443   0.754
 6565TIP3    H119636   3.543   4.407   0.774
 6565TIP3    H219637   3.401   4.414   0.826
 6566TIP3   OH219638   7.591   5.040   3.209
 6566TIP3    H119639   7.556   5.080   3.290
 6566TIP3    H219640   7.516   4.993   3.172
 6567TIP3   OH219641   8.110   1.636   4.362
 6567TIP3    H119642   8.111   1.696   4.287
 6567TIP3    H219643   8.188   1.582   4.349
 6568TIP3   OH219644   3.215   0.372   0.812
 6568TIP3    H119645   3.279   0.439   0.835
 6568TIP3    H219646   3.262   0.315   0.751
 6569TIP3   OH219647   7.382   6.766   3.918
 6569TIP3    H119648   7.470   6.797   3.897
 6569TIP3    H219649   7.371   6.787   4.011
 6570TIP3   OH219650   6.930   7.815   3.061
 6570TIP3    H119651   6.903   7.788   2.973
 6570TIP3    H219652   6.968   7.902   3.049
 6571TIP3   OH219653   0.083   7.819   5.088
 6571TIP3    H119654   0.098   7.768   5.009
 6571TIP3    H219655   0.148   7.787   5.150
 6572TIP3   OH219656   7.570   2.944   1.795
 6572TIP3    H119657   7.601   2.857   1.768
 6572TIP3    H219658   7.475   2.940   1.783
 6573TIP3   OH219659   1.556   4.570   4.171
 6573TIP3    H119660   1.512   4.562   4.256
 6573TIP3    H219661   1.609   4.649   4.179
 6574TIP3   OH219662   3.152   2.519   0.516
 6574TIP3    H119663   3.145   2.593   0.577
 6574TIP3    H219664   3.073   2.468   0.532
 6575TIP3   OH219665   3.890   1.590   2.183
 6575TIP3    H119666   3.882   1.597   2.088
 6575TIP3    H219667   3.825   1.525   2.208
 6576TIP3   OH219668   4.997   2.944   4.307
 6576TIP3    H119669   4.960   2.860   4.333
 6576TIP3    H219670   5.089   2.924   4.286
 6577TIP3   OH219671   0.389   7.013   0.957
 6577TIP3    H119672   0.342   7.095   0.942
 6577TIP3    H219673   0.481   7.035   0.939
 6578TIP3   OH219674   4.947   3.629   3.413
 6578TIP3    H119675   5.029   3.658   3.374
 6578TIP3    H219676   4.918   3.704   3.465
 6579TIP3   OH219677   4.194   5.907   1.159
 6579TIP3    H119678   4.157   5.949   1.238
 6579TIP3    H219679   4.128   5.922   1.091
 6580TIP3   OH219680   3.224   0.373   2.596
 6580TIP3    H119681   3.171   0.407   2.523
 6580TIP3    H219682   3.185   0.413   2.674
 6581TIP3   OH219683   0.589   7.749   2.455
 6581TIP3    H119684   0.665   7.692   2.467
 6581TIP3    H219685   0.562   7.734   2.364
 6582TIP3   OH219686   2.803   1.195   5.315
 6582TIP3    H119687   2.799   1.173   5.408
 6582TIP3    H219688   2.786   1.112   5.270
 6583TIP3   OH219689   7.842   6.844   3.608
 6583TIP3    H119690   7.872   6.854   3.698
 6583TIP3    H219691   7.814   6.932   3.582
 6584TIP3   OH219692   6.235   2.339   3.252
 6584TIP3    H119693   6.159   2.320   3.197
 6584TIP3    H219694   6.200   2.396   3.321
 6585TIP3   OH219695   4.560   6.257   5.570
 6585TIP3    H119696   4.614   6.235   5.646
 6585TIP3    H219697   4.480   6.294   5.606
 6586TIP3   OH219698   7.566   7.789   4.891
 6586TIP3    H119699   7.558   7.884   4.894
 6586TIP3    H219700   7.651   7.773   4.849
 6587TIP3   OH219701   6.360   1.469   3.202
 6587TIP3    H119702   6.282   1.468   3.259
 6587TIP3    H219703   6.434   1.464   3.263
 6588TIP3   OH219704   1.691   2.245   3.262
 6588TIP3    H119705   1.733   2.230   3.347
 6588TIP3    H219706   1.764   2.260   3.201
 6589TIP3   OH219707   4.071   1.819   2.740
 6589TIP3    H119708   4.125   1.893   2.767
 6589TIP3    H219709   4.011   1.804   2.813
 6590TIP3   OH219710   5.694   5.496   0.697
 6590TIP3    H119711   5.612   5.500   0.746
 6590TIP3    H219712   5.709   5.586   0.668
 6591TIP3   OH219713   6.935   4.898   1.279
 6591TIP3    H119714   6.855   4.914   1.329
 6591TIP3    H219715   6.980   4.829   1.328
 6592TIP3   OH219716   1.202   2.443   4.334
 6592TIP3    H119717   1.188   2.497   4.256
 6592TIP3    H219718   1.280   2.480   4.375
 6593TIP3   OH219719   6.067   4.755   3.331
 6593TIP3    H119720   6.156   4.766   3.364
 6593TIP3    H219721   6.077   4.760   3.236
 6594TIP3   OH219722   7.002   1.281   4.345
 6594TIP3    H119723   7.080   1.246   4.387
 6594TIP3    H219724   6.964   1.341   4.410
 6595TIP3   OH219725   1.542   6.908   0.063
 6595TIP3    H119726   1.447   6.908   0.054
 6595TIP3    H219727   1.575   6.907  -0.027
 6596TIP3   OH219728   1.939   5.935   1.046
 6596TIP3    H119729   1.870   5.908   1.107
 6596TIP3    H219730   2.005   5.977   1.101
 6597TIP3   OH219731   4.768   2.814   3.660
 6597TIP3    H119732   4.778   2.865   3.580
 6597TIP3    H219733   4.782   2.723   3.633
 6598TIP3   OH219734   6.473   5.425   0.897
 6598TIP3    H119735   6.396   5.399   0.947
 6598TIP3    H219736   6.449   5.507   0.854
 6599TIP3   OH219737   4.461   6.796   3.417
 6599TIP3    H119738   4.473   6.710   3.377
 6599TIP3    H219739   4.366   6.802   3.431
 6600TIP3   OH219740   4.413   7.773   5.601
 6600TIP3    H119741   4.495   7.782   5.650
 6600TIP3    H219742   4.439   7.744   5.514
 6601TIP3   OH219743   3.799   4.921   0.519
 6601TIP3    H119744   3.768   4.946   0.432
 6601TIP3    H219745   3.736   4.960   0.579
 6602TIP3   OH219746   0.773   3.491   3.332
 6602TIP3    H119747   0.759   3.564   3.272
 6602TIP3    H219748   0.725   3.418   3.292
 6603TIP3   OH219749   0.394   1.206   5.032
 6603TIP3    H119750   0.364   1.116   5.030
 6603TIP3    H219751   0.474   1.206   4.980
 6604TIP3   OH219752   6.117   5.142   0.246
 6604TIP3    H119753   6.189   5.179   0.194
 6604TIP3    H219754   6.154   5.063   0.284
 6605TIP3   OH219755   2.541   2.583   0.789
 6605TIP3    H119756   2.577   2.653   0.735
 6605TIP3    H219757   2.598   2.582   0.866
 6606TIP3   OH219758   5.144   7.785   0.639
 6606TIP3    H119759   5.128   7.797   0.546
 6606TIP3    H219760   5.142   7.873   0.676
 6607TIP3   OH219761   5.046   5.292   2.902
 6607TIP3    H119762   5.002   5.331   2.977
 6607TIP3    H219763   5.099   5.363   2.866
 6608TIP3   OH219764   3.152   3.016   6.103
 6608TIP3    H119765   3.229   3.071   6.086
 6608TIP3    H219766   3.165   2.983   6.191
 6609TIP3   OH219767   1.935   6.424   2.070
 6609TIP3    H119768   1.917   6.358   2.002
 6609TIP3    H219769   1.920   6.378   2.152
 6610TIP3   OH219770   7.757   7.391   5.908
 6610TIP3    H119771   7.746   7.343   5.990
 6610TIP3    H219772   7.670   7.428   5.890
 6611TIP3   OH219773   3.051   6.335   4.342
 6611TIP3    H119774   3.079   6.305   4.256
 6611TIP3    H219775   3.110   6.292   4.404
 6612TIP3   OH219776   3.764   5.816   2.244
 6612TIP3    H119777   3.762   5.737   2.297
 6612TIP3    H219778   3.832   5.800   2.179
 6613TIP3   OH219779   7.265   1.848   5.631
 6613TIP3    H119780   7.203   1.866   5.702
 6613TIP3    H219781   7.328   1.920   5.635
 6614TIP3   OH219782   4.815   2.581   2.470
 6614TIP3    H119783   4.903   2.604   2.502
 6614TIP3    H219784   4.813   2.617   2.381
 6615TIP3   OH219785   6.657   6.563   5.674
 6615TIP3    H119786   6.686   6.576   5.764
 6615TIP3    H219787   6.621   6.475   5.672
 6616TIP3   OH219788   4.837   7.869   2.916
 6616TIP3    H119789   4.840   7.882   3.011
 6616TIP3    H219790   4.825   7.775   2.905
 6617TIP3   OH219791   6.353   6.463   3.021
 6617TIP3    H119792   6.445   6.451   3.043
 6617TIP3    H219793   6.309   6.468   3.106
 6618TIP3   OH219794   1.028   3.540   4.779
 6618TIP3    H119795   1.010   3.452   4.746
 6618TIP3    H219796   1.124   3.545   4.782
 6619TIP3   OH219797   5.370   1.690   6.803
 6619TIP3    H119798   5.281   1.656   6.805
 6619TIP3    H219799   5.412   1.653   6.881
 6620TIP3   OH219800   5.635   7.916   1.089
 6620TIP3    H119801   5.581   7.837   1.095
 6620TIP3    H219802   5.681   7.921   1.174
 6621TIP3   OH219803   3.550   1.247   1.062
 6621TIP3    H119804   3.607   1.175   1.090
 6621TIP3    H219805   3.463   1.208   1.058
 6622TIP3   OH219806   2.318   3.874   1.383
 6622TIP3    H119807   2.354   3.814   1.449
 6622TIP3    H219808   2.223   3.867   1.394
 6623TIP3   OH219809   3.055   6.829   0.407
 6623TIP3    H119810   2.989   6.815   0.340
 6623TIP3    H219811   3.020   6.786   0.485
 6624TIP3   OH219812   6.441   5.006   5.530
 6624TIP3    H119813   6.402   5.091   5.512
 6624TIP3    H219814   6.525   5.027   5.572
 6625TIP3   OH219815   3.124   1.309   3.139
 6625TIP3    H119816   3.152   1.320   3.230
 6625TIP3    H219817   3.107   1.215   3.131
 6626TIP3   OH219818   5.805   6.554   3.648
 6626TIP3    H119819   5.803   6.622   3.715
 6626TIP3    H219820   5.881   6.501   3.670
 6627TIP3   OH219821   0.836   4.219   2.663
 6627TIP3    H119822   0.853   4.196   2.755
 6627TIP3    H219823   0.812   4.136   2.622
 6628TIP3   OH219824   0.593   1.200   4.083
 6628TIP3    H119825   0.586   1.107   4.061
 6628TIP3    H219826   0.554   1.207   4.170
 6629TIP3   OH219827   6.565   2.046   3.234
 6629TIP3    H119828   6.535   2.124   3.281
 6629TIP3    H219829   6.623   2.001   3.295
 6630TIP3   OH219830   7.574   4.430   0.974
 6630TIP3    H119831   7.588   4.494   0.905
 6630TIP3    H219832   7.661   4.392   0.990
 6631TIP3   OH219833   7.409   7.882   3.932
 6631TIP3    H119834   7.410   7.798   3.886
 6631TIP3    H219835   7.447   7.944   3.870
 6632TIP3   OH219836   1.310   6.171   0.831
 6632TIP3    H119837   1.340   6.244   0.884
 6632TIP3    H219838   1.268   6.212   0.755
 6633TIP3   OH219839   1.608   3.772   6.130
 6633TIP3    H119840   1.544   3.702   6.122
 6633TIP3    H219841   1.690   3.734   6.100
 6634TIP3   OH219842   4.230   0.846   0.933
 6634TIP3    H119843   4.159   0.813   0.878
 6634TIP3    H219844   4.187   0.896   1.001
 6635TIP3   OH219845   2.358   4.565   3.986
 6635TIP3    H119846   2.435   4.511   4.006
 6635TIP3    H219847   2.340   4.611   4.068
 6636TIP3   OH219848   6.913   4.806   6.388
 6636TIP3    H119849   6.857   4.793   6.311
 6636TIP3    H219850   6.862   4.864   6.444
 6637TIP3   OH219851   5.301   1.960   2.110
 6637TIP3    H119852   5.277   2.027   2.045
 6637TIP3    H219853   5.227   1.899   2.109
 6638TIP3   OH219854   7.561   3.410   6.156
 6638TIP3    H119855   7.580   3.475   6.223
 6638TIP3    H219856   7.641   3.407   6.102
 6639TIP3   OH219857   6.896   4.490   4.687
 6639TIP3    H119858   6.919   4.568   4.636
 6639TIP3    H219859   6.855   4.431   4.624
 6640TIP3   OH219860   3.234   7.601   4.195
 6640TIP3    H119861   3.300   7.599   4.264
 6640TIP3    H219862   3.258   7.675   4.140
 6641TIP3   OH219863   1.874   1.173   2.429
 6641TIP3    H119864   1.927   1.104   2.469
 6641TIP3    H219865   1.846   1.227   2.503
 6642TIP3   OH219866   0.411   3.793   6.078
 6642TIP3    H119867   0.362   3.764   6.001
 6642TIP3    H219868   0.350   3.848   6.126
 6643TIP3   OH219869   5.026   2.696   0.879
 6643TIP3    H119870   5.045   2.693   0.785
 6643TIP3    H219871   5.001   2.606   0.902
 6644TIP3   OH219872   1.655   0.381   3.765
 6644TIP3    H119873   1.598   0.457   3.767
 6644TIP3    H219874   1.686   0.376   3.674
 6645TIP3   OH219875   0.950   4.944   3.859
 6645TIP3    H119876   0.911   4.927   3.945
 6645TIP3    H219877   0.900   5.018   3.825
 6646TIP3   OH219878   1.324   3.712   5.121
 6646TIP3    H119879   1.384   3.645   5.154
 6646TIP3    H219880   1.241   3.667   5.109
 6647TIP3   OH219881   1.898   1.407   1.100
 6647TIP3    H119882   1.872   1.316   1.116
 6647TIP3    H219883   1.816   1.456   1.108
 6648TIP3   OH219884   3.862   3.938   1.324
 6648TIP3    H119885   3.808   4.007   1.285
 6648TIP3    H219886   3.876   3.966   1.414
 6649TIP3   OH219887   7.911   5.861   4.848
 6649TIP3    H119888   7.976   5.848   4.917
 6649TIP3    H219889   7.860   5.780   4.847
 6650TIP3   OH219890   6.949   7.644   5.585
 6650TIP3    H119891   6.911   7.729   5.608
 6650TIP3    H219892   7.042   7.652   5.607
 6651TIP3   OH219893   4.723   7.168   0.153
 6651TIP3    H119894   4.639   7.135   0.185
 6651TIP3    H219895   4.782   7.093   0.157
 6652TIP3   OH219896   0.514   6.114   3.052
 6652TIP3    H119897   0.588   6.171   3.031
 6652TIP3    H219898   0.469   6.159   3.123
 6653TIP3   OH219899   5.119   2.647   0.619
 6653TIP3    H119900   5.055   2.598   0.566
 6653TIP3    H219901   5.177   2.580   0.654
 6654TIP3   OH219902   1.189   0.226   4.248
 6654TIP3    H119903   1.153   0.273   4.324
 6654TIP3    H219904   1.206   0.138   4.281
 6655TIP3   OH219905   0.375   3.783   1.144
 6655TIP3    H119906   0.414   3.752   1.063
 6655TIP3    H219907   0.449   3.809   1.199
 6656TIP3   OH219908   6.758   7.227   5.020
 6656TIP3    H119909   6.683   7.227   5.078
 6656TIP3    H219910   6.829   7.267   5.072
 6657TIP3   OH219911   7.328   1.235   1.697
 6657TIP3    H119912   7.354   1.285   1.620
 6657TIP3    H219913   7.247   1.276   1.726
 6658TIP3   OH219914   1.207   1.392   2.772
 6658TIP3    H119915   1.279   1.364   2.715
 6658TIP3    H219916   1.250   1.422   2.852
 6659TIP3   OH219917   1.323   7.746   0.248
 6659TIP3    H119918   1.401   7.697   0.222
 6659TIP3    H219919   1.261   7.679   0.276
 6660TIP3   OH219920   5.920   0.255   2.450
 6660TIP3    H119921   6.010   0.223   2.455
 6660TIP3    H219922   5.918   0.332   2.506
 6661TIP3   OH219923   5.178   6.611   6.482
 6661TIP3    H119924   5.098   6.561   6.466
 6661TIP3    H219925   5.248   6.546   6.476
 6662TIP3   OH219926   2.608   6.901   0.930
 6662TIP3    H119927   2.543   6.916   0.862
 6662TIP3    H219928   2.595   6.810   0.957
 6663TIP3   OH219929   7.451   5.728   3.422
 6663TIP3    H119930   7.368   5.747   3.467
 6663TIP3    H219931   7.438   5.763   3.333
 6664TIP3   OH219932   5.587   2.330   3.868
 6664TIP3    H119933   5.644   2.371   3.803
 6664TIP3    H219934   5.644   2.271   3.917
 6665TIP3   OH219935   1.864   3.763   2.497
 6665TIP3    H119936   1.945   3.802   2.466
 6665TIP3    H219937   1.877   3.669   2.486
 6666TIP3   OH219938   4.850   7.828   2.567
 6666TIP3    H119939   4.930   7.822   2.514
 6666TIP3    H219940   4.859   7.911   2.615
 6667TIP3   OH219941   3.256   6.737   5.093
 6667TIP3    H119942   3.283   6.763   5.005
 6667TIP3    H219943   3.266   6.642   5.095
 6668TIP3   OH219944   3.856   0.577   6.011
 6668TIP3    H119945   3.900   0.632   5.945
 6668TIP3    H219946   3.842   0.635   6.085
 6669TIP3   OH219947   3.738   3.931   4.262
 6669TIP3    H119948   3.748   3.853   4.316
 6669TIP3    H219949   3.647   3.958   4.275
 6670TIP3   OH219950   7.114   3.248   1.051
 6670TIP3    H119951   7.209   3.258   1.057
 6670TIP3    H219952   7.084   3.244   1.142
 6671TIP3   OH219953   1.673   6.399   5.400
 6671TIP3    H119954   1.669   6.426   5.492
 6671TIP3    H219955   1.582   6.393   5.373
 6672TIP3   OH219956   4.795   0.087   6.492
 6672TIP3    H119957   4.700   0.096   6.492
 6672TIP3    H219958   4.818   0.071   6.583
 6673TIP3   OH219959   1.471   4.795   1.927
 6673TIP3    H119960   1.391   4.770   1.973
 6673TIP3    H219961   1.440   4.819   1.839
 6674TIP3   OH219962   3.076   6.725   6.098
 6674TIP3    H119963   3.076   6.790   6.168
 6674TIP3    H219964   3.110   6.645   6.139
 6675TIP3   OH219965   6.553   1.343   3.939
 6675TIP3    H119966   6.470   1.343   3.987
 6675TIP3    H219967   6.614   1.299   3.998
 6676TIP3   OH219968   8.245   0.561   3.328
 6676TIP3    H119969   8.328   0.603   3.303
 6676TIP3    H219970   8.178   0.626   3.308
 6677TIP3   OH219971   3.208   6.948   0.596
 6677TIP3    H119972   3.258   6.868   0.613
 6677TIP3    H219973   3.153   6.927   0.522
 6678TIP3   OH219974   5.734   0.377   1.052
 6678TIP3    H119975   5.748   0.456   0.999
 6678TIP3    H219976   5.666   0.329   1.007
 6679TIP3   OH219977   4.314   6.988   5.385
 6679TIP3    H119978   4.331   7.054   5.452
 6679TIP3    H219979   4.268   7.036   5.316
 6680TIP3   OH219980   1.854   6.803   3.118
 6680TIP3    H119981   1.933   6.856   3.114
 6680TIP3    H219982   1.844   6.780   3.211
 6681TIP3   OH219983   4.212   3.188   3.404
 6681TIP3    H119984   4.277   3.183   3.334
 6681TIP3    H219985   4.259   3.161   3.482
 6682TIP3   OH219986   3.253   5.758   2.569
 6682TIP3    H119987   3.347   5.746   2.584
 6682TIP3    H219988   3.245   5.845   2.530
 6683TIP3   OH219989   7.121   4.234   5.591
 6683TIP3    H119990   7.034   4.255   5.557
 6683TIP3    H219991   7.121   4.272   5.679
 6684TIP3   OH219992   7.239   5.986   6.228
 6684TIP3    H119993   7.177   5.914   6.237
 6684TIP3    H219994   7.187   6.065   6.241
 6685TIP3   OH219995   1.739   3.133   3.422
 6685TIP3    H119996   1.802   3.107   3.355
 6685TIP3    H219997   1.661   3.083   3.402
 6686TIP3   OH219998   2.108   0.138   1.092
 6686TIP3    H119999   2.060   0.059   1.116
 6686TIP3    H220000   2.200   0.111   1.093
 6687TIP3   OH220001   5.967   7.531   1.412
 6687TIP3    H120002   6.003   7.533   1.323
 6687TIP3    H220003   5.881   7.572   1.405
 6688TIP3   OH220004   6.031   6.594   6.293
 6688TIP3    H120005   6.114   6.601   6.341
 6688TIP3    H220006   6.030   6.669   6.235
 6689TIP3   OH220007   5.382   5.298   1.722
 6689TIP3    H120008   5.390   5.211   1.761
 6689TIP3    H220009   5.367   5.356   1.796
 6690TIP3   OH220010   6.733   0.162   0.530
 6690TIP3    H120011   6.686   0.220   0.589
 6690TIP3    H220012   6.718   0.200   0.443
 6691TIP3   OH220013   7.209   5.242   5.892
 6691TIP3    H120014   7.134   5.277   5.844
 6691TIP3    H220015   7.246   5.175   5.834
 6692TIP3   OH220016   4.440   5.924   5.701
 6692TIP3    H120017   4.511   5.896   5.643
 6692TIP3    H220018   4.389   5.986   5.649
 6693TIP3   OH220019   3.376   6.824   4.854
 6693TIP3    H120020   3.388   6.802   4.762
 6693TIP3    H220021   3.310   6.894   4.854
 6694TIP3   OH220022   3.929   3.081   4.260
 6694TIP3    H120023   3.995   3.015   4.240
 6694TIP3    H220024   3.976   3.148   4.309
 6695TIP3   OH220025   4.660   4.564   2.889
 6695TIP3    H120026   4.645   4.471   2.876
 6695TIP3    H220027   4.576   4.605   2.873
 6696TIP3   OH220028   5.845   0.960   6.649
 6696TIP3    H120029   5.837   0.996   6.737
 6696TIP3    H220030   5.892   1.027   6.599
 6697TIP3   OH220031   1.257   7.399   2.454
 6697TIP3    H120032   1.179   7.405   2.509
 6697TIP3    H220033   1.224   7.404   2.364
 6698TIP3   OH220034   0.104   6.812   0.961
 6698TIP3    H120035   0.091   6.735   0.905
 6698TIP3    H220036   0.185   6.793   1.008
 6699TIP3   OH220037   0.601   1.569   3.190
 6699TIP3    H120038   0.677   1.530   3.146
 6699TIP3    H220039   0.632   1.654   3.221
 6700TIP3   OH220040   2.512   0.577   4.177
 6700TIP3    H120041   2.440   0.518   4.199
 6700TIP3    H220042   2.591   0.524   4.185
 6701TIP3   OH220043   1.858   1.726   0.128
 6701TIP3    H120044   1.809   1.660   0.176
 6701TIP3    H220045   1.840   1.708   0.036
 6702TIP3   OH220046   2.268   1.798   3.644
 6702TIP3    H120047   2.308   1.843   3.569
 6702TIP3    H220048   2.197   1.747   3.607
 6703TIP3   OH220049   2.563   6.349   4.517
 6703TIP3    H120050   2.570   6.397   4.599
 6703TIP3    H220051   2.639   6.291   4.516
 6704TIP3   OH220052   8.211   7.323   3.763
 6704TIP3    H120053   8.252   7.249   3.717
 6704TIP3    H220054   8.118   7.311   3.747
 6705TIP3   OH220055   0.271   4.903   0.503
 6705TIP3    H120056   0.219   4.862   0.572
 6705TIP3    H220057   0.361   4.876   0.521
 6706TIP3   OH220058   6.350   2.727   6.799
 6706TIP3    H120059   6.380   2.636   6.809
 6706TIP3    H220060   6.284   2.722   6.730
 6707TIP3   OH220061   6.033   2.904   5.909
 6707TIP3    H120062   6.070   2.872   5.992
 6707TIP3    H220063   5.941   2.876   5.912
 6708TIP3   OH220064   5.774   4.063   0.229
 6708TIP3    H120065   5.733   3.988   0.272
 6708TIP3    H220066   5.776   4.131   0.296
 6709TIP3   OH220067   4.847   2.710   4.194
 6709TIP3    H120068   4.790   2.787   4.193
 6709TIP3    H220069   4.819   2.661   4.271
 6710TIP3   OH220070   1.074   7.089   6.845
 6710TIP3    H120071   1.125   7.161   6.810
 6710TIP3    H220072   1.030   7.126   6.922
 6711TIP3   OH220073   7.206   3.667   0.635
 6711TIP3    H120074   7.138   3.704   0.692
 6711TIP3    H220075   7.160   3.603   0.580
 6712TIP3   OH220076   3.817   6.402   3.921
 6712TIP3    H120077   3.890   6.361   3.875
 6712TIP3    H220078   3.781   6.465   3.858
 6713TIP3   OH220079   3.999   0.362   1.291
 6713TIP3    H120080   4.062   0.407   1.348
 6713TIP3    H220081   4.051   0.328   1.219
 6714TIP3   OH220082   2.906   7.604   6.455
 6714TIP3    H120083   2.900   7.697   6.476
 6714TIP3    H220084   2.984   7.596   6.401
 6715TIP3   OH220085   1.793   6.846   3.869
 6715TIP3    H120086   1.858   6.872   3.803
 6715TIP3    H220087   1.793   6.750   3.866
 6716TIP3   OH220088   0.391   6.553   3.968
 6716TIP3    H120089   0.417   6.539   4.059
 6716TIP3    H220090   0.356   6.468   3.940
 6717TIP3   OH220091   2.675   5.385   6.206
 6717TIP3    H120092   2.626   5.460   6.171
 6717TIP3    H220093   2.765   5.418   6.215
 6718TIP3   OH220094   5.003   6.306   2.969
 6718TIP3    H120095   5.027   6.397   2.951
 6718TIP3    H220096   5.084   6.265   2.999
 6719TIP3   OH220097   1.498   3.580   2.998
 6719TIP3    H120098   1.521   3.495   3.035
 6719TIP3    H220099   1.415   3.603   3.040
 6720TIP3   OH220100   7.367   3.816   4.585
 6720TIP3    H120101   7.366   3.850   4.675
 6720TIP3    H220102   7.395   3.725   4.594
 6721TIP3   OH220103   3.144   4.939   3.237
 6721TIP3    H120104   3.178   4.903   3.320
 6721TIP3    H220105   3.072   4.996   3.264
 6722TIP3   OH220106   4.594   2.646   2.736
 6722TIP3    H120107   4.652   2.671   2.807
 6722TIP3    H220108   4.642   2.578   2.688
 6723TIP3   OH220109   0.054   6.965   1.606
 6723TIP3    H120110   0.052   6.948   1.700
 6723TIP3    H220111   0.096   6.888   1.568
 6724TIP3   OH220112   1.294   2.408   1.160
 6724TIP3    H120113   1.363   2.471   1.177
 6724TIP3    H220114   1.341   2.327   1.137
 6725TIP3   OH220115   1.370   0.178   1.908
 6725TIP3    H120116   1.384   0.084   1.915
 6725TIP3    H220117   1.323   0.201   1.988
 6726TIP3   OH220118   3.838   1.109   2.891
 6726TIP3    H120119   3.872   1.197   2.909
 6726TIP3    H220120   3.837   1.103   2.796
 6727TIP3   OH220121   4.514   1.908   3.861
 6727TIP3    H120122   4.477   1.922   3.948
 6727TIP3    H220123   4.608   1.918   3.872
 6728TIP3   OH220124   1.369   6.871   5.472
 6728TIP3    H120125   1.279   6.847   5.451
 6728TIP3    H220126   1.421   6.840   5.398
 6729TIP3   OH220127   5.493   6.353   0.036
 6729TIP3    H120128   5.443   6.364   0.117
 6729TIP3    H220129   5.452   6.412  -0.026
 6730TIP3   OH220130   6.889   5.454   1.284
 6730TIP3    H120131   6.836   5.485   1.357
 6730TIP3    H220132   6.834   5.465   1.207
 6731TIP3   OH220133   3.657   3.104   6.221
 6731TIP3    H120134   3.732   3.045   6.212
 6731TIP3    H220135   3.653   3.150   6.138
 6732TIP3   OH220136   6.401   7.757   4.421
 6732TIP3    H120137   6.386   7.815   4.347
 6732TIP3    H220138   6.384   7.812   4.498
 6733TIP3   OH220139   6.139   5.165   2.597
 6733TIP3    H120140   6.228   5.184   2.567
 6733TIP3    H220141   6.096   5.127   2.521
 6734TIP3   OH220142   0.149   6.585   0.351
 6734TIP3    H120143   0.054   6.579   0.363
 6734TIP3    H220144   0.160   6.611   0.259
 6735TIP3   OH220145   4.495   7.598   1.230
 6735TIP3    H120146   4.433   7.664   1.200
 6735TIP3    H220147   4.552   7.645   1.291
 6736TIP3   OH220148   3.419   1.232   3.951
 6736TIP3    H120149   3.423   1.325   3.927
 6736TIP3    H220150   3.454   1.229   4.040
 6737TIP3   OH220151   2.515   5.104   2.387
 6737TIP3    H120152   2.425   5.102   2.419
 6737TIP3    H220153   2.550   5.018   2.408
 6738TIP3   OH220154   6.873   2.240   5.457
 6738TIP3    H120155   6.945   2.298   5.482
 6738TIP3    H220156   6.892   2.215   5.366
 6739TIP3   OH220157   4.647   1.005   1.318
 6739TIP3    H120158   4.568   1.021   1.370
 6739TIP3    H220159   4.615   0.982   1.231
 6740TIP3   OH220160   6.447   4.199   2.882
 6740TIP3    H120161   6.537   4.177   2.855
 6740TIP3    H220162   6.440   4.293   2.865
 6741TIP3   OH220163   4.002   3.393   2.081
 6741TIP3    H120164   3.909   3.412   2.093
 6741TIP3    H220165   4.037   3.385   2.170
 6742TIP3   OH220166   0.112   3.589   5.091
 6742TIP3    H120167   0.026   3.632   5.099
 6742TIP3    H220168   0.095   3.510   5.040
 6743TIP3   OH220169   2.604   1.527   0.616
 6743TIP3    H120170   2.591   1.473   0.538
 6743TIP3    H220171   2.698   1.547   0.616
 6744TIP3   OH220172   0.067   6.085   5.756
 6744TIP3    H120173   0.076   6.147   5.684
 6744TIP3    H220174  -0.025   6.059   5.755
 6745TIP3   OH220175   6.216   0.925   5.449
 6745TIP3    H120176   6.296   0.912   5.500
 6745TIP3    H220177   6.147   0.930   5.515
 6746TIP3   OH220178   8.294   1.906   1.120
 6746TIP3    H120179   8.385   1.893   1.093
 6746TIP3    H220180   8.298   1.916   1.215
 6747TIP3   OH220181   6.840   3.337   3.403
 6747TIP3    H120182   6.840   3.280   3.480
 6747TIP3    H220183   6.774   3.404   3.423
 6748TIP3   OH220184   6.543   4.355   0.907
 6748TIP3    H120185   6.569   4.320   0.822
 6748TIP3    H220186   6.460   4.399   0.890
 6749TIP3   OH220187   7.152   2.452   2.044
 6749TIP3    H120188   7.136   2.445   2.138
 6749TIP3    H220189   7.066   2.474   2.007
 6750TIP3   OH220190   7.611   3.350   4.687
 6750TIP3    H120191   7.672   3.394   4.747
 6750TIP3    H220192   7.668   3.305   4.625
 6751TIP3   OH220193   2.665   5.458   0.255
 6751TIP3    H120194   2.647   5.541   0.210
 6751TIP3    H220195   2.590   5.446   0.314
 6752TIP3   OH220196   0.651   6.771   5.340
 6752TIP3    H120197   0.584   6.826   5.299
 6752TIP3    H220198   0.611   6.742   5.422
 6753TIP3   OH220199   4.262   7.847   4.306
 6753TIP3    H120200   4.307   7.867   4.388
 6753TIP3    H220201   4.229   7.758   4.317
 6754TIP3   OH220202   4.219   5.458   4.170
 6754TIP3    H120203   4.314   5.454   4.186
 6754TIP3    H220204   4.192   5.542   4.207
 6755TIP3   OH220205   1.953   5.727   6.819
 6755TIP3    H120206   1.914   5.663   6.759
 6755TIP3    H220207   1.878   5.767   6.863
 6756TIP3   OH220208   5.275   0.843   1.960
 6756TIP3    H120209   5.185   0.849   1.929
 6756TIP3    H220210   5.273   0.778   2.030
 6757TIP3   OH220211   6.917   6.002   3.161
 6757TIP3    H120212   6.860   5.927   3.178
 6757TIP3    H220213   6.918   6.009   3.065
 6758TIP3   OH220214   7.005   1.202   1.123
 6758TIP3    H120215   6.975   1.112   1.138
 6758TIP3    H220216   7.099   1.199   1.141
 6759TIP3   OH220217   3.790   6.063   0.386
 6759TIP3    H120218   3.731   6.020   0.448
 6759TIP3    H220219   3.849   5.993   0.357
 6760TIP3   OH220220   1.236   0.039   0.992
 6760TIP3    H120221   1.144   0.034   1.016
 6760TIP3    H220222   1.241   0.108   0.926
 6761TIP3   OH220223   1.839   4.123   6.837
 6761TIP3    H120224   1.922   4.095   6.875
 6761TIP3    H220225   1.825   4.064   6.764
 6762TIP3   OH220226   7.262   4.999   4.829
 6762TIP3    H120227   7.216   5.083   4.833
 6762TIP3    H220228   7.208   4.939   4.880
 6763TIP3   OH220229   8.035   6.801   4.229
 6763TIP3    H120230   8.021   6.726   4.172
 6763TIP3    H220231   8.106   6.775   4.287
 6764TIP3   OH220232   4.085   5.414   4.483
 6764TIP3    H120233   4.106   5.485   4.543
 6764TIP3    H220234   4.159   5.411   4.422
 6765TIP3   OH220235   5.466   2.291   6.085
 6765TIP3    H120236   5.546   2.318   6.131
 6765TIP3    H220237   5.459   2.197   6.102
 6766TIP3   OH220238   8.050   5.493   2.158
 6766TIP3    H120239   8.080   5.557   2.223
 6766TIP3    H220240   8.103   5.511   2.081
 6767TIP3   OH220241   5.019   3.844   5.518
 6767TIP3    H120242   4.951   3.802   5.571
 6767TIP3    H220243   4.983   3.931   5.499
 6768TIP3   OH220244   5.104   2.211   0.125
 6768TIP3    H120245   5.019   2.210   0.081
 6768TIP3    H220246   5.153   2.140   0.083
 6769TIP3   OH220247   4.990   6.829   1.346
 6769TIP3    H120248   4.932   6.840   1.270
 6769TIP3    H220249   5.074   6.865   1.317
 6770TIP3   OH220250   0.561   3.760   0.229
 6770TIP3    H120251   0.554   3.849   0.194
 6770TIP3    H220252   0.643   3.760   0.279
 6771TIP3   OH220253   5.241   6.514   0.598
 6771TIP3    H120254   5.292   6.594   0.592
 6771TIP3    H220255   5.266   6.464   0.520
 6772TIP3   OH220256   3.102   2.331   2.634
 6772TIP3    H120257   3.157   2.288   2.699
 6772TIP3    H220258   3.076   2.260   2.575
 6773TIP3   OH220259   8.340   4.207   2.513
 6773TIP3    H120260   8.247   4.207   2.538
 6773TIP3    H220261   8.382   4.266   2.575
 6774TIP3   OH220262   0.701   0.093   5.874
 6774TIP3    H120263   0.727   0.028   5.809
 6774TIP3    H220264   0.764   0.164   5.864
 6775TIP3   OH220265   1.622   6.085   3.187
 6775TIP3    H120266   1.610   6.180   3.184
 6775TIP3    H220267   1.542   6.050   3.148
 6776TIP3   OH220268   1.935   1.453   4.832
 6776TIP3    H120269   1.908   1.542   4.852
 6776TIP3    H220270   1.911   1.441   4.740
 6777TIP3   OH220271   1.077   1.077   5.851
 6777TIP3    H120272   1.091   1.130   5.929
 6777TIP3    H220273   1.027   1.134   5.792
 6778TIP3   OH220274   1.597   4.340   4.520
 6778TIP3    H120275   1.672   4.385   4.480
 6778TIP3    H220276   1.547   4.409   4.562
 6779TIP3   OH220277   7.950   1.130   0.530
 6779TIP3    H120278   7.926   1.192   0.461
 6779TIP3    H220279   7.985   1.185   0.600
 6780TIP3   OH220280   2.032   0.027   5.266
 6780TIP3    H120281   2.076  -0.002   5.187
 6780TIP3    H220282   1.954   0.073   5.235
 6781TIP3   OH220283   5.029   6.645   3.979
 6781TIP3    H120284   5.102   6.686   4.026
 6781TIP3    H220285   5.069   6.575   3.929
 6782TIP3   OH220286   1.128   0.024   0.086
 6782TIP3    H120287   1.078   0.022   0.168
 6782TIP3    H220288   1.158   0.114   0.078
 6783TIP3   OH220289   2.480   0.945   1.622
 6783TIP3    H120290   2.421   1.019   1.635
 6783TIP3    H220291   2.435   0.889   1.558
 6784TIP3   OH220292   4.463   2.910   4.499
 6784TIP3    H120293   4.417   2.903   4.582
 6784TIP3    H220294   4.514   2.829   4.493
 6785TIP3   OH220295   2.540   1.682   0.161
 6785TIP3    H120296   2.547   1.638   0.076
 6785TIP3    H220297   2.563   1.773   0.143
 6786TIP3   OH220298   6.442   5.271   4.916
 6786TIP3    H120299   6.501   5.340   4.947
 6786TIP3    H220300   6.497   5.216   4.861
 6787TIP3   OH220301   1.186   4.072   6.557
 6787TIP3    H120302   1.133   4.141   6.515
 6787TIP3    H220303   1.125   4.000   6.571
 6788TIP3   OH220304   1.790   1.564   1.438
 6788TIP3    H120305   1.813   1.473   1.450
 6788TIP3    H220306   1.855   1.613   1.488
 6789TIP3   OH220307   4.753   5.908   4.616
 6789TIP3    H120308   4.815   5.981   4.607
 6789TIP3    H220309   4.777   5.867   4.699
 6790TIP3   OH220310   7.961   1.878   3.264
 6790TIP3    H120311   7.881   1.928   3.277
 6790TIP3    H220312   7.933   1.787   3.268
 6791TIP3   OH220313   8.043   7.131   2.083
 6791TIP3    H120314   8.023   7.126   1.990
 6791TIP3    H220315   7.997   7.209   2.113
 6792TIP3   OH220316   2.977   1.758   6.409
 6792TIP3    H120317   2.906   1.706   6.447
 6792TIP3    H220318   2.983   1.835   6.466
 6793TIP3   OH220319   4.140   5.214   6.321
 6793TIP3    H120320   4.173   5.217   6.231
 6793TIP3    H220321   4.094   5.131   6.328
 6794TIP3   OH220322   1.158   2.608   1.434
 6794TIP3    H120323   1.190   2.624   1.345
 6794TIP3    H220324   1.196   2.523   1.458
 6795TIP3   OH220325   5.897   1.696   5.849
 6795TIP3    H120326   5.896   1.776   5.796
 6795TIP3    H220327   5.989   1.670   5.850
 6796TIP3   OH220328   5.563   2.190   6.348
 6796TIP3    H120329   5.630   2.147   6.296
 6796TIP3    H220330   5.527   2.121   6.404
 6797TIP3   OH220331   4.326   5.274   4.492
 6797TIP3    H120332   4.303   5.249   4.582
 6797TIP3    H220333   4.356   5.194   4.451
 6798TIP3   OH220334   4.509   6.873   2.308
 6798TIP3    H120335   4.505   6.896   2.215
 6798TIP3    H220336   4.431   6.820   2.324
 6799TIP3   OH220337   1.645   1.365   3.152
 6799TIP3    H120338   1.603   1.280   3.135
 6799TIP3    H220339   1.598   1.400   3.228
 6800TIP3   OH220340   1.950   3.734   5.303
 6800TIP3    H120341   1.971   3.816   5.258
 6800TIP3    H220342   2.026   3.717   5.359
 6801TIP3   OH220343   5.340   2.288   2.843
 6801TIP3    H120344   5.419   2.277   2.790
 6801TIP3    H220345   5.364   2.252   2.929
 6802TIP3   OH220346   1.369   6.074   5.255
 6802TIP3    H120347   1.408   6.023   5.326
 6802TIP3    H220348   1.410   6.040   5.175
 6803TIP3   OH220349   1.672   0.913   0.273
 6803TIP3    H120350   1.645   0.834   0.227
 6803TIP3    H220351   1.622   0.983   0.231
 6804TIP3   OH220352   0.498   0.292   5.316
 6804TIP3    H120353   0.410   0.295   5.277
 6804TIP3    H220354   0.522   0.383   5.330
 6805TIP3   OH220355   5.552   5.646   0.455
 6805TIP3    H120356   5.610   5.587   0.407
 6805TIP3    H220357   5.609   5.692   0.516
 6806TIP3   OH220358   7.321   2.908   4.729
 6806TIP3    H120359   7.374   2.986   4.712
 6806TIP3    H220360   7.231   2.936   4.715
 6807TIP3   OH220361   6.533   0.157   5.203
 6807TIP3    H120362   6.467   0.093   5.229
 6807TIP3    H220363   6.616   0.118   5.229
 6808TIP3   OH220364   0.371   5.037   4.986
 6808TIP3    H120365   0.348   5.042   5.079
 6808TIP3    H220366   0.302   4.983   4.948
 6809TIP3   OH220367   2.916   0.716   5.175
 6809TIP3    H120368   2.904   0.806   5.147
 6809TIP3    H220369   3.002   0.692   5.140
 6810TIP3   OH220370   7.909   3.760   4.750
 6810TIP3    H120371   7.979   3.757   4.685
 6810TIP3    H220372   7.867   3.845   4.735
 6811TIP3   OH220373   5.481   4.489   2.933
 6811TIP3    H120374   5.409   4.545   2.903
 6811TIP3    H220375   5.454   4.462   3.021
 6812TIP3   OH220376   3.923   5.899   0.135
 6812TIP3    H120377   3.865   5.903   0.059
 6812TIP3    H220378   3.888   5.827   0.188
 6813TIP3   OH220379   3.463   2.116   0.546
 6813TIP3    H120380   3.398   2.091   0.611
 6813TIP3    H220381   3.472   2.211   0.557
 6814TIP3   OH220382   7.663   3.777   6.683
 6814TIP3    H120383   7.620   3.693   6.701
 6814TIP3    H220384   7.603   3.821   6.622
 6815TIP3   OH220385   6.909   6.045   2.176
 6815TIP3    H120386   6.868   6.061   2.261
 6815TIP3    H220387   6.889   6.123   2.124
 6816TIP3   OH220388   8.077   3.418   2.424
 6816TIP3    H120389   8.061   3.426   2.518
 6816TIP3    H220390   8.086   3.508   2.394
 6817TIP3   OH220391   7.387   2.098   2.898
 6817TIP3    H120392   7.352   2.180   2.934
 6817TIP3    H220393   7.320   2.069   2.836
 6818TIP3   OH220394   4.217   5.775   5.119
 6818TIP3    H120395   4.199   5.710   5.186
 6818TIP3    H220396   4.205   5.729   5.036
 6819TIP3   OH220397   3.752   0.249   4.840
 6819TIP3    H120398   3.779   0.335   4.810
 6819TIP3    H220399   3.773   0.248   4.933
 6820TIP3   OH220400   5.338   3.953   4.792
 6820TIP3    H120401   5.367   4.018   4.855
 6820TIP3    H220402   5.391   3.875   4.812
 6821TIP3   OH220403   1.387   1.237   6.806
 6821TIP3    H120404   1.385   1.142   6.807
 6821TIP3    H220405   1.298   1.263   6.783
 6822TIP3   OH220406   3.208   6.083   6.459
 6822TIP3    H120407   3.259   6.024   6.404
 6822TIP3    H220408   3.253   6.081   6.543
 6823TIP3   OH220409   7.167   5.264   0.292
 6823TIP3    H120410   7.204   5.346   0.324
 6823TIP3    H220411   7.183   5.265   0.197
 6824TIP3   OH220412   0.743   4.825   2.297
 6824TIP3    H120413   0.701   4.745   2.329
 6824TIP3    H220414   0.703   4.841   2.212
 6825TIP3   OH220415   5.026   0.176   2.165
 6825TIP3    H120416   5.093   0.242   2.149
 6825TIP3    H220417   5.019   0.128   2.082
 6826TIP3   OH220418   1.052   4.286   4.791
 6826TIP3    H120419   1.044   4.381   4.777
 6826TIP3    H220420   0.977   4.264   4.847
 6827TIP3   OH220421   5.743   2.997   5.760
 6827TIP3    H120422   5.798   2.965   5.688
 6827TIP3    H220423   5.670   3.041   5.715
 6828TIP3   OH220424   2.316   6.067   5.285
 6828TIP3    H120425   2.306   6.136   5.220
 6828TIP3    H220426   2.226   6.042   5.307
 6829TIP3   OH220427   2.761   5.591   3.001
 6829TIP3    H120428   2.668   5.612   3.014
 6829TIP3    H220429   2.761   5.511   2.949
 6830TIP3   OH220430   0.828   3.820   5.748
 6830TIP3    H120431   0.840   3.902   5.701
 6830TIP3    H220432   0.767   3.841   5.819
 6831TIP3   OH220433   4.903   4.289   4.074
 6831TIP3    H120434   4.851   4.262   4.149
 6831TIP3    H220435   4.868   4.375   4.051
 6832TIP3   OH220436   5.810   7.325   1.492
 6832TIP3    H120437   5.865   7.289   1.562
 6832TIP3    H220438   5.860   7.399   1.458
 6833TIP3   OH220439   5.642   0.212   3.039
 6833TIP3    H120440   5.607   0.143   3.096
 6833TIP3    H220441   5.579   0.217   2.967
 6834TIP3   OH220442   7.469   0.597   4.456
 6834TIP3    H120443   7.386   0.552   4.441
 6834TIP3    H220444   7.527   0.565   4.387
 6835TIP3   OH220445   2.111   6.549   2.494
 6835TIP3    H120446   2.035   6.556   2.437
 6835TIP3    H220447   2.183   6.524   2.435
 6836TIP3   OH220448   7.864   4.404   5.306
 6836TIP3    H120449   7.904   4.481   5.267
 6836TIP3    H220450   7.899   4.331   5.256
 6837TIP3   OH220451   7.818   5.027   1.517
 6837TIP3    H120452   7.800   5.028   1.612
 6837TIP3    H220453   7.742   5.071   1.478
 6838TIP3   OH220454   4.541   1.638   2.323
 6838TIP3    H120455   4.491   1.571   2.276
 6838TIP3    H220456   4.509   1.721   2.288
 6839TIP3   OH220457   1.637   6.301   4.185
 6839TIP3    H120458   1.626   6.340   4.098
 6839TIP3    H220459   1.698   6.359   4.231
 6840TIP3   OH220460   1.153   4.942   1.332
 6840TIP3    H120461   1.077   4.946   1.390
 6840TIP3    H220462   1.124   4.987   1.252
 6841TIP3   OH220463   0.888   3.932   1.943
 6841TIP3    H120464   0.977   3.965   1.926
 6841TIP3    H220465   0.889   3.910   2.036
 6842TIP3   OH220466   0.554   6.272   3.362
 6842TIP3    H120467   0.558   6.303   3.272
 6842TIP3    H220468   0.545   6.351   3.415
 6843TIP3   OH220469   3.592   1.266   6.582
 6843TIP3    H120470   3.499   1.288   6.591
 6843TIP3    H220471   3.592   1.179   6.542
 6844TIP3   OH220472   0.331   6.355   0.369
 6844TIP3    H120473   0.287   6.284   0.416
 6844TIP3    H220474   0.263   6.420   0.355
 6845TIP3   OH220475   2.677   2.677   2.539
 6845TIP3    H120476   2.729   2.624   2.599
 6845TIP3    H220477   2.698   2.767   2.561
 6846TIP3   OH220478   7.916   0.027   5.692
 6846TIP3    H120479   8.008   0.049   5.680
 6846TIP3    H220480   7.880   0.025   5.603
 6847TIP3   OH220481   6.483   0.791   4.028
 6847TIP3    H120482   6.549   0.800   3.959
 6847TIP3    H220483   6.450   0.701   4.017
 6848TIP3   OH220484   6.706   5.522   1.482
 6848TIP3    H120485   6.627   5.575   1.467
 6848TIP3    H220486   6.762   5.578   1.536
 6849TIP3   OH220487   2.877   7.449   4.557
 6849TIP3    H120488   2.848   7.376   4.502
 6849TIP3    H220489   2.968   7.463   4.531
 6850TIP3   OH220490   2.025   0.680   0.134
 6850TIP3    H120491   1.986   0.765   0.115
 6850TIP3    H220492   1.952   0.619   0.130
 6851TIP3   OH220493   0.555   2.090   5.194
 6851TIP3    H120494   0.595   2.169   5.228
 6851TIP3    H220495   0.563   2.098   5.099
 6852TIP3   OH220496   3.125   0.610   0.664
 6852TIP3    H120497   3.214   0.617   0.701
 6852TIP3    H220498   3.071   0.664   0.722
 6853TIP3   OH220499   5.534   6.416   2.690
 6853TIP3    H120500   5.628   6.421   2.703
 6853TIP3    H220501   5.523   6.351   2.620
 6854TIP3   OH220502   7.839   5.100   3.999
 6854TIP3    H120503   7.848   5.005   3.989
 6854TIP3    H220504   7.923   5.128   4.035
 6855TIP3   OH220505   2.512   3.542   2.383
 6855TIP3    H120506   2.453   3.604   2.425
 6855TIP3    H220507   2.595   3.552   2.429
 6856TIP3   OH220508   2.082   4.251   6.250
 6856TIP3    H120509   2.104   4.333   6.206
 6856TIP3    H220510   2.112   4.183   6.190
 6857TIP3   OH220511   5.450   4.324   3.160
 6857TIP3    H120512   5.465   4.367   3.244
 6857TIP3    H220513   5.494   4.239   3.168
 6858TIP3   OH220514   1.822   4.655   6.851
 6858TIP3    H120515   1.802   4.570   6.891
 6858TIP3    H220516   1.837   4.636   6.759
 6859TIP3   OH220517   5.218   6.721   1.875
 6859TIP3    H120518   5.125   6.730   1.895
 6859TIP3    H220519   5.226   6.744   1.782
 6860TIP3   OH220520   6.436   0.813   1.153
 6860TIP3    H120521   6.502   0.860   1.101
 6860TIP3    H220522   6.465   0.823   1.243
 6861TIP3   OH220523   1.360   1.206   1.510
 6861TIP3    H120524   1.324   1.127   1.470
 6861TIP3    H220525   1.318   1.278   1.463
 6862TIP3   OH220526   2.872   7.165   4.786
 6862TIP3    H120527   2.798   7.188   4.730
 6862TIP3    H220528   2.929   7.112   4.731
 6863TIP3   OH220529   7.363   4.040   2.796
 6863TIP3    H120530   7.382   4.103   2.726
 6863TIP3    H220531   7.376   3.955   2.756
 6864TIP3   OH220532   2.300   3.188   5.203
 6864TIP3    H120533   2.269   3.104   5.171
 6864TIP3    H220534   2.349   3.225   5.130
 6865TIP3   OH220535   7.828   1.955   3.654
 6865TIP3    H120536   7.734   1.939   3.645
 6865TIP3    H220537   7.835   2.012   3.731
 6866TIP3   OH220538   6.244   3.298   2.102
 6866TIP3    H120539   6.202   3.316   2.017
 6866TIP3    H220540   6.205   3.216   2.131
 6867TIP3   OH220541   4.164   6.270   2.481
 6867TIP3    H120542   4.219   6.231   2.550
 6867TIP3    H220543   4.201   6.357   2.468
 6868TIP3   OH220544   2.323   6.224   5.559
 6868TIP3    H120545   2.310   6.199   5.467
 6868TIP3    H220546   2.274   6.306   5.568
 6869TIP3   OH220547   3.707   2.794   2.790
 6869TIP3    H120548   3.727   2.734   2.862
 6869TIP3    H220549   3.641   2.853   2.827
 6870TIP3   OH220550   8.028   1.251   2.012
 6870TIP3    H120551   7.992   1.163   2.002
 6870TIP3    H220552   8.059   1.254   2.103
 6871TIP3   OH220553   6.478   7.585   3.930
 6871TIP3    H120554   6.441   7.577   4.018
 6871TIP3    H220555   6.418   7.644   3.884
 6872TIP3   OH220556   6.972   0.805   6.745
 6872TIP3    H120557   6.949   0.715   6.721
 6872TIP3    H220558   7.039   0.796   6.812
 6873TIP3   OH220559   0.557   2.859   5.024
 6873TIP3    H120560   0.517   2.917   5.089
 6873TIP3    H220561   0.483   2.823   4.976
 6874TIP3   OH220562   1.180   3.070   0.548
 6874TIP3    H120563   1.095   3.043   0.583
 6874TIP3    H220564   1.182   3.165   0.560
 6875TIP3   OH220565   2.823   4.471   4.078
 6875TIP3    H120566   2.897   4.410   4.088
 6875TIP3    H220567   2.864   4.553   4.052
 6876TIP3   OH220568   1.096   1.800   2.781
 6876TIP3    H120569   1.030   1.760   2.838
 6876TIP3    H220570   1.059   1.794   2.693
 6877TIP3   OH220571   2.277   3.019   5.788
 6877TIP3    H120572   2.330   3.078   5.842
 6877TIP3    H220573   2.318   3.021   5.702
 6878TIP3   OH220574   6.932   3.455   5.486
 6878TIP3    H120575   6.891   3.438   5.401
 6878TIP3    H220576   6.886   3.531   5.521
 6879TIP3   OH220577   1.917   2.214   1.914
 6879TIP3    H120578   2.001   2.224   1.958
 6879TIP3    H220579   1.875   2.299   1.921
 6880TIP3   OH220580   7.255   1.128   3.916
 6880TIP3    H120581   7.197   1.135   3.840
 6880TIP3    H220582   7.342   1.114   3.878
 6881TIP3   OH220583   2.265   4.817   2.203
 6881TIP3    H120584   2.311   4.756   2.146
 6881TIP3    H220585   2.258   4.772   2.287
 6882TIP3   OH220586   0.058   5.020   3.163
 6882TIP3    H120587   0.001   5.072   3.221
 6882TIP3    H220588   0.138   5.072   3.155
 6883TIP3   OH220589   0.166   0.008   4.031
 6883TIP3    H120590   0.199  -0.024   4.115
 6883TIP3    H220591   0.151   0.102   4.045
 6884TIP3   OH220592   8.305   6.903   6.086
 6884TIP3    H120593   8.304   6.975   6.023
 6884TIP3    H220594   8.313   6.946   6.171
 6885TIP3   OH220595   4.625   6.967   4.151
 6885TIP3    H120596   4.706   7.017   4.162
 6885TIP3    H220597   4.571   7.021   4.092
 6886TIP3   OH220598   4.506   5.626   6.368
 6886TIP3    H120599   4.453   5.695   6.329
 6886TIP3    H220600   4.522   5.564   6.297
 6887TIP3   OH220601   0.516   7.715   2.184
 6887TIP3    H120602   0.452   7.678   2.123
 6887TIP3    H220603   0.589   7.653   2.183
 6888TIP3   OH220604   6.994   6.471   5.142
 6888TIP3    H120605   7.086   6.453   5.160
 6888TIP3    H220606   6.985   6.455   5.048
 6889TIP3   OH220607   6.138   5.716   6.055
 6889TIP3    H120608   6.166   5.764   5.977
 6889TIP3    H220609   6.132   5.783   6.123
 6890TIP3   OH220610   1.105   4.927   0.185
 6890TIP3    H120611   1.188   4.901   0.226
 6890TIP3    H220612   1.116   4.905   0.093
 6891TIP3   OH220613   8.149   1.587   4.879
 6891TIP3    H120614   8.222   1.566   4.820
 6891TIP3    H220615   8.086   1.633   4.824
 6892TIP3   OH220616   7.200   1.017   2.531
 6892TIP3    H120617   7.147   1.011   2.452
 6892TIP3    H220618   7.231   1.107   2.532
 6893TIP3   OH220619   6.993   0.020   2.812
 6893TIP3    H120620   6.947  -0.029   2.744
 6893TIP3    H220621   7.008   0.106   2.775
 6894TIP3   OH220622   0.970   5.330   2.948
 6894TIP3    H120623   0.979   5.344   2.854
 6894TIP3    H220624   1.050   5.368   2.986
 6895TIP3   OH220625   8.059   2.161   5.068
 6895TIP3    H120626   8.084   2.146   4.977
 6895TIP3    H220627   8.142   2.161   5.116
 6896TIP3   OH220628   5.392   3.514   4.153
 6896TIP3    H120629   5.444   3.543   4.228
 6896TIP3    H220630   5.355   3.430   4.180
 6897TIP3   OH220631   7.007   0.743   4.392
 6897TIP3    H120632   6.956   0.664   4.407
 6897TIP3    H220633   6.941   0.811   4.375
 6898TIP3   OH220634   4.855   0.172   5.689
 6898TIP3    H120635   4.921   0.142   5.751
 6898TIP3    H220636   4.802   0.095   5.671
 6899TIP3   OH220637   6.070   3.224   3.978
 6899TIP3    H120638   6.162   3.212   4.003
 6899TIP3    H220639   6.074   3.283   3.903
 6900TIP3   OH220640   4.534   5.480   3.084
 6900TIP3    H120641   4.471   5.517   3.146
 6900TIP3    H220642   4.536   5.542   3.012
 6901TIP3   OH220643   5.132   4.348   3.577
 6901TIP3    H120644   5.197   4.339   3.646
 6901TIP3    H220645   5.169   4.302   3.502
 6902TIP3   OH220646   7.369   3.901   0.299
 6902TIP3    H120647   7.418   3.975   0.335
 6902TIP3    H220648   7.397   3.896   0.207
 6903TIP3   OH220649   5.892   6.212   3.462
 6903TIP3    H120650   5.798   6.219   3.442
 6903TIP3    H220651   5.898   6.145   3.530
 6904TIP3   OH220652   4.506   1.652   0.584
 6904TIP3    H120653   4.415   1.630   0.565
 6904TIP3    H220654   4.545   1.665   0.497
 6905TIP3   OH220655   2.283   4.880   3.343
 6905TIP3    H120656   2.291   4.801   3.290
 6905TIP3    H220657   2.349   4.939   3.306
 6906TIP3   OH220658   5.976   0.845   0.578
 6906TIP3    H120659   5.891   0.842   0.534
 6906TIP3    H220660   5.957   0.881   0.665
 6907TIP3   OH220661   6.119   6.484   5.018
 6907TIP3    H120662   6.161   6.538   5.085
 6907TIP3    H220663   6.061   6.544   4.972
 6908TIP3   OH220664   0.177   7.841   4.140
 6908TIP3    H120665   0.229   7.916   4.110
 6908TIP3    H220666   0.139   7.805   4.060
 6909TIP3   OH220667   2.235   4.955   4.244
 6909TIP3    H120668   2.183   4.875   4.251
 6909TIP3    H220669   2.245   4.985   4.334
 6910TIP3   OH220670   0.865   6.704   6.765
 6910TIP3    H120671   0.881   6.735   6.676
 6910TIP3    H220672   0.872   6.609   6.760
 6911TIP3   OH220673   2.647   4.713   1.854
 6911TIP3    H120674   2.620   4.628   1.820
 6911TIP3    H220675   2.723   4.738   1.801
 6912TIP3   OH220676   7.338   6.478   2.565
 6912TIP3    H120677   7.347   6.388   2.532
 6912TIP3    H220678   7.257   6.509   2.527
 6913TIP3   OH220679   2.909   6.738   4.884
 6913TIP3    H120680   2.859   6.818   4.900
 6913TIP3    H220681   2.845   6.677   4.847
 6914TIP3   OH220682   7.749   7.649   6.487
 6914TIP3    H120683   7.786   7.696   6.413
 6914TIP3    H220684   7.688   7.587   6.448
 6915TIP3   OH220685   5.779   4.567   4.989
 6915TIP3    H120686   5.858   4.561   5.044
 6915TIP3    H220687   5.809   4.542   4.902
 6916TIP3   OH220688   8.005   6.582   3.641
 6916TIP3    H120689   7.947   6.655   3.619
 6916TIP3    H220690   7.984   6.514   3.577
 6917TIP3   OH220691   5.893   5.561   4.377
 6917TIP3    H120692   5.826   5.556   4.309
 6917TIP3    H220693   5.845   5.568   4.459
 6918TIP3   OH220694   4.179   5.064   5.484
 6918TIP3    H120695   4.142   5.045   5.398
 6918TIP3    H220696   4.139   5.000   5.542
 6919TIP3   OH220697   1.700   0.145   4.654
 6919TIP3    H120698   1.643   0.216   4.682
 6919TIP3    H220699   1.733   0.172   4.569
 6920TIP3   OH220700   1.822   6.907   6.660
 6920TIP3    H120701   1.882   6.973   6.696
 6920TIP3    H220702   1.841   6.828   6.710
 6921TIP3   OH220703   0.778   6.104   6.600
 6921TIP3    H120704   0.724   6.112   6.679
 6921TIP3    H220705   0.720   6.062   6.536
 6922TIP3   OH220706   6.823   6.040   5.505
 6922TIP3    H120707   6.837   6.041   5.599
 6922TIP3    H220708   6.810   5.948   5.483
 6923TIP3   OH220709   1.804   5.173   3.360
 6923TIP3    H120710   1.791   5.254   3.311
 6923TIP3    H220711   1.772   5.104   3.302
 6924TIP3   OH220712   8.064   2.731   6.355
 6924TIP3    H120713   8.087   2.703   6.444
 6924TIP3    H220714   8.141   2.710   6.302
 6925TIP3   OH220715   1.804   1.012   0.718
 6925TIP3    H120716   1.811   0.935   0.774
 6925TIP3    H220717   1.838   0.984   0.633
 6926TIP3   OH220718   8.237   7.471   6.012
 6926TIP3    H120719   8.213   7.550   5.966
 6926TIP3    H220720   8.208   7.486   6.102
 6927TIP3   OH220721   7.360   3.992   5.136
 6927TIP3    H120722   7.279   4.000   5.086
 6927TIP3    H220723   7.412   4.069   5.111
 6928TIP3   OH220724   1.683   6.393   2.840
 6928TIP3    H120725   1.621   6.463   2.823
 6928TIP3    H220726   1.750   6.433   2.896
 6929TIP3   OH220727   5.358   3.838   4.389
 6929TIP3    H120728   5.305   3.796   4.457
 6929TIP3    H220729   5.343   3.932   4.401
 6930TIP3   OH220730   0.916   4.153   1.083
 6930TIP3    H120731   0.873   4.226   1.127
 6930TIP3    H220732   0.911   4.080   1.145
 6931TIP3   OH220733   7.786   0.290   4.731
 6931TIP3    H120734   7.750   0.264   4.647
 6931TIP3    H220735   7.718   0.345   4.770
 6932TIP3   OH220736   3.178   5.228   0.476
 6932TIP3    H120737   3.113   5.248   0.408
 6932TIP3    H220738   3.127   5.225   0.557
 6933TIP3   OH220739   6.562   3.501   1.002
 6933TIP3    H120740   6.470   3.486   1.027
 6933TIP3    H220741   6.563   3.591   0.969
 6934TIP3   OH220742   6.083   5.716   4.055
 6934TIP3    H120743   6.098   5.672   4.138
 6934TIP3    H220744   5.991   5.744   4.058
 6935TIP3   OH220745   7.216   7.657   2.650
 6935TIP3    H120746   7.270   7.728   2.686
 6935TIP3    H220747   7.149   7.641   2.717
 6936TIP3   OH220748   0.914   6.977   0.058
 6936TIP3    H120749   0.843   7.032   0.091
 6936TIP3    H220750   0.896   6.969  -0.036
 6937TIP3   OH220751   1.298   3.610   3.981
 6937TIP3    H120752   1.250   3.550   4.037
 6937TIP3    H220753   1.390   3.587   3.993
 6938TIP3   OH220754   6.644   1.247   2.750
 6938TIP3    H120755   6.602   1.227   2.833
 6938TIP3    H220756   6.616   1.336   2.729
 6939TIP3   OH220757   4.771   3.670   4.176
 6939TIP3    H120758   4.821   3.589   4.186
 6939TIP3    H220759   4.740   3.668   4.085
 6940TIP3   OH220760   0.961   1.630   5.588
 6940TIP3    H120761   0.993   1.692   5.653
 6940TIP3    H220762   0.899   1.680   5.535
 6941TIP3   OH220763   5.123   1.483   4.821
 6941TIP3    H120764   5.169   1.469   4.738
 6941TIP3    H220765   5.047   1.424   4.816
 6942TIP3   OH220766   5.838   3.236   5.593
 6942TIP3    H120767   5.823   3.147   5.562
 6942TIP3    H220768   5.816   3.291   5.518
 6943TIP3   OH220769   0.975   5.173   2.329
 6943TIP3    H120770   1.011   5.251   2.371
 6943TIP3    H220771   1.051   5.119   2.308
 6944TIP3   OH220772   5.322   7.183   2.773
 6944TIP3    H120773   5.411   7.193   2.808
 6944TIP3    H220774   5.272   7.252   2.816
 6945TIP3   OH220775   5.562   6.750   1.550
 6945TIP3    H120776   5.566   6.845   1.566
 6945TIP3    H220777   5.504   6.742   1.474
 6946TIP3   OH220778   3.358   3.998   0.558
 6946TIP3    H120779   3.432   4.057   0.570
 6946TIP3    H220780   3.281   4.054   0.567
 6947TIP3   OH220781   5.772   1.830   3.223
 6947TIP3    H120782   5.723   1.770   3.279
 6947TIP3    H220783   5.829   1.773   3.171
 6948TIP3   OH220784   7.044   2.180   1.944
 6948TIP3    H120785   7.105   2.191   1.871
 6948TIP3    H220786   6.979   2.249   1.931
 6949TIP3   OH220787   1.978   7.127   5.819
 6949TIP3    H120788   1.891   7.154   5.789
 6949TIP3    H220789   2.030   7.208   5.818
 6950TIP3   OH220790   6.199   6.270   0.221
 6950TIP3    H120791   6.235   6.338   0.163
 6950TIP3    H220792   6.218   6.188   0.176
 6951TIP3   OH220793   8.400   1.333   4.495
 6951TIP3    H120794   8.306   1.352   4.505
 6951TIP3    H220795   8.406   1.238   4.506
 6952TIP3   OH220796   3.747   2.186   1.310
 6952TIP3    H120797   3.754   2.197   1.405
 6952TIP3    H220798   3.770   2.094   1.296
 6953TIP3   OH220799   0.865   1.278   6.555
 6953TIP3    H120800   0.853   1.184   6.543
 6953TIP3    H220801   0.786   1.317   6.517
 6954TIP3   OH220802   3.237   5.012   6.663
 6954TIP3    H120803   3.329   4.991   6.647
 6954TIP3    H220804   3.226   4.997   6.757
 6955TIP3   OH220805   1.463   7.087   1.717
 6955TIP3    H120806   1.404   7.058   1.787
 6955TIP3    H220807   1.406   7.125   1.651
 6956TIP3   OH220808   0.772   4.353   5.289
 6956TIP3    H120809   0.751   4.373   5.380
 6956TIP3    H220810   0.734   4.426   5.239
 6957TIP3   OH220811   1.206   5.913   4.981
 6957TIP3    H120812   1.151   5.878   4.911
 6957TIP3    H220813   1.237   5.997   4.948
 6958TIP3   OH220814   0.658   1.524   2.543
 6958TIP3    H120815   0.632   1.616   2.545
 6958TIP3    H220816   0.677   1.506   2.451
 6959TIP3   OH220817   4.329   1.545   1.671
 6959TIP3    H120818   4.335   1.478   1.603
 6959TIP3    H220819   4.337   1.497   1.753
 6960TIP3   OH220820   1.980   2.393   3.203
 6960TIP3    H120821   1.926   2.423   3.276
 6960TIP3    H220822   2.064   2.437   3.215
 6961TIP3   OH220823   0.098   3.354   4.977
 6961TIP3    H120824   0.104   3.296   5.053
 6961TIP3    H220825   0.177   3.335   4.926
 6962TIP3   OH220826   2.050   1.754   0.538
 6962TIP3    H120827   2.125   1.695   0.552
 6962TIP3    H220828   2.066   1.827   0.598
 6963TIP3   OH220829   7.616   2.249   4.686
 6963TIP3    H120830   7.646   2.273   4.599
 6963TIP3    H220831   7.554   2.318   4.711
 6964TIP3   OH220832   0.101   7.364   3.881
 6964TIP3    H120833   0.009   7.338   3.871
 6964TIP3    H220834   0.146   7.283   3.905
 6965TIP3   OH220835   8.372   7.655   6.260
 6965TIP3    H120836   8.286   7.613   6.250
 6965TIP3    H220837   8.366   7.701   6.344
 6966TIP3   OH220838   1.565   1.640   3.025
 6966TIP3    H120839   1.503   1.677   2.961
 6966TIP3    H220840   1.510   1.607   3.095
 6967TIP3   OH220841   8.178   4.438   5.210
 6967TIP3    H120842   8.180   4.343   5.214
 6967TIP3    H220843   8.187   4.467   5.301
 6968TIP3   OH220844   3.816   6.434   1.056
 6968TIP3    H120845   3.876   6.432   1.130
 6968TIP3    H220846   3.737   6.474   1.091
 6969TIP3   OH220847   2.458   2.734   5.371
 6969TIP3    H120848   2.498   2.715   5.287
 6969TIP3    H220849   2.499   2.673   5.432
 6970TIP3   OH220850   5.993   2.343   6.722
 6970TIP3    H120851   5.942   2.274   6.680
 6970TIP3    H220852   5.934   2.377   6.790
 6971TIP3   OH220853   5.278   4.225   3.403
 6971TIP3    H120854   5.322   4.150   3.362
 6971TIP3    H220855   5.332   4.300   3.380
 6972TIP3   OH220856   4.590   7.217   5.638
 6972TIP3    H120857   4.614   7.243   5.727
 6972TIP3    H220858   4.648   7.144   5.618
 6973TIP3   OH220859   1.465   3.062   1.034
 6973TIP3    H120860   1.404   2.993   1.010
 6973TIP3    H220861   1.416   3.143   1.024
 6974TIP3   OH220862   0.669   7.180   4.751
 6974TIP3    H120863   0.752   7.182   4.798
 6974TIP3    H220864   0.646   7.273   4.740
 6975TIP3   OH220865   3.121   2.606   3.213
 6975TIP3    H120866   3.194   2.617   3.274
 6975TIP3    H220867   3.047   2.649   3.256
 6976TIP3   OH220868   4.586   1.899   0.681
 6976TIP3    H120869   4.543   1.817   0.657
 6976TIP3    H220870   4.660   1.906   0.621
 6977TIP3   OH220871   4.614   7.254   5.200
 6977TIP3    H120872   4.694   7.298   5.228
 6977TIP3    H220873   4.610   7.174   5.252
 6978TIP3   OH220874   7.265   7.366   3.877
 6978TIP3    H120875   7.319   7.293   3.908
 6978TIP3    H220876   7.184   7.359   3.928
 6979TIP3   OH220877   3.901   6.177   5.023
 6979TIP3    H120878   3.900   6.147   5.114
 6979TIP3    H220879   3.954   6.113   4.976
 6980TIP3   OH220880   0.970   0.212   3.726
 6980TIP3    H120881   0.975   0.238   3.818
 6980TIP3    H220882   1.057   0.231   3.692
 6981TIP3   OH220883   0.716   1.527   4.500
 6981TIP3    H120884   0.756   1.613   4.484
 6981TIP3    H220885   0.708   1.488   4.413
 6982TIP3   OH220886   8.158   6.310   1.808
 6982TIP3    H120887   8.250   6.283   1.803
 6982TIP3    H220888   8.145   6.368   1.733
 6983TIP3   OH220889   0.545   0.924   6.374
 6983TIP3    H120890   0.479   0.889   6.433
 6983TIP3    H220891   0.625   0.925   6.427
 6984TIP3   OH220892   1.559   7.589   4.324
 6984TIP3    H120893   1.516   7.537   4.256
 6984TIP3    H220894   1.652   7.584   4.301
 6985TIP3   OH220895   4.227   4.935   4.159
 6985TIP3    H120896   4.254   4.890   4.239
 6985TIP3    H220897   4.209   5.025   4.187
 6986TIP3   OH220898   6.474   0.799   1.786
 6986TIP3    H120899   6.396   0.837   1.745
 6986TIP3    H220900   6.472   0.832   1.876
 6987TIP3   OH220901   3.981   5.846   3.180
 6987TIP3    H120902   3.983   5.752   3.163
 6987TIP3    H220903   3.989   5.887   3.094
 6988TIP3   OH220904   4.963   0.175   1.477
 6988TIP3    H120905   4.950   0.143   1.566
 6988TIP3    H220906   4.942   0.100   1.421
 6989TIP3   OH220907   3.282   1.300   5.486
 6989TIP3    H120908   3.318   1.322   5.572
 6989TIP3    H220909   3.214   1.365   5.471
 6990TIP3   OH220910   2.960   2.286   4.191
 6990TIP3    H120911   2.916   2.244   4.117
 6990TIP3    H220912   2.906   2.264   4.267
 6991TIP3   OH220913   7.561   7.089   6.414
 6991TIP3    H120914   7.517   7.009   6.443
 6991TIP3    H220915   7.510   7.117   6.337
 6992TIP3   OH220916   1.123   1.762   0.928
 6992TIP3    H120917   1.098   1.742   1.018
 6992TIP3    H220918   1.166   1.847   0.933
 6993TIP3   OH220919   5.775   7.756   2.889
 6993TIP3    H120920   5.815   7.730   2.972
 6993TIP3    H220921   5.839   7.730   2.823
 6994TIP3   OH220922   0.777   6.439   2.382
 6994TIP3    H120923   0.684   6.442   2.361
 6994TIP3    H220924   0.787   6.502   2.453
 6995TIP3   OH220925   7.388   2.230   1.380
 6995TIP3    H120926   7.378   2.253   1.472
 6995TIP3    H220927   7.313   2.174   1.360
 6996TIP3   OH220928   7.827   4.061   5.760
 6996TIP3    H120929   7.747   4.020   5.728
 6996TIP3    H220930   7.831   4.038   5.853
 6997TIP3   OH220931   1.653   2.116   2.962
 6997TIP3    H120932   1.658   2.139   3.055
 6997TIP3    H220933   1.664   2.199   2.916
 6998TIP3   OH220934   6.993   4.982   1.566
 6998TIP3    H120935   6.906   4.966   1.604
 6998TIP3    H220936   6.986   5.071   1.530
 6999TIP3   OH220937   6.284   0.412   5.767
 6999TIP3    H120938   6.200   0.368   5.779
 6999TIP3    H220939   6.348   0.341   5.764
 7000TIP3   OH220940   5.643   4.222   4.774
 7000TIP3    H120941   5.625   4.135   4.737
 7000TIP3    H220942   5.632   4.282   4.701
 7001TIP3   OH220943   5.970   0.484   1.208
 7001TIP3    H120944   5.903   0.421   1.180
 7001TIP3    H220945   6.052   0.436   1.201
 7002TIP3   OH220946   1.738   0.119   0.388
 7002TIP3    H120947   1.824   0.078   0.388
 7002TIP3    H220948   1.723   0.145   0.480
 7003TIP3   OH220949   3.180   7.320   1.787
 7003TIP3    H120950   3.257   7.310   1.843
 7003TIP3    H220951   3.105   7.308   1.845
 7004TIP3   OH220952   1.717   0.649   3.613
 7004TIP3    H120953   1.759   0.661   3.698
 7004TIP3    H220954   1.733   0.731   3.566
 7005TIP3   OH220955   1.934   6.957   1.571
 7005TIP3    H120956   1.980   6.892   1.626
 7005TIP3    H220957   1.843   6.928   1.571
 7006TIP3   OH220958   3.676   3.654   6.154
 7006TIP3    H120959   3.735   3.600   6.206
 7006TIP3    H220960   3.596   3.658   6.207
 7007TIP3   OH220961   6.967   0.804   0.225
 7007TIP3    H120962   7.047   0.826   0.272
 7007TIP3    H220963   6.919   0.886   0.220
 7008TIP3   OH220964   7.636   2.530   3.800
 7008TIP3    H120965   7.607   2.497   3.715
 7008TIP3    H220966   7.668   2.453   3.846
 7009TIP3   OH220967   7.876   1.945   1.047
 7009TIP3    H120968   7.958   1.941   0.997
 7009TIP3    H220969   7.903   1.977   1.133
 7010TIP3   OH220970   2.293   0.526   5.028
 7010TIP3    H120971   2.386   0.517   5.004
 7010TIP3    H220972   2.293   0.591   5.099
 7011TIP3   OH220973   1.732   7.455   2.418
 7011TIP3    H120974   1.661   7.441   2.480
 7011TIP3    H220975   1.741   7.372   2.372
 7012TIP3   OH220976   7.461   3.821   6.523
 7012TIP3    H120977   7.504   3.854   6.445
 7012TIP3    H220978   7.371   3.801   6.494
 7013TIP3   OH220979   3.601   1.108   6.248
 7013TIP3    H120980   3.642   1.193   6.266
 7013TIP3    H220981   3.511   1.131   6.222
 7014TIP3   OH220982   2.822   5.070   0.137
 7014TIP3    H120983   2.771   5.055   0.216
 7014TIP3    H220984   2.771   5.135   0.087
 7015TIP3   OH220985   2.340   0.234   5.228
 7015TIP3    H120986   2.376   0.319   5.252
 7015TIP3    H220987   2.410   0.172   5.249
 7016TIP3   OH220988   0.231   4.161   3.647
 7016TIP3    H120989   0.284   4.183   3.571
 7016TIP3    H220990   0.294   4.133   3.713
 7017TIP3   OH220991   5.596   5.856   3.234
 7017TIP3    H120992   5.637   5.885   3.315
 7017TIP3    H220993   5.635   5.770   3.217
 7018TIP3   OH220994   2.075   3.696   4.288
 7018TIP3    H120995   1.980   3.710   4.282
 7018TIP3    H220996   2.106   3.707   4.198
 7019TIP3   OH220997   5.738   7.499   5.654
 7019TIP3    H120998   5.750   7.479   5.747
 7019TIP3    H220999   5.647   7.475   5.636
 7020TIP3   OH221000   6.510   3.052   6.603
 7020TIP3    H121001   6.425   3.034   6.563
 7020TIP3    H221002   6.567   3.075   6.529
 7021TIP3   OH221003   2.759   1.766   1.896
 7021TIP3    H121004   2.735   1.728   1.981
 7021TIP3    H221005   2.854   1.758   1.893
 7022TIP3   OH221006   2.543   0.323   4.937
 7022TIP3    H121007   2.585   0.262   4.998
 7022TIP3    H221008   2.588   0.406   4.951
 7023TIP3   OH221009   4.597   3.393   1.280
 7023TIP3    H121010   4.681   3.350   1.298
 7023TIP3    H221011   4.621   3.477   1.242
 7024TIP3   OH221012   4.332   3.711   3.505
 7024TIP3    H121013   4.360   3.648   3.438
 7024TIP3    H221014   4.411   3.761   3.525
 7025TIP3   OH221015   0.975   6.461   6.809
 7025TIP3    H121016   1.001   6.438   6.898
 7025TIP3    H221017   1.054   6.445   6.757
 7026TIP3   OH221018   3.196   4.352   0.887
 7026TIP3    H121019   3.251   4.383   0.959
 7026TIP3    H221020   3.157   4.432   0.852
 7027TIP3   OH221021   5.196   3.574   1.665
 7027TIP3    H121022   5.130   3.568   1.734
 7027TIP3    H221023   5.242   3.656   1.682
 7028TIP3   OH221024   8.149   6.590   0.911
 7028TIP3    H121025   8.136   6.599   0.816
 7028TIP3    H221026   8.181   6.501   0.923
 7029TIP3   OH221027   8.126   0.314   3.935
 7029TIP3    H121028   8.188   0.386   3.931
 7029TIP3    H221029   8.080   0.316   3.851
 7030TIP3   OH221030   4.028   4.287   2.538
 7030TIP3    H121031   3.938   4.262   2.555
 7030TIP3    H221032   4.055   4.233   2.463
 7031TIP3   OH221033   4.445   7.465   2.033
 7031TIP3    H121034   4.458   7.560   2.034
 7031TIP3    H221035   4.359   7.453   1.994
 7032TIP3   OH221036   7.172   7.803   4.089
 7032TIP3    H121037   7.250   7.850   4.058
 7032TIP3    H221038   7.128   7.775   4.009
 7033TIP3   OH221039   6.421   7.066   6.466
 7033TIP3    H121040   6.376   7.033   6.388
 7033TIP3    H221041   6.351   7.076   6.531
 7034TIP3   OH221042   7.708   6.197   3.822
 7034TIP3    H121043   7.669   6.153   3.898
 7034TIP3    H221044   7.745   6.127   3.769
 7035TIP3   OH221045   5.496   0.461   5.196
 7035TIP3    H121046   5.524   0.551   5.182
 7035TIP3    H221047   5.515   0.416   5.114
 7036TIP3   OH221048   1.532   0.450   6.640
 7036TIP3    H121049   1.571   0.366   6.663
 7036TIP3    H221050   1.594   0.515   6.674
 7037TIP3   OH221051   7.153   6.720   3.484
 7037TIP3    H121052   7.090   6.781   3.524
 7037TIP3    H221053   7.100   6.667   3.424
 7038TIP3   OH221054   3.434   5.255   5.894
 7038TIP3    H121055   3.457   5.239   5.802
 7038TIP3    H221056   3.432   5.168   5.933
 7039TIP3   OH221057   3.824   1.252   5.050
 7039TIP3    H121058   3.910   1.245   5.009
 7039TIP3    H221059   3.764   1.266   4.976
 7040TIP3   OH221060   7.554   2.467   0.066
 7040TIP3    H121061   7.553   2.372   0.059
 7040TIP3    H221062   7.643   2.492   0.045
 7041TIP3   OH221063   3.209   2.562   2.539
 7041TIP3    H121064   3.182   2.470   2.548
 7041TIP3    H221065   3.286   2.569   2.596
 7042TIP3   OH221066   0.447   1.337   2.914
 7042TIP3    H121067   0.469   1.429   2.899
 7042TIP3    H221068   0.460   1.295   2.829
 7043TIP3   OH221069   1.513   5.200   1.713
 7043TIP3    H121070   1.471   5.170   1.794
 7043TIP3    H221071   1.450   5.180   1.644
 7044TIP3   OH221072   5.330   1.140   2.802
 7044TIP3    H121073   5.354   1.055   2.763
 7044TIP3    H221074   5.253   1.168   2.753
 7045TIP3   OH221075   2.130   5.844   5.206
 7045TIP3    H121076   2.071   5.828   5.133
 7045TIP3    H221077   2.217   5.849   5.166
 7046TIP3   OH221078   5.564   2.787   5.783
 7046TIP3    H121079   5.632   2.742   5.732
 7046TIP3    H221080   5.607   2.866   5.816
 7047TIP3   OH221081   7.988   6.570   2.000
 7047TIP3    H121082   8.030   6.627   1.936
 7047TIP3    H221083   7.896   6.568   1.973
 7048TIP3   OH221084   6.183   3.855   6.447
 7048TIP3    H121085   6.160   3.763   6.431
 7048TIP3    H221086   6.150   3.901   6.370
 7049TIP3   OH221087   4.435   5.415   0.119
 7049TIP3    H121088   4.491   5.435   0.194
 7049TIP3    H221089   4.484   5.348   0.071
 7050TIP3   OH221090   7.508   7.693   4.621
 7050TIP3    H121091   7.546   7.742   4.548
 7050TIP3    H221092   7.572   7.701   4.692
 7051TIP3   OH221093   1.546   3.332   3.081
 7051TIP3    H121094   1.606   3.270   3.040
 7051TIP3    H221095   1.459   3.298   3.060
 7052TIP3   OH221096   2.525   0.142   1.493
 7052TIP3    H121097   2.609   0.168   1.454
 7052TIP3    H221098   2.518   0.048   1.475
 7053TIP3   OH221099   6.468   3.845   3.561
 7053TIP3    H121100   6.533   3.871   3.626
 7053TIP3    H221101   6.394   3.905   3.576
 7054TIP3   OH221102   5.449   6.528   4.454
 7054TIP3    H121103   5.449   6.502   4.546
 7054TIP3    H221104   5.468   6.447   4.406
 7055TIP3   OH221105   7.475   6.512   3.813
 7055TIP3    H121106   7.422   6.559   3.878
 7055TIP3    H221107   7.529   6.580   3.772
 7056TIP3   OH221108   6.425   0.175   4.940
 7056TIP3    H121109   6.445   0.155   5.031
 7056TIP3    H221110   6.444   0.269   4.931
 7057TIP3   OH221111   6.314   1.149   0.924
 7057TIP3    H121112   6.378   1.172   0.991
 7057TIP3    H221113   6.337   1.205   0.850
 7058TIP3   OH221114   6.885   2.749   2.414
 7058TIP3    H121115   6.882   2.712   2.326
 7058TIP3    H221116   6.911   2.676   2.470
 7059TIP3   OH221117   4.126   2.070   1.532
 7059TIP3    H121118   4.042   2.112   1.551
 7059TIP3    H221119   4.179   2.139   1.493
 7060TIP3   OH221120   0.358   2.093   6.743
 7060TIP3    H121121   0.347   2.128   6.831
 7060TIP3    H221122   0.370   1.999   6.757
 7061TIP3   OH221123   6.459   4.792   5.002
 7061TIP3    H121124   6.529   4.729   5.015
 7061TIP3    H221125   6.498   4.876   5.027
 7062TIP3   OH221126   5.382   0.929   6.628
 7062TIP3    H121127   5.314   0.869   6.597
 7062TIP3    H221128   5.388   0.996   6.560
 7063TIP3   OH221129   1.370   0.747   6.267
 7063TIP3    H121130   1.305   0.749   6.197
 7063TIP3    H221131   1.365   0.833   6.308
 7064TIP3   OH221132   6.464   7.428   1.247
 7064TIP3    H121133   6.528   7.358   1.259
 7064TIP3    H221134   6.379   7.386   1.257
 7065TIP3   OH221135   3.925   5.550   5.778
 7065TIP3    H121136   3.923   5.496   5.857
 7065TIP3    H221137   3.899   5.637   5.808
 7066TIP3   OH221138   7.790   6.624   3.886
 7066TIP3    H121139   7.702   6.624   3.924
 7066TIP3    H221140   7.819   6.533   3.893
 7067TIP3   OH221141   0.729   2.800   3.615
 7067TIP3    H121142   0.815   2.761   3.603
 7067TIP3    H221143   0.671   2.749   3.558
 7068TIP3   OH221144   0.252   6.307   3.203
 7068TIP3    H121145   0.215   6.288   3.289
 7068TIP3    H221146   0.213   6.243   3.144
 7069TIP3   OH221147   3.187   3.134   4.157
 7069TIP3    H121148   3.098   3.146   4.124
 7069TIP3    H221149   3.231   3.084   4.089
 7070TIP3   OH221150   0.351   2.887   1.811
 7070TIP3    H121151   0.395   2.806   1.788
 7070TIP3    H221152   0.301   2.910   1.733
 7071TIP3   OH221153   4.473   4.377   6.104
 7071TIP3    H121154   4.396   4.426   6.134
 7071TIP3    H221155   4.448   4.285   6.115
 7072TIP3   OH221156   8.147   2.946   4.914
 7072TIP3    H121157   8.184   2.942   5.002
 7072TIP3    H221158   8.123   3.038   4.903
 7073TIP3   OH221159   1.692   7.132   6.167
 7073TIP3    H121160   1.603   7.163   6.155
 7073TIP3    H221161   1.746   7.187   6.110
 7074TIP3   OH221162   5.841   4.026   3.571
 7074TIP3    H121163   5.905   3.962   3.601
 7074TIP3    H221164   5.892   4.106   3.558
 7075TIP3   OH221165   8.126   3.647   2.189
 7075TIP3    H121166   8.194   3.600   2.140
 7075TIP3    H221167   8.054   3.658   2.127
 7076TIP3   OH221168   2.906   0.906   4.613
 7076TIP3    H121169   2.951   0.871   4.536
 7076TIP3    H221170   2.952   0.987   4.633
 7077TIP3   OH221171   5.123   6.423   2.087
 7077TIP3    H121172   5.043   6.412   2.036
 7077TIP3    H221173   5.136   6.518   2.091
 7078TIP3   OH221174   4.376   3.108   4.978
 7078TIP3    H121175   4.316   3.125   5.051
 7078TIP3    H221176   4.439   3.045   5.014
 7079TIP3   OH221177   1.369   1.963   0.838
 7079TIP3    H121178   1.422   2.040   0.820
 7079TIP3    H221179   1.323   1.984   0.919
 7080TIP3   OH221180   7.700   0.459   4.279
 7080TIP3    H121181   7.680   0.367   4.262
 7080TIP3    H221182   7.778   0.477   4.227
 7081TIP3   OH221183   4.564   5.937   2.464
 7081TIP3    H121184   4.507   6.015   2.466
 7081TIP3    H221185   4.626   5.951   2.535
 7082TIP3   OH221186   2.724   0.238   0.713
 7082TIP3    H121187   2.816   0.259   0.731
 7082TIP3    H221188   2.690   0.315   0.668
 7083TIP3   OH221189   5.132   2.719   0.007
 7083TIP3    H121190   5.221   2.694   0.033
 7083TIP3    H221191   5.094   2.757   0.086
 7084TIP3   OH221192   4.115   6.612   0.966
 7084TIP3    H121193   4.071   6.683   0.919
 7084TIP3    H221194   4.051   6.542   0.971
 7085TIP3   OH221195   6.894   4.812   1.805
 7085TIP3    H121196   6.891   4.896   1.850
 7085TIP3    H221197   6.804   4.794   1.780
 7086TIP3   OH221198   8.015   4.799   5.179
 7086TIP3    H121199   7.940   4.829   5.128
 7086TIP3    H221200   8.090   4.840   5.136
 7087TIP3   OH221201   5.489   2.563   4.057
 7087TIP3    H121202   5.485   2.476   4.015
 7087TIP3    H221203   5.546   2.614   3.999
 7088TIP3   OH221204   0.429   5.813   3.127
 7088TIP3    H121205   0.438   5.892   3.073
 7088TIP3    H221206   0.470   5.837   3.211
 7089TIP3   OH221207   4.116   3.074   3.111
 7089TIP3    H121208   4.211   3.064   3.120
 7089TIP3    H221209   4.093   3.020   3.036
 7090TIP3   OH221210   5.962   0.399   2.204
 7090TIP3    H121211   6.057   0.408   2.216
 7090TIP3    H221212   5.932   0.360   2.286
 7091TIP3   OH221213   6.218   0.179   6.611
 7091TIP3    H121214   6.251   0.219   6.692
 7091TIP3    H221215   6.124   0.201   6.611
 7092TIP3   OH221216   5.052   2.666   2.549
 7092TIP3    H121217   5.077   2.723   2.622
 7092TIP3    H221218   5.117   2.685   2.481
 7093TIP3   OH221219   2.944   4.715   3.985
 7093TIP3    H121220   3.016   4.708   3.922
 7093TIP3    H221221   2.939   4.809   4.005
 7094TIP3   OH221222   0.766   0.602   2.572
 7094TIP3    H121223   0.809   0.687   2.586
 7094TIP3    H221224   0.832   0.549   2.527
 7095TIP3   OH221225   1.216   3.262   2.596
 7095TIP3    H121226   1.170   3.233   2.674
 7095TIP3    H221227   1.244   3.352   2.617
 7096TIP3   OH221228   4.194   4.596   6.595
 7096TIP3    H121229   4.226   4.664   6.655
 7096TIP3    H221230   4.157   4.529   6.652
 7097TIP3   OH221231   3.934   7.190   5.206
 7097TIP3    H121232   3.866   7.135   5.244
 7097TIP3    H221233   3.887   7.264   5.168
 7098TIP3   OH221234   3.820   7.489   1.689
 7098TIP3    H121235   3.809   7.488   1.594
 7098TIP3    H221236   3.781   7.407   1.719
 7099TIP3   OH221237   3.278   1.972   2.948
 7099TIP3    H121238   3.264   1.880   2.971
 7099TIP3    H221239   3.368   1.974   2.915
 7100TIP3   OH221240   2.025   5.504   4.636
 7100TIP3    H121241   1.974   5.584   4.627
 7100TIP3    H221242   2.003   5.471   4.723
 7101TIP3   OH221243   7.393  -0.044   2.204
 7101TIP3    H121244   7.452   0.031   2.191
 7101TIP3    H221245   7.380  -0.048   2.299
 7102TIP3   OH221246   0.329   1.992   2.178
 7102TIP3    H121247   0.266   1.951   2.237
 7102TIP3    H221248   0.295   1.973   2.090
 7103TIP3   OH221249   2.389   5.869   1.001
 7103TIP3    H121250   2.386   5.923   1.080
 7103TIP3    H221251   2.321   5.906   0.945
 7104TIP3   OH221252   4.119   4.599   3.189
 7104TIP3    H121253   4.186   4.533   3.170
 7104TIP3    H221254   4.115   4.653   3.110
 7105TIP3   OH221255   5.655   6.857   3.408
 7105TIP3    H121256   5.718   6.811   3.352
 7105TIP3    H221257   5.701   6.936   3.437
 7106TIP3   OH221258   2.405   1.207   0.051
 7106TIP3    H121259   2.342   1.145   0.088
 7106TIP3    H221260   2.366   1.293   0.069
 7107TIP3   OH221261   0.526   0.935   2.515
 7107TIP3    H121262   0.584   0.903   2.585
 7107TIP3    H221263   0.438   0.927   2.552
 7108TIP3   OH221264   2.035   2.288   0.664
 7108TIP3    H121265   1.951   2.333   0.655
 7108TIP3    H221266   2.039   2.261   0.755
 7109TIP3   OH221267   7.877   5.575   3.752
 7109TIP3    H121268   7.918   5.576   3.666
 7109TIP3    H221269   7.828   5.493   3.756
 7110TIP3   OH221270   1.490   5.252   3.478
 7110TIP3    H121271   1.442   5.169   3.477
 7110TIP3    H221272   1.580   5.228   3.499
 7111TIP3   OH221273   0.777   6.011   4.941
 7111TIP3    H121274   0.811   6.068   4.872
 7111TIP3    H221275   0.683   6.006   4.924
 7112TIP3   OH221276   2.709   6.859   1.490
 7112TIP3    H121277   2.660   6.777   1.486
 7112TIP3    H221278   2.652   6.923   1.446
 7113TIP3   OH221279   3.125   0.030   4.828
 7113TIP3    H121280   3.114  -0.057   4.866
 7113TIP3    H221281   3.038   0.070   4.832
 7114TIP3   OH221282   0.970   7.429   2.306
 7114TIP3    H121283   1.045   7.385   2.267
 7114TIP3    H221284   0.894   7.378   2.278
 7115TIP3   OH221285   2.065   0.118   4.049
 7115TIP3    H121286   2.058   0.152   4.138
 7115TIP3    H221287   1.988   0.151   4.004
 7116TIP3   OH221288   0.708   5.413   0.598
 7116TIP3    H121289   0.800   5.435   0.584
 7116TIP3    H221290   0.673   5.484   0.651
 7117TIP3   OH221291   6.005   2.749   1.020
 7117TIP3    H121292   6.096   2.735   1.046
 7117TIP3    H221293   5.962   2.779   1.100
 7118TIP3   OH221294   5.690   1.773   4.336
 7118TIP3    H121295   5.697   1.865   4.358
 7118TIP3    H221296   5.737   1.727   4.406
 7119TIP3   OH221297   3.879   2.106   0.360
 7119TIP3    H121298   3.911   2.021   0.328
 7119TIP3    H221299   3.941   2.170   0.325
 7120TIP3   OH221300   6.740   2.969   4.499
 7120TIP3    H121301   6.653   2.989   4.467
 7120TIP3    H221302   6.774   2.903   4.438
 7121TIP3   OH221303   6.856   5.646   2.846
 7121TIP3    H121304   6.938   5.690   2.871
 7121TIP3    H221305   6.872   5.553   2.863
 7122TIP3   OH221306   2.536   6.559   2.186
 7122TIP3    H121307   2.496   6.606   2.113
 7122TIP3    H221308   2.624   6.538   2.156
 7123TIP3   OH221309   1.921   0.934   0.123
 7123TIP3    H121310   1.854   0.937   0.191
 7123TIP3    H221311   1.976   1.010   0.139
 7124TIP3   OH221312   4.096   6.473   6.157
 7124TIP3    H121313   4.152   6.501   6.085
 7124TIP3    H221314   4.068   6.384   6.132
 7125TIP3   OH221315   6.594   5.476   4.983
 7125TIP3    H121316   6.663   5.489   4.919
 7125TIP3    H221317   6.538   5.553   4.976
 7126TIP3   OH221318   6.409   6.428   6.202
 7126TIP3    H121319   6.479   6.384   6.153
 7126TIP3    H221320   6.421   6.398   6.292
 7127TIP3   OH221321   4.384   3.492   6.473
 7127TIP3    H121322   4.447   3.477   6.403
 7127TIP3    H221323   4.342   3.576   6.450
 7128TIP3   OH221324   2.996   4.571   3.654
 7128TIP3    H121325   3.012   4.532   3.568
 7128TIP3    H221326   2.911   4.613   3.646
 7129TIP3   OH221327   4.064   6.924   5.093
 7129TIP3    H121328   4.078   7.012   5.127
 7129TIP3    H221329   3.977   6.928   5.053
 7130TIP3   OH221330   4.069   5.876   1.551
 7130TIP3    H121331   4.151   5.828   1.541
 7130TIP3    H221332   4.090   5.965   1.522
 7131TIP3   OH221333   8.295   0.135   2.723
 7131TIP3    H121334   8.356   0.132   2.796
 7131TIP3    H221335   8.324   0.065   2.664
 7132TIP3   OH221336   6.488   7.413   0.191
 7132TIP3    H121337   6.544   7.488   0.173
 7132TIP3    H221338   6.431   7.406   0.114
 7133TIP3   OH221339   0.822   6.171   0.626
 7133TIP3    H121340   0.848   6.079   0.631
 7133TIP3    H221341   0.888   6.211   0.569
 7134TIP3   OH221342   5.469   6.344   0.506
 7134TIP3    H121343   5.522   6.375   0.432
 7134TIP3    H221344   5.523   6.362   0.583
 7135TIP3   OH221345   2.242   7.817   2.726
 7135TIP3    H121346   2.315   7.762   2.754
 7135TIP3    H221347   2.219   7.786   2.639
 7136TIP3   OH221348   7.070   4.657   3.330
 7136TIP3    H121349   7.067   4.597   3.405
 7136TIP3    H221350   7.043   4.603   3.256
 7137TIP3   OH221351   0.903   2.509   1.592
 7137TIP3    H121352   0.890   2.598   1.625
 7137TIP3    H221353   0.865   2.453   1.660
 7138TIP3   OH221354   3.309   6.157   1.427
 7138TIP3    H121355   3.381   6.145   1.490
 7138TIP3    H221356   3.271   6.242   1.449
 7139TIP3   OH221357   4.664   5.919   5.078
 7139TIP3    H121358   4.750   5.888   5.050
 7139TIP3    H221359   4.681   5.971   5.156
 7140TIP3   OH221360   1.302   1.529   4.807
 7140TIP3    H121361   1.308   1.488   4.720
 7140TIP3    H221362   1.377   1.492   4.855
 7141TIP3   OH221363   4.960   0.905   0.922
 7141TIP3    H121364   4.981   0.960   0.847
 7141TIP3    H221365   4.936   0.966   0.991
 7142TIP3   OH221366   4.343   1.031   6.727
 7142TIP3    H121367   4.305   1.079   6.653
 7142TIP3    H221368   4.268   0.996   6.774
 7143TIP3   OH221369   1.495   4.792   3.725
 7143TIP3    H121370   1.445   4.728   3.776
 7143TIP3    H221371   1.496   4.870   3.780
 7144TIP3   OH221372   7.981   5.576   1.656
 7144TIP3    H121373   8.040   5.525   1.711
 7144TIP3    H221374   7.987   5.665   1.690
 7145TIP3   OH221375   5.698   5.255   5.634
 7145TIP3    H121376   5.686   5.346   5.604
 7145TIP3    H221377   5.790   5.236   5.614
 7146TIP3   OH221378   5.644   4.973   0.331
 7146TIP3    H121379   5.561   4.948   0.372
 7146TIP3    H221380   5.625   5.055   0.286
 7147TIP3   OH221381   1.675   3.031   0.570
 7147TIP3    H121382   1.678   2.958   0.633
 7147TIP3    H221383   1.697   2.992   0.486
 7148TIP3   OH221384   6.826   6.342   3.395
 7148TIP3    H121385   6.807   6.419   3.448
 7148TIP3    H221386   6.885   6.290   3.449
 7149TIP3   OH221387   3.179   6.926   5.923
 7149TIP3    H121388   3.116   6.900   5.855
 7149TIP3    H221389   3.177   6.855   5.987
 7150TIP3   OH221390   1.985   7.573   5.136
 7150TIP3    H121391   2.073   7.543   5.160
 7150TIP3    H221392   1.954   7.510   5.071
 7151TIP3   OH221393   7.890   4.515   2.787
 7151TIP3    H121394   7.866   4.601   2.753
 7151TIP3    H221395   7.862   4.517   2.879
 7152TIP3   OH221396   0.147   4.414   4.028
 7152TIP3    H121397   0.181   4.389   4.114
 7152TIP3    H221398   0.083   4.346   4.007
 7153TIP3   OH221399   3.597   4.121   6.710
 7153TIP3    H121400   3.625   4.052   6.770
 7153TIP3    H221401   3.669   4.131   6.649
 7154TIP3   OH221402   0.916   0.918   4.891
 7154TIP3    H121403   1.002   0.956   4.906
 7154TIP3    H221404   0.917   0.893   4.798
 7155TIP3   OH221405   2.560   4.040   5.070
 7155TIP3    H121406   2.642   3.992   5.083
 7155TIP3    H221407   2.571   4.085   4.986
 7156TIP3   OH221408   7.245   0.192   1.816
 7156TIP3    H121409   7.260   0.250   1.741
 7156TIP3    H221410   7.270   0.245   1.892
 7157TIP3   OH221411   1.152   5.523   3.104
 7157TIP3    H121412   1.184   5.516   3.015
 7157TIP3    H221413   1.212   5.584   3.147
 7158TIP3   OH221414   0.532   5.689   3.748
 7158TIP3    H121415   0.602   5.659   3.806
 7158TIP3    H221416   0.473   5.738   3.806
 7159TIP3   OH221417   0.575   5.453   3.355
 7159TIP3    H121418   0.567   5.366   3.394
 7159TIP3    H221419   0.518   5.451   3.279
 7160TIP3   OH221420   5.582   4.175   6.909
 7160TIP3    H121421   5.538   4.248   6.867
 7160TIP3    H221422   5.603   4.115   6.837
 7161TIP3   OH221423   0.956   4.467   2.435
 7161TIP3    H121424   0.905   4.426   2.505
 7161TIP3    H221425   0.902   4.456   2.357
 7162TIP3   OH221426   5.027   1.500   5.967
 7162TIP3    H121427   4.961   1.472   5.904
 7162TIP3    H221428   5.022   1.436   6.038
 7163TIP3   OH221429   5.117   6.694   5.699
 7163TIP3    H121430   5.098   6.773   5.749
 7163TIP3    H221431   5.199   6.662   5.736
 7164TIP3   OH221432   4.828   0.994   5.882
 7164TIP3    H121433   4.863   1.064   5.937
 7164TIP3    H221434   4.733   1.001   5.891
 7165TIP3   OH221435   1.858   6.651   0.949
 7165TIP3    H121436   1.918   6.598   0.897
 7165TIP3    H221437   1.879   6.630   1.040
 7166TIP3   OH221438   1.274   2.347   1.472
 7166TIP3    H121439   1.345   2.372   1.413
 7166TIP3    H221440   1.317   2.301   1.544
 7167TIP3   OH221441   5.676   4.875   2.113
 7167TIP3    H121442   5.772   4.880   2.119
 7167TIP3    H221443   5.645   4.954   2.158
 7168TIP3   OH221444   5.818   2.107   0.533
 7168TIP3    H121445   5.726   2.079   0.525
 7168TIP3    H221446   5.846   2.122   0.443
 7169TIP3   OH221447   0.608   2.143   6.614
 7169TIP3    H121448   0.650   2.069   6.658
 7169TIP3    H221449   0.516   2.135   6.636
 7170TIP3   OH221450   5.083   7.176   2.088
 7170TIP3    H121451   5.173   7.143   2.079
 7170TIP3    H221452   5.091   7.251   2.146
 7171TIP3   OH221453   1.870   0.279   3.925
 7171TIP3    H121454   1.948   0.325   3.895
 7171TIP3    H221455   1.800   0.310   3.868
 7172TIP3   OH221456   8.022   2.885   0.913
 7172TIP3    H121457   8.109   2.925   0.910
 7172TIP3    H221458   7.965   2.948   0.869
 7173TIP3   OH221459   7.131   5.961   1.743
 7173TIP3    H121460   7.039   5.956   1.716
 7173TIP3    H221461   7.154   5.871   1.764
 7174TIP3   OH221462   5.101   1.855   4.103
 7174TIP3    H121463   5.136   1.944   4.109
 7174TIP3    H221464   5.145   1.817   4.028
 7175TIP3   OH221465   3.971   2.204   3.926
 7175TIP3    H121466   3.982   2.267   3.998
 7175TIP3    H221467   3.978   2.118   3.968
 7176TIP3   OH221468   6.423   1.387   4.411
 7176TIP3    H121469   6.420   1.335   4.492
 7176TIP3    H221470   6.516   1.397   4.392
 7177TIP3   OH221471   6.280   4.139   2.215
 7177TIP3    H121472   6.280   4.232   2.194
 7177TIP3    H221473   6.336   4.099   2.149
 7178TIP3   OH221474   0.420   0.921   4.396
 7178TIP3    H121475   0.448   0.829   4.398
 7178TIP3    H221476   0.434   0.949   4.306
 7179TIP3   OH221477   3.041   0.487   0.354
 7179TIP3    H121478   3.116   0.443   0.313
 7179TIP3    H221479   3.069   0.501   0.444
 7180TIP3   OH221480   2.593   1.590   2.382
 7180TIP3    H121481   2.600   1.505   2.426
 7180TIP3    H221482   2.570   1.651   2.452
 7181TIP3   OH221483   3.963   6.957   4.576
 7181TIP3    H121484   3.975   7.050   4.555
 7181TIP3    H221485   4.053   6.925   4.589
 7182TIP3   OH221486   7.221   7.628   6.224
 7182TIP3    H121487   7.249   7.542   6.190
 7182TIP3    H221488   7.128   7.616   6.245
 7183TIP3   OH221489   2.678   7.383   6.187
 7183TIP3    H121490   2.648   7.375   6.278
 7183TIP3    H221491   2.597   7.382   6.135
 7184TIP3   OH221492   3.556   3.407   4.685
 7184TIP3    H121493   3.600   3.474   4.736
 7184TIP3    H221494   3.556   3.329   4.740
 7185TIP3   OH221495   6.593   2.319   2.039
 7185TIP3    H121496   6.499   2.334   2.031
 7185TIP3    H221497   6.632   2.368   1.967
 7186TIP3   OH221498   6.069   3.223   1.056
 7186TIP3    H121499   6.046   3.185   0.971
 7186TIP3    H221500   6.024   3.167   1.120
 7187TIP3   OH221501   0.011   5.034   1.116
 7187TIP3    H121502  -0.055   4.967   1.134
 7187TIP3    H221503   0.092   4.998   1.151
 7188TIP3   OH221504   5.050   0.895   2.195
 7188TIP3    H121505   4.963   0.856   2.195
 7188TIP3    H221506   5.040   0.977   2.244
 7189TIP3   OH221507   7.354   6.760   0.335
 7189TIP3    H121508   7.289   6.820   0.373
 7189TIP3    H221509   7.369   6.794   0.247
 7190TIP3   OH221510   1.874   2.091   1.289
 7190TIP3    H121511   1.894   2.079   1.197
 7190TIP3    H221512   1.816   2.167   1.292
 7191TIP3   OH221513   4.196   1.757   4.108
 7191TIP3    H121514   4.118   1.793   4.149
 7191TIP3    H221515   4.165   1.677   4.065
 7192TIP3   OH221516   1.835   6.566   3.863
 7192TIP3    H121517   1.772   6.553   3.934
 7192TIP3    H221518   1.888   6.487   3.863
 7193TIP3   OH221519   6.701   1.040   3.429
 7193TIP3    H121520   6.734   1.119   3.386
 7193TIP3    H221521   6.775   0.979   3.427
 7194TIP3   OH221522   6.500   1.144   2.968
 7194TIP3    H121523   6.450   1.080   3.019
 7194TIP3    H221524   6.433   1.195   2.922
 7195TIP3   OH221525   8.102   4.243   2.670
 7195TIP3    H121526   8.070   4.167   2.718
 7195TIP3    H221527   8.096   4.315   2.733
 7196TIP3   OH221528   0.410   3.280   4.034
 7196TIP3    H121529   0.477   3.279   3.966
 7196TIP3    H221530   0.345   3.216   4.004
 7197TIP3   OH221531   5.654   1.489   1.768
 7197TIP3    H121532   5.675   1.400   1.741
 7197TIP3    H221533   5.713   1.544   1.717
 7198TIP3   OH221534   7.303   3.165   5.694
 7198TIP3    H121535   7.384   3.115   5.680
 7198TIP3    H221536   7.256   3.114   5.760
 7199TIP3   OH221537   3.329   2.461   1.950
 7199TIP3    H121538   3.386   2.390   1.918
 7199TIP3    H221539   3.250   2.416   1.979
 7200TIP3   OH221540   5.609   5.157   4.703
 7200TIP3    H121541   5.599   5.067   4.736
 7200TIP3    H221542   5.681   5.193   4.755
 7201TIP3   OH221543   7.015   7.637   3.279
 7201TIP3    H121544   6.989   7.658   3.369
 7201TIP3    H221545   6.986   7.712   3.227
 7202TIP3   OH221546   1.848   1.732   0.933
 7202TIP3    H121547   1.766   1.781   0.926
 7202TIP3    H221548   1.846   1.671   0.859
 7203TIP3   OH221549   5.792   4.569   0.696
 7203TIP3    H121550   5.841   4.491   0.672
 7203TIP3    H221551   5.845   4.642   0.665
 7204TIP3   OH221552   1.020   7.419   4.667
 7204TIP3    H121553   1.058   7.495   4.712
 7204TIP3    H221554   1.088   7.352   4.671
 7205TIP3   OH221555   1.605   5.729   4.945
 7205TIP3    H121556   1.514   5.699   4.956
 7205TIP3    H221557   1.658   5.650   4.957
 7206TIP3   OH221558   4.420   4.634   2.101
 7206TIP3    H121559   4.330   4.607   2.117
 7206TIP3    H221560   4.473   4.573   2.153
 7207TIP3   OH221561   1.788   2.203   3.503
 7207TIP3    H121562   1.786   2.113   3.535
 7207TIP3    H221563   1.709   2.243   3.539
 7208TIP3   OH221564   3.215   1.342   5.136
 7208TIP3    H121565   3.277   1.411   5.113
 7208TIP3    H221566   3.240   1.316   5.225
 7209TIP3   OH221567   3.470   3.859   4.957
 7209TIP3    H121568   3.447   3.780   5.005
 7209TIP3    H221569   3.483   3.830   4.867
 7210TIP3   OH221570   5.123   6.015   6.701
 7210TIP3    H121571   5.182   6.049   6.768
 7210TIP3    H221572   5.107   5.924   6.727
 7211TIP3   OH221573   4.985   4.081   6.691
 7211TIP3    H121574   4.951   3.993   6.671
 7211TIP3    H221575   5.074   4.066   6.722
 7212TIP3   OH221576   1.778   2.411   0.518
 7212TIP3    H121577   1.728   2.330   0.514
 7212TIP3    H221578   1.758   2.447   0.604
 7213TIP3   OH221579   5.072   2.537   2.005
 7213TIP3    H121580   5.085   2.461   1.948
 7213TIP3    H221581   5.148   2.537   2.063
 7214TIP3   OH221582   1.586   3.278   5.186
 7214TIP3    H121583   1.650   3.271   5.257
 7214TIP3    H221584   1.518   3.335   5.222
 7215TIP3   OH221585   0.459   1.691   2.933
 7215TIP3    H121586   0.477   1.773   2.888
 7215TIP3    H221587   0.540   1.671   2.981
 7216TIP3   OH221588   3.399   5.742   0.290
 7216TIP3    H121589   3.316   5.715   0.250
 7216TIP3    H221590   3.376   5.817   0.345
 7217TIP3   OH221591   4.144   4.491   4.257
 7217TIP3    H121592   4.097   4.555   4.310
 7217TIP3    H221593   4.179   4.429   4.320
 7218TIP3   OH221594   3.990   6.199   6.736
 7218TIP3    H121595   3.905   6.218   6.775
 7218TIP3    H221596   4.050   6.193   6.810
 7219TIP3   OH221597   8.198   3.508   6.280
 7219TIP3    H121598   8.143   3.452   6.335
 7219TIP3    H221599   8.226   3.578   6.339
 7220TIP3   OH221600   4.904   2.667   0.322
 7220TIP3    H121601   4.992   2.702   0.309
 7220TIP3    H221602   4.853   2.743   0.351
 7221TIP3   OH221603   3.426   7.562   1.165
 7221TIP3    H121604   3.437   7.562   1.260
 7221TIP3    H221605   3.495   7.620   1.133
 7222TIP3   OH221606   7.607   6.648   4.152
 7222TIP3    H121607   7.579   6.738   4.138
 7222TIP3    H221608   7.611   6.639   4.248
 7223TIP3   OH221609   1.377   4.051   0.830
 7223TIP3    H121610   1.327   4.125   0.796
 7223TIP3    H221611   1.391   3.995   0.753
 7224TIP3   OH221612   6.248   3.139   1.314
 7224TIP3    H121613   6.153   3.144   1.321
 7224TIP3    H221614   6.278   3.125   1.404
 7225TIP3   OH221615   6.152   4.869   4.487
 7225TIP3    H121616   6.217   4.925   4.531
 7225TIP3    H221617   6.133   4.800   4.550
 7226TIP3   OH221618   1.098   7.830   1.558
 7226TIP3    H121619   1.097   7.923   1.534
 7226TIP3    H221620   1.095   7.783   1.475
 7227TIP3   OH221621   5.019   1.634   3.529
 7227TIP3    H121622   4.960   1.559   3.531
 7227TIP3    H221623   5.094   1.608   3.583
 7228TIP3   OH221624   3.403   2.569   0.650
 7228TIP3    H121625   3.392   2.519   0.730
 7228TIP3    H221626   3.342   2.529   0.588
 7229TIP3   OH221627   5.532   4.331   4.541
 7229TIP3    H121628   5.543   4.424   4.562
 7229TIP3    H221629   5.459   4.328   4.480
 7230TIP3   OH221630   6.598   5.312   4.061
 7230TIP3    H121631   6.687   5.347   4.059
 7230TIP3    H221632   6.550   5.365   3.998
 7231TIP3   OH221633   3.454   1.066   1.276
 7231TIP3    H121634   3.447   1.157   1.306
 7231TIP3    H221635   3.402   1.063   1.196
 7232TIP3   OH221636   6.259   1.114   2.033
 7232TIP3    H121637   6.248   1.130   1.939
 7232TIP3    H221638   6.189   1.052   2.054
 7233TIP3   OH221639   6.327   0.870   5.177
 7233TIP3    H121640   6.347   0.948   5.126
 7233TIP3    H221641   6.412   0.827   5.188
 7234TIP3   OH221642   7.051   3.757   0.863
 7234TIP3    H121643   6.965   3.715   0.862
 7234TIP3    H221644   7.033   3.847   0.889
 7235TIP3   OH221645   5.098   2.879   1.086
 7235TIP3    H121646   5.062   2.853   1.170
 7235TIP3    H221647   5.087   2.803   1.030
 7236TIP3   OH221648   0.944   3.704   4.360
 7236TIP3    H121649   0.898   3.754   4.294
 7236TIP3    H221650   0.911   3.615   4.351
 7237TIP3   OH221651   5.733   2.465   2.344
 7237TIP3    H121652   5.787   2.454   2.423
 7237TIP3    H221653   5.779   2.415   2.277
 7238TIP3   OH221654   5.804   1.679   5.427
 7238TIP3    H121655   5.885   1.716   5.390
 7238TIP3    H221656   5.807   1.586   5.405
 7239TIP3   OH221657   3.105   3.860   2.242
 7239TIP3    H121658   3.039   3.923   2.273
 7239TIP3    H221659   3.120   3.802   2.317
 7240TIP3   OH221660   0.411   5.867   3.992
 7240TIP3    H121661   0.325   5.898   3.966
 7240TIP3    H221662   0.398   5.824   4.076
 7241TIP3   OH221663   5.737   0.787   4.490
 7241TIP3    H121664   5.790   0.867   4.488
 7241TIP3    H221665   5.796   0.720   4.525
 7242TIP3   OH221666   0.716   6.215   1.732
 7242TIP3    H121667   0.672   6.173   1.659
 7242TIP3    H221668   0.729   6.144   1.796
 7243TIP3   OH221669   2.302   3.916   0.398
 7243TIP3    H121670   2.314   3.934   0.305
 7243TIP3    H221671   2.273   3.825   0.401
 7244TIP3   OH221672   7.154   6.669   5.710
 7244TIP3    H121673   7.074   6.660   5.762
 7244TIP3    H221674   7.199   6.586   5.721
 7245TIP3   OH221675   4.868   3.240   5.016
 7245TIP3    H121676   4.820   3.161   4.990
 7245TIP3    H221677   4.837   3.308   4.957
 7246TIP3   OH221678   4.172   6.710   2.669
 7246TIP3    H121679   4.094   6.759   2.643
 7246TIP3    H221680   4.245   6.768   2.647
 7247TIP3   OH221681   3.677   7.293   2.399
 7247TIP3    H121682   3.760   7.333   2.426
 7247TIP3    H221683   3.650   7.345   2.323
 7248TIP3   OH221684   6.442   1.557   1.264
 7248TIP3    H121685   6.534   1.552   1.240
 7248TIP3    H221686   6.435   1.635   1.319
 7249TIP3   OH221687   7.990   2.710   5.379
 7249TIP3    H121688   7.960   2.624   5.349
 7249TIP3    H221689   8.055   2.690   5.447
 7250TIP3   OH221690   2.895   7.763   6.186
 7250TIP3    H121691   2.845   7.798   6.260
 7250TIP3    H221692   2.959   7.704   6.226
 7251TIP3   OH221693   0.105   2.440   1.192
 7251TIP3    H121694   0.016   2.425   1.161
 7251TIP3    H221695   0.100   2.525   1.236
 7252TIP3   OH221696   3.114   5.655   2.781
 7252TIP3    H121697   3.166   5.666   2.701
 7252TIP3    H221698   3.178   5.665   2.852
 7253TIP3   OH221699   3.781   5.587   4.926
 7253TIP3    H121700   3.762   5.672   4.885
 7253TIP3    H221701   3.832   5.609   5.004
 7254TIP3   OH221702   7.827   2.547   0.035
 7254TIP3    H121703   7.820   2.468   0.089
 7254TIP3    H221704   7.909   2.536  -0.012
 7255TIP3   OH221705   1.515   7.696   4.831
 7255TIP3    H121706   1.476   7.644   4.901
 7255TIP3    H221707   1.532   7.781   4.872
 7256TIP3   OH221708   3.034   6.428   3.260
 7256TIP3    H121709   2.942   6.403   3.261
 7256TIP3    H221710   3.075   6.369   3.323
 7257TIP3   OH221711   4.885   2.828   1.265
 7257TIP3    H121712   4.809   2.862   1.312
 7257TIP3    H221713   4.848   2.786   1.187
 7258TIP3   OH221714   8.179   3.273   3.468
 7258TIP3    H121715   8.104   3.304   3.417
 7258TIP3    H221716   8.252   3.327   3.436
 7259TIP3   OH221717   5.897   7.833   3.465
 7259TIP3    H121718   5.934   7.921   3.476
 7259TIP3    H221719   5.812   7.837   3.508
 7260TIP3   OH221720   5.560   3.584   0.716
 7260TIP3    H121721   5.524   3.582   0.805
 7260TIP3    H221722   5.574   3.677   0.698
 7261TIP3   OH221723   6.136   6.899   4.135
 7261TIP3    H121724   6.057   6.951   4.118
 7261TIP3    H221725   6.199   6.962   4.170
 7262TIP3   OH221726   0.355   3.528   6.433
 7262TIP3    H121727   0.349   3.439   6.399
 7262TIP3    H221728   0.423   3.570   6.380
 7263TIP3   OH221729   2.411   0.710   1.954
 7263TIP3    H121730   2.492   0.684   1.910
 7263TIP3    H221731   2.390   0.635   2.011
 7264TIP3   OH221732   0.629   0.912   0.025
 7264TIP3    H121733   0.630   0.831   0.075
 7264TIP3    H221734   0.647   0.885  -0.065
 7265TIP3   OH221735   4.873   6.496   5.637
 7265TIP3    H121736   4.897   6.432   5.570
 7265TIP3    H221737   4.957   6.533   5.666
 7266TIP3   OH221738   2.478   2.236   0.901
 7266TIP3    H121739   2.412   2.193   0.846
 7266TIP3    H221740   2.429   2.299   0.954
 7267TIP3   OH221741   7.330   7.317   2.732
 7267TIP3    H121742   7.359   7.358   2.813
 7267TIP3    H221743   7.234   7.322   2.735
 7268TIP3   OH221744   5.821   7.053   4.908
 7268TIP3    H121745   5.851   7.106   4.981
 7268TIP3    H221746   5.893   6.991   4.892
 7269TIP3   OH221747   6.034   6.459   1.779
 7269TIP3    H121748   6.084   6.380   1.759
 7269TIP3    H221749   5.983   6.475   1.700
 7270TIP3   OH221750   6.211   2.824   4.751
 7270TIP3    H121751   6.165   2.897   4.710
 7270TIP3    H221752   6.304   2.846   4.742
 7271TIP3   OH221753   5.066   2.339   5.170
 7271TIP3    H121754   5.159   2.349   5.153
 7271TIP3    H221755   5.060   2.259   5.223
 7272TIP3   OH221756   3.050   3.547   2.476
 7272TIP3    H121757   3.133   3.584   2.447
 7272TIP3    H221758   3.049   3.458   2.439
 7273TIP3   OH221759   0.160   7.621   4.646
 7273TIP3    H121760   0.210   7.541   4.663
 7273TIP3    H221761   0.144   7.620   4.552
 7274TIP3   OH221762   6.356   0.940   0.201
 7274TIP3    H121763   6.322   0.990   0.127
 7274TIP3    H221764   6.443   0.912   0.173
 7275TIP3   OH221765   7.659   6.285   2.773
 7275TIP3    H121766   7.720   6.351   2.739
 7275TIP3    H221767   7.650   6.307   2.866
 7276TIP3   OH221768   1.258   5.362   4.523
 7276TIP3    H121769   1.242   5.368   4.618
 7276TIP3    H221770   1.296   5.446   4.500
 7277TIP3   OH221771   6.398   7.615   6.431
 7277TIP3    H121772   6.480   7.570   6.410
 7277TIP3    H221773   6.351   7.553   6.487
 7278TIP3   OH221774   3.310   5.648   6.508
 7278TIP3    H121775   3.316   5.607   6.594
 7278TIP3    H221776   3.219   5.637   6.482
 7279TIP3   OH221777   0.760   4.917   2.939
 7279TIP3    H121778   0.717   4.861   2.875
 7279TIP3    H221779   0.847   4.934   2.904
 7280TIP3   OH221780   2.824   4.376   4.365
 7280TIP3    H121781   2.801   4.453   4.313
 7280TIP3    H221782   2.786   4.393   4.451
 7281TIP3   OH221783   8.123   1.181   2.294
 7281TIP3    H121784   8.106   1.227   2.376
 7281TIP3    H221785   8.207   1.217   2.263
 7282TIP3   OH221786   5.308   3.222   6.075
 7282TIP3    H121787   5.347   3.149   6.027
 7282TIP3    H221788   5.305   3.293   6.011
 7283TIP3   OH221789   7.264   3.583   0.086
 7283TIP3    H121790   7.329   3.582   0.015
 7283TIP3    H221791   7.270   3.495   0.124
 7284TIP3   OH221792   6.852   7.277   1.378
 7284TIP3    H121793   6.930   7.277   1.322
 7284TIP3    H221794   6.876   7.331   1.453
 7285TIP3   OH221795   6.949   4.056   6.108
 7285TIP3    H121796   6.954   4.079   6.201
 7285TIP3    H221797   6.867   4.008   6.099
 7286TIP3   OH221798   6.763   5.416   2.114
 7286TIP3    H121799   6.703   5.456   2.177
 7286TIP3    H221800   6.758   5.322   2.131
 7287TIP3   OH221801   3.522   4.523   5.950
 7287TIP3    H121802   3.579   4.455   5.987
 7287TIP3    H221803   3.557   4.540   5.863
 7288TIP3   OH221804   3.958   5.481   6.055
 7288TIP3    H121805   3.951   5.395   6.097
 7288TIP3    H221806   3.885   5.531   6.091
 7289TIP3   OH221807   3.575   7.639   5.050
 7289TIP3    H121808   3.483   7.664   5.041
 7289TIP3    H221809   3.612   7.702   5.112
 7290TIP3   OH221810   3.870   6.556   4.162
 7290TIP3    H121811   3.911   6.643   4.159
 7290TIP3    H221812   3.790   6.566   4.111
 7291TIP3   OH221813   7.998   5.252   1.387
 7291TIP3    H121814   7.921   5.257   1.443
 7291TIP3    H221815   8.068   5.223   1.446
 7292TIP3   OH221816   1.888   1.100   4.466
 7292TIP3    H121817   1.912   1.013   4.432
 7292TIP3    H221818   1.806   1.085   4.513
 7293TIP3   OH221819   3.303   0.886   3.209
 7293TIP3    H121820   3.254   0.805   3.213
 7293TIP3    H221821   3.385   0.867   3.256
 7294TIP3   OH221822   7.232   4.834   4.586
 7294TIP3    H121823   7.271   4.890   4.520
 7294TIP3    H221824   7.263   4.869   4.670
 7295TIP3   OH221825   5.577   3.711   5.925
 7295TIP3    H121826   5.670   3.716   5.901
 7295TIP3    H221827   5.576   3.723   6.020
 7296TIP3   OH221828   4.482   2.694   5.363
 7296TIP3    H121829   4.543   2.725   5.430
 7296TIP3    H221830   4.518   2.610   5.335
 7297TIP3   OH221831   1.008   2.912   4.029
 7297TIP3    H121832   0.958   2.974   4.083
 7297TIP3    H221833   0.990   2.826   4.067
 7298TIP3   OH221834   6.503   1.793   2.691
 7298TIP3    H121835   6.426   1.741   2.715
 7298TIP3    H221836   6.554   1.799   2.772
 7299TIP3   OH221837   4.100   4.701   5.028
 7299TIP3    H121838   4.095   4.680   4.935
 7299TIP3    H221839   4.047   4.780   5.038
 7300TIP3   OH221840   5.359   6.425   6.491
 7300TIP3    H121841   5.435   6.387   6.535
 7300TIP3    H221842   5.343   6.367   6.416
 7301TIP3   OH221843   5.835   3.540   3.902
 7301TIP3    H121844   5.929   3.548   3.917
 7301TIP3    H221845   5.809   3.623   3.862
 7302TIP3   OH221846   1.951   5.865   6.144
 7302TIP3    H121847   1.931   5.778   6.180
 7302TIP3    H221848   1.867   5.910   6.142
 7303TIP3   OH221849   6.322   7.351   2.843
 7303TIP3    H121850   6.259   7.419   2.869
 7303TIP3    H221851   6.406   7.383   2.875
 7304TIP3   OH221852   2.139   1.955   1.636
 7304TIP3    H121853   2.117   1.914   1.553
 7304TIP3    H221854   2.180   1.885   1.688
 7305TIP3   OH221855   5.002   2.049   2.725
 7305TIP3    H121856   4.973   2.000   2.648
 7305TIP3    H221857   5.088   2.013   2.745
 7306TIP3   OH221858   5.414   6.211   5.329
 7306TIP3    H121859   5.440   6.132   5.376
 7306TIP3    H221860   5.463   6.206   5.247
 7307TIP3   OH221861   8.013   4.362   4.411
 7307TIP3    H121862   7.943   4.297   4.420
 7307TIP3    H221863   8.062   4.334   4.334
 7308TIP3   OH221864   8.044   4.835   6.747
 7308TIP3    H121865   8.007   4.919   6.776
 7308TIP3    H221866   8.020   4.829   6.654
 7309TIP3   OH221867   2.944   4.736   3.123
 7309TIP3    H121868   2.967   4.826   3.144
 7309TIP3    H221869   2.913   4.739   3.032
 7310TIP3   OH221870   6.744   4.021   4.023
 7310TIP3    H121871   6.699   3.980   3.949
 7310TIP3    H221872   6.682   4.086   4.056
 7311TIP3   OH221873   8.327   0.194   0.013
 7311TIP3    H121874   8.304   0.103  -0.007
 7311TIP3    H221875   8.402   0.187   0.072
 7312TIP3   OH221876   1.099   1.862   4.567
 7312TIP3    H121877   1.175   1.876   4.511
 7312TIP3    H221878   1.087   1.945   4.613
 7313TIP3   OH221879   1.306   1.335   5.094
 7313TIP3    H121880   1.296   1.428   5.078
 7313TIP3    H221881   1.400   1.319   5.086
 7314TIP3   OH221882   2.219   7.527   0.123
 7314TIP3    H121883   2.272   7.448   0.111
 7314TIP3    H221884   2.154   7.522   0.053
 7315TIP3   OH221885   4.014   3.370   4.705
 7315TIP3    H121886   3.961   3.400   4.631
 7315TIP3    H221887   3.994   3.277   4.714
 7316TIP3   OH221888   1.755   4.644   1.859
 7316TIP3    H121889   1.782   4.726   1.818
 7316TIP3    H221890   1.665   4.660   1.887
 7317TIP3   OH221891   7.347   5.234   4.560
 7317TIP3    H121892   7.426   5.236   4.615
 7317TIP3    H221893   7.318   5.325   4.557
 7318TIP3   OH221894   2.090   4.977   3.856
 7318TIP3    H121895   2.024   4.922   3.898
 7318TIP3    H221896   2.123   5.033   3.927
 7319TIP3   OH221897   0.660   2.898   4.299
 7319TIP3    H121898   0.687   2.966   4.237
 7319TIP3    H221899   0.735   2.887   4.357
 7320TIP3   OH221900   7.707   1.336   5.365
 7320TIP3    H121901   7.767   1.397   5.321
 7320TIP3    H221902   7.725   1.348   5.458
 7321TIP3   OH221903   1.074   1.694   3.409
 7321TIP3    H121904   1.138   1.751   3.366
 7321TIP3    H221905   1.123   1.614   3.428
 7322TIP3   OH221906   2.109   2.701   3.788
 7322TIP3    H121907   2.091   2.687   3.695
 7322TIP3    H221908   2.204   2.710   3.793
 7323TIP3   OH221909   3.611   6.077   6.538
 7323TIP3    H121910   3.556   5.999   6.529
 7323TIP3    H221911   3.700   6.043   6.550
 7324TIP3   OH221912   0.284   3.247   4.776
 7324TIP3    H121913   0.218   3.179   4.765
 7324TIP3    H221914   0.368   3.202   4.764
 7325TIP3   OH221915   3.139   0.001   1.695
 7325TIP3    H121916   3.129   0.053   1.616
 7325TIP3    H221917   3.051  -0.033   1.712
 7326TIP3   OH221918   6.159   7.077   6.596
 7326TIP3    H121919   6.077   7.063   6.644
 7326TIP3    H221920   6.141   7.153   6.541
 7327TIP3   OH221921   6.522   6.772   0.597
 7327TIP3    H121922   6.507   6.765   0.503
 7327TIP3    H221923   6.543   6.864   0.611
 7328TIP3   OH221924   4.895   1.335   2.323
 7328TIP3    H121925   4.801   1.326   2.340
 7328TIP3    H221926   4.931   1.365   2.407
 7329TIP3   OH221927   4.135   0.042   1.202
 7329TIP3    H121928   4.156   0.079   1.288
 7329TIP3    H221929   4.172   0.104   1.139
 7330TIP3   OH221930   3.700   6.321   6.580
 7330TIP3    H121931   3.762   6.333   6.508
 7330TIP3    H221932   3.664   6.234   6.566
 7331TIP3   OH221933   7.198   6.706   1.629
 7331TIP3    H121934   7.264   6.750   1.684
 7331TIP3    H221935   7.247   6.637   1.585
 7332TIP3   OH221936   0.439   6.310   5.729
 7332TIP3    H121937   0.429   6.386   5.670
 7332TIP3    H221938   0.532   6.308   5.749
 7333TIP3   OH221939   1.911   5.993   2.218
 7333TIP3    H121940   1.900   5.915   2.273
 7333TIP3    H221941   2.005   5.997   2.200
 7334TIP3   OH221942   7.586   4.755   6.249
 7334TIP3    H121943   7.535   4.679   6.274
 7334TIP3    H221944   7.523   4.814   6.208
 7335TIP3   OH221945   2.388   4.339   2.628
 7335TIP3    H121946   2.386   4.246   2.652
 7335TIP3    H221947   2.340   4.382   2.699
 7336TIP3   OH221948   0.996   4.724   2.594
 7336TIP3    H121949   0.975   4.793   2.531
 7336TIP3    H221950   1.028   4.652   2.541
 7337TIP3   OH221951   1.498   5.523   5.883
 7337TIP3    H121952   1.450   5.466   5.822
 7337TIP3    H221953   1.490   5.611   5.844
 7338TIP3   OH221954   5.270   1.236   6.823
 7338TIP3    H121955   5.298   1.148   6.851
 7338TIP3    H221956   5.352   1.284   6.813
 7339TIP3   OH221957   1.774   7.257   6.545
 7339TIP3    H121958   1.793   7.327   6.483
 7339TIP3    H221959   1.859   7.237   6.585
 7340TIP3   OH221960   6.750   0.453   3.060
 7340TIP3    H121961   6.702   0.377   3.028
 7340TIP3    H221962   6.779   0.427   3.148
 7341TIP3   OH221963   7.740   5.807   5.516
 7341TIP3    H121964   7.664   5.858   5.488
 7341TIP3    H221965   7.815   5.849   5.473
 7342TIP3   OH221966   4.451   7.518   3.973
 7342TIP3    H121967   4.357   7.533   3.986
 7342TIP3    H221968   4.469   7.438   4.023
 7343TIP3   OH221969   3.303   0.902   3.903
 7343TIP3    H121970   3.278   0.994   3.909
 7343TIP3    H221971   3.221   0.856   3.889
 7344TIP3   OH221972   0.546   0.699   4.257
 7344TIP3    H121973   0.621   0.729   4.205
 7344TIP3    H221974   0.471   0.711   4.199
 7345TIP3   OH221975   1.534   2.942   5.688
 7345TIP3    H121976   1.590   2.936   5.765
 7345TIP3    H221977   1.446   2.954   5.723
 7346TIP3   OH221978   4.441   4.455   2.554
 7346TIP3    H121979   4.423   4.364   2.532
 7346TIP3    H221980   4.533   4.468   2.531
 7347TIP3   OH221981   3.555   2.253   3.976
 7347TIP3    H121982   3.583   2.165   3.949
 7347TIP3    H221983   3.610   2.273   4.052
 7348TIP3   OH221984   0.063   7.717   2.264
 7348TIP3    H121985   0.152   7.733   2.232
 7348TIP3    H221986   0.015   7.688   2.186
 7349TIP3   OH221987   5.285   7.268   3.135
 7349TIP3    H121988   5.241   7.195   3.091
 7349TIP3    H221989   5.378   7.248   3.128
 7350TIP3   OH221990   8.297   0.798   6.449
 7350TIP3    H121991   8.360   0.832   6.385
 7350TIP3    H221992   8.249   0.875   6.479
 7351TIP3   OH221993   7.395   2.637   2.801
 7351TIP3    H121994   7.357   2.708   2.750
 7351TIP3    H221995   7.434   2.679   2.877
 7352TIP3   OH221996   5.732   5.280   1.610
 7352TIP3    H121997   5.680   5.345   1.657
 7352TIP3    H221998   5.764   5.327   1.533
 7353TIP3   OH221999   4.642   7.926   5.499
 7353TIP3    H122000   4.558   7.886   5.476
 7353TIP3    H222001   4.704   7.853   5.502
 7354TIP3   OH222002   4.834   3.017   0.634
 7354TIP3    H122003   4.813   3.040   0.725
 7354TIP3    H222004   4.844   2.922   0.635
 7355TIP3   OH222005   4.017   2.858   2.205
 7355TIP3    H122006   4.034   2.863   2.299
 7355TIP3    H222007   3.956   2.930   2.188
 7356TIP3   OH222008   4.983   0.219   4.344
 7356TIP3    H122009   4.965   0.303   4.387
 7356TIP3    H222010   4.934   0.221   4.263
 7357TIP3   OH222011   2.376   3.568   2.795
 7357TIP3    H122012   2.327   3.486   2.798
 7357TIP3    H222013   2.405   3.583   2.885
 7358TIP3   OH222014   2.095   0.741   6.761
 7358TIP3    H122015   2.014   0.776   6.723
 7358TIP3    H222016   2.066   0.697   6.841
 7359TIP3   OH222017   1.306   0.294   0.529
 7359TIP3    H122018   1.389   0.306   0.484
 7359TIP3    H222019   1.328   0.246   0.608
 7360TIP3   OH222020   4.891   3.744   5.049
 7360TIP3    H122021   4.853   3.684   5.113
 7360TIP3    H222022   4.892   3.694   4.967
 7361TIP3   OH222023   2.561   2.332   4.649
 7361TIP3    H122024   2.477   2.299   4.681
 7361TIP3    H222025   2.537   2.399   4.584
 7362TIP3   OH222026   3.184   7.708   2.201
 7362TIP3    H122027   3.278   7.725   2.209
 7362TIP3    H222028   3.144   7.795   2.199
 7363TIP3   OH222029   7.512   4.664   4.817
 7363TIP3    H122030   7.579   4.725   4.786
 7363TIP3    H222031   7.487   4.614   4.740
 7364TIP3   OH222032   7.343   1.431   0.078
 7364TIP3    H122033   7.418   1.371   0.071
 7364TIP3    H222034   7.341   1.476  -0.007
 7365TIP3   OH222035   2.066   1.650   3.592
 7365TIP3    H122036   2.035   1.639   3.502
 7365TIP3    H222037   1.988   1.637   3.646
 7366TIP3   OH222038   1.811   3.554   6.122
 7366TIP3    H122039   1.890   3.553   6.068
 7366TIP3    H222040   1.839   3.517   6.206
 7367TIP3   OH222041   0.904   1.674   4.068
 7367TIP3    H122042   0.846   1.626   4.009
 7367TIP3    H222043   0.878   1.646   4.155
 7368TIP3   OH222044   4.006   3.629   4.792
 7368TIP3    H122045   4.011   3.577   4.712
 7368TIP3    H222046   4.078   3.691   4.785
 7369TIP3   OH222047   2.483   6.736   1.454
 7369TIP3    H122048   2.397   6.694   1.458
 7369TIP3    H222049   2.518   6.711   1.368
 7370TIP3   OH222050   2.720   5.286   0.529
 7370TIP3    H122051   2.651   5.316   0.588
 7370TIP3    H222052   2.729   5.356   0.464
 7371TIP3   OH222053   8.115   3.790   4.548
 7371TIP3    H122054   8.139   3.854   4.482
 7371TIP3    H222055   8.167   3.712   4.526
 7372TIP3   OH222056   2.024   5.700   1.871
 7372TIP3    H122057   2.084   5.702   1.797
 7372TIP3    H222058   1.969   5.623   1.856
 7373TIP3   OH222059   1.384   4.482   1.290
 7373TIP3    H122060   1.365   4.465   1.382
 7373TIP3    H222061   1.340   4.565   1.272
 7374TIP3   OH222062   8.135   0.644   2.649
 7374TIP3    H122063   8.041   0.634   2.664
 7374TIP3    H222064   8.149   0.738   2.644
 7375TIP3   OH222065   6.216   0.489   4.715
 7375TIP3    H122066   6.222   0.460   4.806
 7375TIP3    H222067   6.300   0.532   4.698
 7376TIP3   OH222068   1.039   6.297   6.293
 7376TIP3    H122069   1.039   6.316   6.387
 7376TIP3    H222070   0.983   6.365   6.255
 7377TIP3   OH222071   5.838   6.420   2.780
 7377TIP3    H122072   5.831   6.490   2.846
 7377TIP3    H222073   5.903   6.360   2.816
 7378TIP3   OH222074   4.344   6.883   1.413
 7378TIP3    H122075   4.384   6.966   1.439
 7378TIP3    H222076   4.416   6.832   1.377
 7379TIP3   OH222077   7.714   5.374   6.798
 7379TIP3    H122078   7.632   5.326   6.784
 7379TIP3    H222079   7.760   5.322   6.864
 7380TIP3   OH222080   3.390   4.507   0.222
 7380TIP3    H122081   3.339   4.520   0.301
 7380TIP3    H222082   3.455   4.578   0.223
 7381TIP3   OH222083   0.969   3.764   2.785
 7381TIP3    H122084   1.035   3.696   2.771
 7381TIP3    H222085   1.020   3.839   2.817
 7382TIP3   OH222086   7.556   6.606   3.062
 7382TIP3    H122087   7.471   6.624   3.102
 7382TIP3    H222088   7.591   6.693   3.042
 7383TIP3   OH222089   7.663   4.737   5.825
 7383TIP3    H122090   7.676   4.831   5.812
 7383TIP3    H222091   7.678   4.724   5.919
 7384TIP3   OH222092   5.449   5.326   5.694
 7384TIP3    H122093   5.446   5.390   5.765
 7384TIP3    H222094   5.540   5.297   5.692
 7385TIP3   OH222095   8.274   6.424   5.878
 7385TIP3    H122096   8.304   6.464   5.960
 7385TIP3    H222097   8.355   6.399   5.833
 7386TIP3   OH222098   5.990   2.726   1.682
 7386TIP3    H122099   5.981   2.772   1.598
 7386TIP3    H222100   5.962   2.637   1.664
 7387TIP3   OH222101   1.208   2.057   2.846
 7387TIP3    H122102   1.158   2.133   2.815
 7387TIP3    H222103   1.154   1.982   2.820
 7388TIP3   OH222104   2.223   0.400   5.813
 7388TIP3    H122105   2.244   0.396   5.720
 7388TIP3    H222106   2.137   0.442   5.817
 7389TIP3   OH222107   1.945   0.286   3.042
 7389TIP3    H122108   1.995   0.304   3.122
 7389TIP3    H222109   1.893   0.208   3.063
 7390TIP3   OH222110   2.981   3.679   0.293
 7390TIP3    H122111   3.031   3.755   0.264
 7390TIP3    H222112   3.038   3.604   0.273
 7391TIP3   OH222113   7.479   1.179   3.006
 7391TIP3    H122114   7.463   1.170   3.100
 7391TIP3    H222115   7.529   1.101   2.983
 7392TIP3   OH222116   6.553   5.228   2.845
 7392TIP3    H122117   6.499   5.255   2.771
 7392TIP3    H222118   6.490   5.215   2.916
 7393TIP3   OH222119   0.079   3.261   5.887
 7393TIP3    H122120   0.106   3.227   5.802
 7393TIP3    H222121   0.159   3.266   5.938
 7394TIP3   OH222122   1.569   2.216   4.010
 7394TIP3    H122123   1.491   2.200   3.957
 7394TIP3    H222124   1.642   2.182   3.958
 7395TIP3   OH222125   0.077   1.020   1.252
 7395TIP3    H122126   0.145   1.010   1.186
 7395TIP3    H222127   0.002   1.055   1.204
 7396TIP3   OH222128   3.506   0.001   4.355
 7396TIP3    H122129   3.598   0.029   4.354
 7396TIP3    H222130   3.484  -0.014   4.263
 7397TIP3   OH222131   7.622   0.479   3.369
 7397TIP3    H122132   7.543   0.491   3.316
 7397TIP3    H222133   7.680   0.550   3.341
 7398TIP3   OH222134   7.749   0.223   0.552
 7398TIP3    H122135   7.680   0.275   0.512
 7398TIP3    H222136   7.732   0.133   0.523
 7399TIP3   OH222137   7.199   3.510   4.393
 7399TIP3    H122138   7.288   3.498   4.358
 7399TIP3    H222139   7.164   3.584   4.343
 7400TIP3   OH222140   7.411   3.919   5.381
 7400TIP3    H122141   7.412   3.927   5.286
 7400TIP3    H222142   7.325   3.883   5.402
 7401TIP3   OH222143   2.884   1.350   2.859
 7401TIP3    H122144   2.972   1.329   2.826
 7401TIP3    H222145   2.861   1.432   2.816
 7402TIP3   OH222146   6.057   3.167   0.784
 7402TIP3    H122147   5.982   3.216   0.750
 7402TIP3    H222148   6.130   3.228   0.776
 7403TIP3   OH222149   4.841   1.115   6.344
 7403TIP3    H122150   4.897   1.042   6.371
 7403TIP3    H222151   4.778   1.075   6.284
 7404TIP3   OH222152   0.442   4.577   4.441
 7404TIP3    H122153   0.528   4.580   4.401
 7404TIP3    H222154   0.406   4.492   4.415
 7405TIP3   OH222155   6.859   4.342   0.306
 7405TIP3    H122156   6.953   4.359   0.318
 7405TIP3    H222157   6.818   4.428   0.309
 7406TIP3   OH222158   2.381   0.970   2.212
 7406TIP3    H122159   2.321   1.027   2.261
 7406TIP3    H222160   2.367   0.883   2.249
 7407TIP3   OH222161   6.487   0.643   3.205
 7407TIP3    H122162   6.516   0.724   3.162
 7407TIP3    H222163   6.556   0.624   3.268
 7408TIP3   OH222164   4.157   6.752   3.737
 7408TIP3    H122165   4.234   6.699   3.760
 7408TIP3    H222166   4.110   6.699   3.672
 7409TIP3   OH222167   2.702   4.078   1.480
 7409TIP3    H122168   2.691   4.010   1.547
 7409TIP3    H222169   2.795   4.100   1.483
 7410TIP3   OH222170   2.552   4.839   1.558
 7410TIP3    H122171   2.545   4.808   1.467
 7410TIP3    H222172   2.633   4.800   1.590
 7411TIP3   OH222173   2.147   3.712   2.737
 7411TIP3    H122174   2.217   3.673   2.789
 7411TIP3    H222175   2.067   3.668   2.768
 7412TIP3   OH222176   3.672   1.358   5.550
 7412TIP3    H122177   3.668   1.340   5.456
 7412TIP3    H222178   3.619   1.437   5.562
 7413TIP3   OH222179   8.166   7.049   4.722
 7413TIP3    H122180   8.231   7.098   4.772
 7413TIP3    H222181   8.206   7.038   4.635
 7414TIP3   OH222182   4.068   6.723   3.145
 7414TIP3    H122183   4.110   6.801   3.109
 7414TIP3    H222184   4.139   6.659   3.154
 7415TIP3   OH222185   0.782   7.224   0.329
 7415TIP3    H122186   0.801   7.130   0.332
 7415TIP3    H222187   0.718   7.233   0.258
 7416TIP3   OH222188   5.483   0.073   1.570
 7416TIP3    H122189   5.397   0.035   1.553
 7416TIP3    H222190   5.496   0.135   1.499
 7417TIP3   OH222191   5.580   7.024   1.448
 7417TIP3    H122192   5.502   7.030   1.503
 7417TIP3    H222193   5.603   7.114   1.429
 7418TIP3   OH222194   3.652   2.899   3.794
 7418TIP3    H122195   3.589   2.970   3.803
 7418TIP3    H222196   3.603   2.820   3.818
 7419TIP3   OH222197   0.611   4.244   2.039
 7419TIP3    H122198   0.647   4.190   2.109
 7419TIP3    H222199   0.666   4.226   1.963
 7420TIP3   OH222200   7.335   5.412   6.088
 7420TIP3    H122201   7.367   5.492   6.047
 7420TIP3    H222202   7.281   5.370   6.021
 7421TIP3   OH222203   4.906   6.260   3.298
 7421TIP3    H122204   4.961   6.331   3.330
 7421TIP3    H222205   4.835   6.304   3.252
 7422TIP3   OH222206   6.508   1.196   3.561
 7422TIP3    H122207   6.461   1.158   3.635
 7422TIP3    H222208   6.595   1.157   3.565
 7423TIP3   OH222209   3.054   0.002   0.713
 7423TIP3    H122210   3.113   0.014   0.639
 7423TIP3    H222211   3.111  -0.024   0.785
 7424TIP3   OH222212   0.984   2.328   0.206
 7424TIP3    H122213   0.945   2.401   0.157
 7424TIP3    H222214   0.942   2.331   0.292
 7425TIP3   OH222215   8.007   7.540   1.473
 7425TIP3    H122216   8.046   7.627   1.463
 7425TIP3    H222217   8.075   7.488   1.516
 7426TIP3   OH222218   2.615   6.621   0.321
 7426TIP3    H122219   2.526   6.604   0.288
 7426TIP3    H222220   2.628   6.553   0.387
 7427TIP3   OH222221   2.830   2.257   4.718
 7427TIP3    H122222   2.745   2.285   4.683
 7427TIP3    H222223   2.840   2.167   4.686
 7428TIP3   OH222224   3.915   1.920   3.956
 7428TIP3    H122225   3.941   1.876   4.038
 7428TIP3    H222226   3.978   1.889   3.891
 7429TIP3   OH222227   1.552   0.085   1.086
 7429TIP3    H122228   1.466   0.046   1.068
 7429TIP3    H222229   1.609   0.050   1.017
 7430TIP3   OH222230   7.423   2.776   3.388
 7430TIP3    H122231   7.467   2.847   3.434
 7430TIP3    H222232   7.475   2.761   3.309
 7431TIP3   OH222233   0.845   0.463   4.058
 7431TIP3    H122234   0.916   0.526   4.071
 7431TIP3    H222235   0.809   0.485   3.973
 7432TIP3   OH222236   6.511   6.553   6.800
 7432TIP3    H122237   6.483   6.643   6.784
 7432TIP3    H222238   6.435   6.500   6.778
 7433TIP3   OH222239   4.985   7.537   6.461
 7433TIP3    H122240   4.910   7.504   6.511
 7433TIP3    H222241   4.988   7.631   6.482
 7434TIP3   OH222242   3.962   7.857   1.513
 7434TIP3    H122243   3.972   7.764   1.534
 7434TIP3    H222244   4.031   7.874   1.448
 7435TIP3   OH222245   2.309   7.502   4.023
 7435TIP3    H122246   2.374   7.432   4.020
 7435TIP3    H222247   2.226   7.456   4.035
 7436TIP3   OH222248   3.878   4.486   0.826
 7436TIP3    H122249   3.936   4.422   0.785
 7436TIP3    H222250   3.895   4.476   0.920
 7437TIP3   OH222251   3.132   6.435   5.346
 7437TIP3    H122252   3.164   6.499   5.282
 7437TIP3    H222253   3.211   6.405   5.391
 7438TIP3   OH222254   3.226   4.716   2.611
 7438TIP3    H122255   3.209   4.737   2.519
 7438TIP3    H222256   3.140   4.694   2.648
 7439TIP3   OH222257   5.635   5.366   3.890
 7439TIP3    H122258   5.725   5.335   3.899
 7439TIP3    H222259   5.584   5.310   3.949
 7440TIP3   OH222260   1.303   4.953   0.374
 7440TIP3    H122261   1.251   4.994   0.444
 7440TIP3    H222262   1.345   4.878   0.417
 7441TIP3   OH222263   1.682   7.370   0.164
 7441TIP3    H122264   1.762   7.321   0.143
 7441TIP3    H222265   1.620   7.345   0.096
 7442TIP3   OH222266   0.766   6.756   0.780
 7442TIP3    H122267   0.684   6.707   0.773
 7442TIP3    H222268   0.740   6.844   0.806
 7443TIP3   OH222269   2.395   0.093   4.250
 7443TIP3    H122270   2.486   0.075   4.226
 7443TIP3    H222271   2.345   0.020   4.212
 7444TIP3   OH222272   0.107   5.721   0.330
 7444TIP3    H122273   0.108   5.814   0.352
 7444TIP3    H222274   0.044   5.714   0.258
 7445TIP3   OH222275   0.920   6.979   6.353
 7445TIP3    H122276   0.950   7.065   6.381
 7445TIP3    H222277   0.996   6.922   6.365
 7446TIP3   OH222278   7.608   3.497   0.242
 7446TIP3    H122279   7.561   3.415   0.223
 7446TIP3    H222280   7.539   3.561   0.260
 7447TIP3   OH222281   0.837   2.275   4.337
 7447TIP3    H122282   0.816   2.287   4.245
 7447TIP3    H222283   0.753   2.286   4.382
 7448TIP3   OH222284   7.762   2.949   5.847
 7448TIP3    H122285   7.709   2.897   5.786
 7448TIP3    H222286   7.849   2.952   5.807
 7449TIP3   OH222287   3.626   5.942   0.564
 7449TIP3    H122288   3.539   5.952   0.527
 7449TIP3    H222289   3.612   5.897   0.647
 7450TIP3   OH222290   1.394   1.316   2.559
 7450TIP3    H122291   1.487   1.331   2.579
 7450TIP3    H222292   1.385   1.344   2.468
 7451TIP3   OH222293   1.347   0.893   5.062
 7451TIP3    H122294   1.272   0.842   5.092
 7451TIP3    H222295   1.348   0.970   5.119
 7452TIP3   OH222296   0.272   0.375   4.898
 7452TIP3    H122297   0.185   0.385   4.861
 7452TIP3    H222298   0.318   0.318   4.837
 7453TIP3   OH222299   6.212   3.545   0.259
 7453TIP3    H122300   6.147   3.588   0.203
 7453TIP3    H222301   6.281   3.518   0.199
 7454TIP3   OH222302   1.802   1.555   5.602
 7454TIP3    H122303   1.777   1.631   5.550
 7454TIP3    H222304   1.740   1.487   5.575
 7455TIP3   OH222305   5.951   1.306   2.119
 7455TIP3    H122306   5.892   1.372   2.156
 7455TIP3    H222307   5.964   1.334   2.028
 7456TIP3   OH222308   1.603   6.161   4.544
 7456TIP3    H122309   1.670   6.093   4.537
 7456TIP3    H222310   1.650   6.243   4.526
 7457TIP3   OH222311   1.312   5.256   3.855
 7457TIP3    H122312   1.224   5.270   3.820
 7457TIP3    H222313   1.309   5.292   3.944
 7458TIP3   OH222314   1.304   1.283   2.292
 7458TIP3    H122315   1.358   1.284   2.212
 7458TIP3    H222316   1.250   1.205   2.283
 7459TIP3   OH222317   5.595   3.181   4.886
 7459TIP3    H122318   5.538   3.116   4.845
 7459TIP3    H222319   5.658   3.205   4.818
 7460TIP3   OH222320   2.131   4.551   5.250
 7460TIP3    H122321   2.087   4.571   5.333
 7460TIP3    H222322   2.147   4.637   5.210
 7461TIP3   OH222323   2.963   1.197   6.503
 7461TIP3    H122324   2.976   1.286   6.469
 7461TIP3    H222325   2.867   1.188   6.509
 7462TIP3   OH222326   3.463   4.721   4.513
 7462TIP3    H122327   3.552   4.685   4.518
 7462TIP3    H222328   3.472   4.797   4.454
 7463TIP3   OH222329   3.036   5.645   0.494
 7463TIP3    H122330   2.970   5.704   0.458
 7463TIP3    H222331   3.028   5.655   0.589
 7464TIP3   OH222332   1.986   5.933   4.161
 7464TIP3    H122333   2.031   5.940   4.077
 7464TIP3    H222334   1.893   5.939   4.140
 7465TIP3   OH222335   6.290   7.317   6.254
 7465TIP3    H122336   6.320   7.397   6.210
 7465TIP3    H222337   6.291   7.250   6.186
 7466TIP3   OH222338   5.970   6.243   3.192
 7466TIP3    H122339   5.977   6.246   3.288
 7466TIP3    H222340   5.876   6.239   3.175
 7467TIP3   OH222341   6.392   1.784   6.079
 7467TIP3    H122342   6.444   1.846   6.130
 7467TIP3    H222343   6.450   1.709   6.066
 7468TIP3   OH222344   6.619   7.176   1.200
 7468TIP3    H122345   6.686   7.196   1.265
 7468TIP3    H222346   6.563   7.110   1.242
 7469TIP3   OH222347   7.647   6.509   3.408
 7469TIP3    H122348   7.709   6.575   3.376
 7469TIP3    H222349   7.562   6.553   3.404
 7470TIP3   OH222350   4.964   1.116   1.997
 7470TIP3    H122351   4.870   1.130   2.008
 7470TIP3    H222352   4.986   1.047   2.059
 7471TIP3   OH222353   0.287   2.811   2.616
 7471TIP3    H122354   0.295   2.875   2.545
 7471TIP3    H222355   0.236   2.740   2.578
 7472TIP3   OH222356   7.919   1.496   3.537
 7472TIP3    H122357   7.825   1.503   3.553
 7472TIP3    H222358   7.958   1.564   3.592
 7473TIP3   OH222359   1.666   4.074   0.527
 7473TIP3    H122360   1.612   4.003   0.493
 7473TIP3    H222361   1.693   4.044   0.614
 7474TIP3   OH222362   6.328   7.577   3.122
 7474TIP3    H122363   6.261   7.565   3.054
 7474TIP3    H222364   6.395   7.632   3.080
 7475TIP3   OH222365   0.600   5.554   5.326
 7475TIP3    H122366   0.508   5.575   5.340
 7475TIP3    H222367   0.647   5.636   5.344
 7476TIP3   OH222368   0.259   5.662   1.489
 7476TIP3    H122369   0.249   5.682   1.582
 7476TIP3    H222370   0.256   5.747   1.445
 7477TIP3   OH222371   3.030   5.180   2.862
 7477TIP3    H122372   3.034   5.226   2.778
 7477TIP3    H222373   3.081   5.100   2.848
 7478TIP3   OH222374   0.188   7.539   0.882
 7478TIP3    H122375   0.205   7.575   0.795
 7478TIP3    H222376   0.104   7.577   0.908
 7479TIP3   OH222377   7.336   0.409   5.412
 7479TIP3    H122378   7.365   0.408   5.320
 7479TIP3    H222379   7.408   0.367   5.460
 7480TIP3   OH222380   6.528   3.830   0.255
 7480TIP3    H122381   6.485   3.912   0.229
 7480TIP3    H222382   6.458   3.774   0.287
 7481TIP3   OH222383   0.144   2.252   1.906
 7481TIP3    H122384   0.191   2.296   1.978
 7481TIP3    H222385   0.088   2.189   1.950
 7482TIP3   OH222386   3.883   3.671   0.937
 7482TIP3    H122387   3.899   3.640   1.026
 7482TIP3    H222388   3.930   3.753   0.931
 7483TIP3   OH222389   7.981   6.526   2.258
 7483TIP3    H122390   7.965   6.550   2.166
 7483TIP3    H222391   8.054   6.582   2.284
 7484TIP3   OH222392   7.061   5.778   2.651
 7484TIP3    H122393   7.092   5.831   2.577
 7484TIP3    H222394   7.140   5.758   2.702
 7485TIP3   OH222395   4.382   4.759   6.075
 7485TIP3    H122396   4.464   4.755   6.124
 7485TIP3    H222397   4.347   4.847   6.092
 7486TIP3   OH222398   6.106   5.008   0.663
 7486TIP3    H122399   6.064   4.931   0.701
 7486TIP3    H222400   6.067   5.017   0.576
 7487TIP3   OH222401   5.861   5.264   3.761
 7487TIP3    H122402   5.898   5.201   3.823
 7487TIP3    H222403   5.930   5.328   3.747
 7488TIP3   OH222404   4.785   3.317   0.352
 7488TIP3    H122405   4.824   3.374   0.286
 7488TIP3    H222406   4.691   3.319   0.334
 7489TIP3   OH222407   8.291   1.673   2.796
 7489TIP3    H122408   8.228   1.673   2.724
 7489TIP3    H222409   8.267   1.597   2.850
 7490TIP3   OH222410   7.283   1.992   3.689
 7490TIP3    H122411   7.318   1.902   3.693
 7490TIP3    H222412   7.205   1.989   3.744
 7491TIP3   OH222413   8.188   4.123   6.640
 7491TIP3    H122414   8.130   4.083   6.705
 7491TIP3    H222415   8.166   4.216   6.644
 7492TIP3   OH222416   5.084   4.269   4.332
 7492TIP3    H122417   5.035   4.338   4.287
 7492TIP3    H222418   5.022   4.197   4.340
 7493TIP3   OH222419   3.084   6.043   1.839
 7493TIP3    H122420   3.104   6.041   1.746
 7493TIP3    H222421   3.165   6.014   1.881
 7494TIP3   OH222422   8.211   4.295   4.201
 7494TIP3    H122423   8.203   4.301   4.106
 7494TIP3    H222424   8.237   4.382   4.229
 7495TIP3   OH222425   8.131   1.141   6.018
 7495TIP3    H122426   8.099   1.153   5.928
 7495TIP3    H222427   8.129   1.229   6.056
 7496TIP3   OH222428   2.072   7.340   4.065
 7496TIP3    H122429   2.126   7.262   4.074
 7496TIP3    H222430   1.983   7.308   4.081
 7497TIP3   OH222431   2.438   3.714   3.949
 7497TIP3    H122432   2.455   3.759   3.866
 7497TIP3    H222433   2.522   3.714   3.995
 7498TIP3   OH222434   5.469   4.992   0.714
 7498TIP3    H122435   5.399   5.053   0.738
 7498TIP3    H222436   5.473   4.930   0.787
 7499TIP3   OH222437   1.030   1.447   2.292
 7499TIP3    H122438   1.107   1.449   2.236
 7499TIP3    H222439   1.063   1.419   2.377
 7500TIP3   OH222440   5.366   5.384   1.976
 7500TIP3    H122441   5.427   5.361   2.047
 7500TIP3    H222442   5.281   5.354   2.007
 7501TIP3   OH222443   5.222   4.989   0.170
 7501TIP3    H122444   5.246   5.080   0.154
 7501TIP3    H222445   5.275   4.939   0.107
 7502TIP3   OH222446   6.576   4.543   6.183
 7502TIP3    H122447   6.514   4.607   6.217
 7502TIP3    H222448   6.534   4.507   6.105
 7503TIP3   OH222449   7.573   6.345   5.285
 7503TIP3    H122450   7.668   6.338   5.274
 7503TIP3    H222451   7.537   6.327   5.198
 7504TIP3   OH222452   7.988   4.536   1.378
 7504TIP3    H122453   8.068   4.485   1.367
 7504TIP3    H222454   7.999   4.581   1.462
 7505TIP3   OH222455   6.255   4.194   0.995
 7505TIP3    H122456   6.165   4.166   0.980
 7505TIP3    H222457   6.263   4.276   0.947
 7506TIP3   OH222458   0.374   4.960   5.279
 7506TIP3    H122459   0.465   4.941   5.253
 7506TIP3    H222460   0.370   4.934   5.371
 7507TIP3   OH222461   3.903   3.839   5.412
 7507TIP3    H122462   3.857   3.823   5.329
 7507TIP3    H222463   3.916   3.753   5.450
 7508TIP3   OH222464   6.013   6.632   4.139
 7508TIP3    H122465   5.944   6.664   4.197
 7508TIP3    H222466   6.078   6.703   4.137
 7509TIP3   OH222467   7.317   4.169   2.170
 7509TIP3    H122468   7.324   4.257   2.207
 7509TIP3    H222469   7.365   4.113   2.232
 7510TIP3   OH222470   5.868   6.967   6.690
 7510TIP3    H122471   5.900   6.927   6.609
 7510TIP3    H222472   5.773   6.958   6.684
 7511TIP3   OH222473   1.332   5.874   3.896
 7511TIP3    H122474   1.243   5.887   3.863
 7511TIP3    H222475   1.365   5.797   3.850
 7512TIP3   OH222476   0.749   4.645   5.499
 7512TIP3    H122477   0.799   4.714   5.455
 7512TIP3    H222478   0.761   4.663   5.592
 7513TIP3   OH222479   1.876   2.664   5.158
 7513TIP3    H122480   1.842   2.696   5.242
 7513TIP3    H222481   1.970   2.657   5.171
 7514TIP3   OH222482   4.232   1.361   5.276
 7514TIP3    H122483   4.214   1.401   5.191
 7514TIP3    H222484   4.171   1.288   5.282
 7515TIP3   OH222485   2.324   5.492   4.256
 7515TIP3    H122486   2.387   5.462   4.322
 7515TIP3    H222487   2.239   5.479   4.297
 7516TIP3   OH222488   7.788   2.412   4.094
 7516TIP3    H122489   7.874   2.424   4.054
 7516TIP3    H222490   7.807   2.396   4.186
 7517TIP3   OH222491   7.851   5.212   5.538
 7517TIP3    H122492   7.913   5.155   5.493
 7517TIP3    H222493   7.777   5.220   5.477
 7518TIP3   OH222494   3.464   5.337   2.513
 7518TIP3    H122495   3.535   5.338   2.448
 7518TIP3    H222496   3.388   5.372   2.466
 7519TIP3   OH222497   6.617   4.257   3.498
 7519TIP3    H122498   6.631   4.169   3.464
 7519TIP3    H222499   6.657   4.255   3.585
 7520TIP3   OH222500   7.140   3.166   6.315
 7520TIP3    H122501   7.169   3.176   6.223
 7520TIP3    H222502   7.211   3.207   6.365
 7521TIP3   OH222503   3.190   7.273   3.915
 7521TIP3    H122504   3.155   7.242   3.832
 7521TIP3    H222505   3.124   7.249   3.980
 7522TIP3   OH222506   0.457   0.405   6.417
 7522TIP3    H122507   0.394   0.383   6.486
 7522TIP3    H222508   0.476   0.322   6.374
 7523TIP3   OH222509   0.187   5.961   2.815
 7523TIP3    H122510   0.281   5.973   2.802
 7523TIP3    H222511   0.181   5.882   2.869
 7524TIP3   OH222512   5.199   4.420   6.636
 7524TIP3    H122513   5.158   4.396   6.553
 7524TIP3    H222514   5.129   4.412   6.701
 7525TIP3   OH222515   6.002   2.236   2.788
 7525TIP3    H122516   5.974   2.302   2.852
 7525TIP3    H222517   6.077   2.275   2.744
 7526TIP3   OH222518   3.963   2.716   6.191
 7526TIP3    H122519   3.994   2.669   6.114
 7526TIP3    H222520   3.960   2.650   6.260
 7527TIP3   OH222521   3.741   5.867   4.840
 7527TIP3    H122522   3.658   5.830   4.870
 7527TIP3    H222523   3.719   5.956   4.812
 7528TIP3   OH222524   2.553   0.294   1.217
 7528TIP3    H122525   2.464   0.305   1.251
 7528TIP3    H222526   2.610   0.327   1.287
 7529TIP3   OH222527   1.556   5.837   5.965
 7529TIP3    H122528   1.620   5.767   5.980
 7529TIP3    H222529   1.599   5.896   5.903
 7530TIP3   OH222530   8.329   4.367   0.538
 7530TIP3    H122531   8.313   4.461   0.545
 7530TIP3    H222532   8.383   4.357   0.460
 7531TIP3   OH222533   0.849   1.758   4.481
 7531TIP3    H122534   0.938   1.784   4.506
 7531TIP3    H222535   0.828   1.813   4.406
 7532TIP3   OH222536   7.036   7.305   4.051
 7532TIP3    H122537   6.951   7.349   4.050
 7532TIP3    H222538   7.016   7.213   4.031
 7533TIP3   OH222539   2.848   2.083   0.257
 7533TIP3    H122540   2.883   2.157   0.209
 7533TIP3    H222541   2.784   2.122   0.317
 7534TIP3   OH222542   7.890   0.478   4.991
 7534TIP3    H122543   7.903   0.489   4.897
 7534TIP3    H222544   7.894   0.567   5.026
 7535TIP3   OH222545   7.459   6.819   6.206
 7535TIP3    H122546   7.539   6.863   6.235
 7535TIP3    H222547   7.486   6.764   6.133
 7536TIP3   OH222548   5.761   0.809   2.588
 7536TIP3    H122549   5.684   0.821   2.644
 7536TIP3    H222550   5.734   0.746   2.522
 7537TIP3   OH222551   5.468   2.893   4.956
 7537TIP3    H122552   5.417   2.855   5.027
 7537TIP3    H222553   5.411   2.960   4.919
 7538TIP3   OH222554   0.169   6.666   1.247
 7538TIP3    H122555   0.237   6.705   1.192
 7538TIP3    H222556   0.200   6.577   1.264
 7539TIP3   OH222557   7.936   2.073   3.018
 7539TIP3    H122558   7.926   1.999   2.958
 7539TIP3    H222559   7.847   2.102   3.037
 7540TIP3   OH222560   7.564   5.809   6.267
 7540TIP3    H122561   7.540   5.896   6.298
 7540TIP3    H222562   7.593   5.822   6.176
 7541TIP3   OH222563   3.937   2.561   2.653
 7541TIP3    H122564   3.842   2.572   2.646
 7541TIP3    H222565   3.949   2.468   2.673
 7542TIP3   OH222566   7.329   0.286   4.642
 7542TIP3    H122567   7.343   0.200   4.603
 7542TIP3    H222568   7.412   0.332   4.631
 7543TIP3   OH222569   2.954   0.251   5.070
 7543TIP3    H122570   2.858   0.258   5.077
 7543TIP3    H222571   2.973   0.159   5.086
 7544TIP3   OH222572   8.211   7.352   3.096
 7544TIP3    H122573   8.202   7.414   3.023
 7544TIP3    H222574   8.126   7.355   3.140
 7545TIP3   OH222575   7.019   3.927   1.268
 7545TIP3    H122576   6.976   3.843   1.283
 7545TIP3    H222577   7.012   3.941   1.173
 7546TIP3   OH222578   5.859   5.473   2.027
 7546TIP3    H122579   5.867   5.393   2.078
 7546TIP3    H222580   5.880   5.543   2.090
 7547TIP3   OH222581   3.823   4.738   0.704
 7547TIP3    H122582   3.811   4.823   0.662
 7547TIP3    H222583   3.917   4.721   0.698
 7548TIP3   OH222584   6.349   5.223   5.816
 7548TIP3    H122585   6.441   5.196   5.814
 7548TIP3    H222586   6.314   5.182   5.895
 7549TIP3   OH222587   1.711   3.263   5.756
 7549TIP3    H122588   1.742   3.330   5.695
 7549TIP3    H222589   1.623   3.243   5.727
 7550TIP3   OH222590   4.686   2.465   3.981
 7550TIP3    H122591   4.649   2.377   3.975
 7550TIP3    H222592   4.779   2.451   3.998
 7551TIP3   OH222593   0.321   0.326   6.661
 7551TIP3    H122594   0.320   0.330   6.757
 7551TIP3    H222595   0.288   0.239   6.640
 7552TIP3   OH222596   2.077   5.961   2.887
 7552TIP3    H122597   2.025   5.885   2.861
 7552TIP3    H222598   2.016   6.034   2.887
 7553TIP3   OH222599   3.547   3.869   3.432
 7553TIP3    H122600   3.543   3.834   3.521
 7553TIP3    H222601   3.505   3.955   3.438
 7554TIP3   OH222602   5.813   7.534   2.135
 7554TIP3    H122603   5.823   7.629   2.126
 7554TIP3    H222604   5.754   7.524   2.210
 7555TIP3   OH222605   0.401   2.443   0.095
 7555TIP3    H122606   0.400   2.429   0.000
 7555TIP3    H222607   0.337   2.380   0.129
 7556TIP3   OH222608   0.552   2.164   6.281
 7556TIP3    H122609   0.539   2.222   6.207
 7556TIP3    H222610   0.528   2.217   6.357
 7557TIP3   OH222611   8.207   7.238   0.387
 7557TIP3    H122612   8.125   7.217   0.343
 7557TIP3    H222613   8.240   7.316   0.341
 7558TIP3   OH222614   1.397   4.616   4.881
 7558TIP3    H122615   1.327   4.640   4.942
 7558TIP3    H222616   1.372   4.530   4.847
 7559TIP3   OH222617   3.663   5.465   1.778
 7559TIP3    H122618   3.640   5.425   1.862
 7559TIP3    H222619   3.605   5.422   1.715
 7560TIP3   OH222620   0.581   4.297   3.833
 7560TIP3    H122621   0.675   4.277   3.830
 7560TIP3    H222622   0.539   4.216   3.802
 7561TIP3   OH222623   5.522   0.885   4.614
 7561TIP3    H122624   5.518   0.819   4.684
 7561TIP3    H222625   5.596   0.857   4.560
 7562TIP3   OH222626   6.557   0.233   6.164
 7562TIP3    H122627   6.633   0.283   6.135
 7562TIP3    H222628   6.583   0.142   6.151
 7563TIP3   OH222629   3.932   1.552   1.389
 7563TIP3    H122630   4.023   1.527   1.373
 7563TIP3    H222631   3.934   1.592   1.476
 7564TIP3   OH222632   4.053   2.123   3.097
 7564TIP3    H122633   3.995   2.149   3.169
 7564TIP3    H222634   4.135   2.169   3.115
 7565TIP3   OH222635   1.977   4.336   2.684
 7565TIP3    H122636   1.890   4.359   2.651
 7565TIP3    H222637   2.024   4.304   2.607
 7566TIP3   OH222638   0.499   0.624   4.782
 7566TIP3    H122639   0.426   0.646   4.840
 7566TIP3    H222640   0.460   0.569   4.714
 7567TIP3   OH222641   0.237   5.620   0.688
 7567TIP3    H122642   0.331   5.605   0.683
 7567TIP3    H222643   0.198   5.549   0.637
 7568TIP3   OH222644   2.222   1.402   4.400
 7568TIP3    H122645   2.231   1.474   4.462
 7568TIP3    H222646   2.159   1.343   4.441
 7569TIP3   OH222647   2.774   6.549   4.006
 7569TIP3    H122648   2.703   6.538   3.943
 7569TIP3    H222649   2.762   6.477   4.069
 7570TIP3   OH222650   5.647   5.968   0.828
 7570TIP3    H122651   5.564   6.016   0.823
 7570TIP3    H222652   5.693   6.007   0.903
 7571TIP3   OH222653   3.769   4.983   4.754
 7571TIP3    H122654   3.690   4.983   4.701
 7571TIP3    H222655   3.816   4.904   4.727
 7572TIP3   OH222656   4.327   5.192   0.988
 7572TIP3    H122657   4.375   5.224   1.065
 7572TIP3    H222658   4.362   5.242   0.915
 7573TIP3   OH222659   0.316   0.845   6.532
 7573TIP3    H122660   0.253   0.846   6.460
 7573TIP3    H222661   0.301   0.761   6.576
 7574TIP3   OH222662   8.092   5.255   2.375
 7574TIP3    H122663   8.178   5.285   2.347
 7574TIP3    H222664   8.060   5.202   2.302
 7575TIP3   OH222665   7.002   4.721   3.710
 7575TIP3    H122666   7.086   4.705   3.666
 7575TIP3    H222667   6.951   4.641   3.694
 7576TIP3   OH222668   4.920   0.750   5.872
 7576TIP3    H122669   4.838   0.702   5.886
 7576TIP3    H222670   4.894   0.843   5.880
 7577TIP3   OH222671   8.250   1.309   1.548
 7577TIP3    H122672   8.339   1.272   1.550
 7577TIP3    H222673   8.249   1.373   1.619
 7578TIP3   OH222674   1.112   4.177   4.515
 7578TIP3    H122675   1.103   4.248   4.579
 7578TIP3    H222676   1.132   4.100   4.567
 7579TIP3   OH222677   6.031   1.062   4.949
 7579TIP3    H122678   6.102   1.057   4.885
 7579TIP3    H222679   5.952   1.074   4.895
 7580TIP3   OH222680   2.494   6.206   0.653
 7580TIP3    H122681   2.585   6.176   0.645
 7580TIP3    H222682   2.456   6.190   0.567
 7581TIP3   OH222683   6.615   5.729   1.235
 7581TIP3    H122684   6.613   5.657   1.171
 7581TIP3    H222685   6.698   5.773   1.219
 7582TIP3   OH222686   6.514   3.470   4.572
 7582TIP3    H122687   6.466   3.537   4.523
 7582TIP3    H222688   6.492   3.388   4.527
 7583TIP3   OH222689   7.822   6.571   6.226
 7583TIP3    H122690   7.890   6.638   6.234
 7583TIP3    H222691   7.740   6.621   6.224
 7584TIP3   OH222692   5.291   6.261   6.766
 7584TIP3    H122693   5.287   6.276   6.860
 7584TIP3    H222694   5.349   6.185   6.756
 7585TIP3   OH222695   7.840   4.480   2.301
 7585TIP3    H122696   7.829   4.393   2.261
 7585TIP3    H222697   7.839   4.463   2.395
 7586TIP3   OH222698   3.363   2.206   6.734
 7586TIP3    H122699   3.273   2.236   6.727
 7586TIP3    H222700   3.414   2.269   6.682
 7587TIP3   OH222701   3.020   2.251   0.948
 7587TIP3    H122702   3.001   2.341   0.922
 7587TIP3    H222703   2.934   2.213   0.966
 7588TIP3   OH222704   4.751   5.335   1.279
 7588TIP3    H122705   4.772   5.402   1.214
 7588TIP3    H222706   4.819   5.268   1.265
 7589TIP3   OH222707   3.614   1.982   6.334
 7589TIP3    H122708   3.652   2.070   6.340
 7589TIP3    H222709   3.536   1.986   6.390
 7590TIP3   OH222710   0.088   2.640   5.733
 7590TIP3    H122711   0.084   2.714   5.793
 7590TIP3    H222712   0.181   2.623   5.722
 7591TIP3   OH222713   6.124   4.850   3.073
 7591TIP3    H122714   6.176   4.793   3.017
 7591TIP3    H222715   6.150   4.939   3.048
 7592TIP3   OH222716   2.763   6.091   2.641
 7592TIP3    H122717   2.852   6.083   2.606
 7592TIP3    H222718   2.712   6.027   2.590
 7593TIP3   OH222719   1.518   7.736   1.008
 7593TIP3    H122720   1.450   7.712   1.070
 7593TIP3    H222721   1.560   7.813   1.047
 7594TIP3   OH222722   2.763   3.175   6.411
 7594TIP3    H122723   2.735   3.264   6.387
 7594TIP3    H222724   2.848   3.165   6.368
 7595TIP3   OH222725   6.616   5.449   4.314
 7595TIP3    H122726   6.589   5.421   4.227
 7595TIP3    H222727   6.637   5.367   4.360
 7596TIP3   OH222728   3.672   2.107   3.577
 7596TIP3    H122729   3.757   2.096   3.618
 7596TIP3    H222730   3.661   2.028   3.524
 7597TIP3   OH222731   3.584   4.691   0.215
 7597TIP3    H122732   3.535   4.722   0.140
 7597TIP3    H222733   3.592   4.767   0.273
 7598TIP3   OH222734   4.528   2.647   4.123
 7598TIP3    H122735   4.572   2.701   4.189
 7598TIP3    H222736   4.599   2.614   4.068
 7599TIP3   OH222737   2.601   0.711   5.800
 7599TIP3    H122738   2.597   0.616   5.804
 7599TIP3    H222739   2.530   0.740   5.857
 7600TIP3   OH222740   3.932   0.545   6.731
 7600TIP3    H122741   3.849   0.508   6.761
 7600TIP3    H222742   3.936   0.631   6.773
 7601TIP3   OH222743   3.324   4.575   6.737
 7601TIP3    H122744   3.231   4.574   6.760
 7601TIP3    H222745   3.369   4.581   6.821
 7602TIP3   OH222746   1.173   0.146   3.392
 7602TIP3    H122747   1.201   0.060   3.423
 7602TIP3    H222748   1.077   0.140   3.388
 7603TIP3   OH222749   5.422   2.161   5.550
 7603TIP3    H122750   5.438   2.202   5.634
 7603TIP3    H222751   5.350   2.212   5.511
 7604TIP3   OH222752   2.826   5.127   1.225
 7604TIP3    H122753   2.900   5.104   1.169
 7604TIP3    H222754   2.856   5.204   1.274
 7605TIP3   OH222755   4.909   4.441   5.035
 7605TIP3    H122756   5.000   4.417   5.049
 7605TIP3    H222757   4.903   4.456   4.940
 7606TIP3   OH222758   3.728   7.041   2.941
 7606TIP3    H122759   3.683   7.105   2.887
 7606TIP3    H222760   3.659   7.001   2.994
 7607TIP3   OH222761   6.422   2.632   6.134
 7607TIP3    H122762   6.425   2.581   6.215
 7607TIP3    H222763   6.438   2.722   6.162
 7608TIP3   OH222764   0.349   4.262   2.283
 7608TIP3    H122765   0.358   4.325   2.355
 7608TIP3    H222766   0.257   4.270   2.256
 7609TIP3   OH222767   5.992   6.312   1.076
 7609TIP3    H122768   6.034   6.231   1.106
 7609TIP3    H222769   5.992   6.305   0.980
 7610TIP3   OH222770   6.212   7.061   1.763
 7610TIP3    H122771   6.258   7.058   1.679
 7610TIP3    H222772   6.258   7.128   1.814
 7611TIP3   OH222773   1.567   4.427   5.304
 7611TIP3    H122774   1.498   4.361   5.314
 7611TIP3    H222775   1.529   4.506   5.343
 7612TIP3   OH222776   8.243   2.663   2.715
 7612TIP3    H122777   8.261   2.738   2.659
 7612TIP3    H222778   8.168   2.690   2.769
 7613TIP3   OH222779   6.126   2.012   2.381
 7613TIP3    H122780   6.167   2.008   2.295
 7613TIP3    H222781   6.198   1.999   2.443
 7614TIP3   OH222782   0.287   5.470   6.371
 7614TIP3    H122783   0.349   5.543   6.361
 7614TIP3    H222784   0.239   5.491   6.451
 7615TIP3   OH222785   5.540   1.696   2.861
 7615TIP3    H122786   5.576   1.610   2.837
 7615TIP3    H222787   5.507   1.684   2.950
 7616TIP3   OH222788   1.770   7.753   2.752
 7616TIP3    H122789   1.772   7.678   2.812
 7616TIP3    H222790   1.680   7.784   2.754
 7617TIP3   OH222791   3.783   6.250   1.336
 7617TIP3    H122792   3.703   6.231   1.288
 7617TIP3    H222793   3.815   6.163   1.362
 7618TIP3   OH222794   3.425   6.471   1.143
 7618TIP3    H122795   3.367   6.394   1.150
 7618TIP3    H222796   3.511   6.438   1.169
 7619TIP3   OH222797   1.176   0.699   2.677
 7619TIP3    H122798   1.238   0.632   2.707
 7619TIP3    H222799   1.106   0.698   2.742
 7620TIP3   OH222800   7.332   2.677   3.630
 7620TIP3    H122801   7.247   2.635   3.622
 7620TIP3    H222802   7.347   2.716   3.544
 7621TIP3   OH222803   1.538   6.793   1.154
 7621TIP3    H122804   1.560   6.880   1.189
 7621TIP3    H222805   1.447   6.801   1.127
 7622TIP3   OH222806   2.493   7.782   5.628
 7622TIP3    H122807   2.486   7.710   5.691
 7622TIP3    H222808   2.584   7.777   5.596
 7623TIP3   OH222809   1.896   4.165   4.631
 7623TIP3    H122810   1.836   4.098   4.599
 7623TIP3    H222811   1.983   4.130   4.612
 7624TIP3   OH222812   1.689   1.852   3.150
 7624TIP3    H122813   1.676   1.816   3.238
 7624TIP3    H222814   1.649   1.789   3.091
 7625TIP3   OH222815   6.751   3.531   3.691
 7625TIP3    H122816   6.785   3.601   3.748
 7625TIP3    H222817   6.661   3.557   3.672
 7626TIP3   OH222818   6.776   0.523   3.842
 7626TIP3    H122819   6.695   0.484   3.875
 7626TIP3    H222820   6.758   0.617   3.840
 7627TIP3   OH222821   0.627   4.948   6.482
 7627TIP3    H122822   0.630   4.859   6.448
 7627TIP3    H222823   0.603   5.001   6.406
 7628TIP3   OH222824   5.505   7.146   5.255
 7628TIP3    H122825   5.547   7.201   5.321
 7628TIP3    H222826   5.413   7.169   5.259
 7629TIP3   OH222827   1.469   0.304   5.238
 7629TIP3    H122828   1.374   0.315   5.233
 7629TIP3    H222829   1.502   0.392   5.258
 7630TIP3   OH222830   5.382   1.763   4.713
 7630TIP3    H122831   5.425   1.841   4.748
 7630TIP3    H222832   5.382   1.777   4.618
 7631TIP3   OH222833   5.125   0.615   5.467
 7631TIP3    H122834   5.207   0.578   5.435
 7631TIP3    H222835   5.069   0.539   5.485
 7632TIP3   OH222836   6.363   0.322   0.266
 7632TIP3    H122837   6.457   0.320   0.280
 7632TIP3    H222838   6.347   0.253   0.202
 7633TIP3   OH222839   5.996   1.201   0.304
 7633TIP3    H122840   5.902   1.194   0.289
 7633TIP3    H222841   6.029   1.246   0.227
 7634TIP3   OH222842   3.824   3.089   2.178
 7634TIP3    H122843   3.831   3.175   2.135
 7634TIP3    H222844   3.764   3.039   2.123
 7635TIP3   OH222845   1.924   1.513   2.626
 7635TIP3    H122846   1.871   1.436   2.644
 7635TIP3    H222847   1.900   1.538   2.537
 7636TIP3   OH222848   6.457   0.106   0.971
 7636TIP3    H122849   6.417   0.188   0.941
 7636TIP3    H222850   6.542   0.104   0.927
 7637TIP3   OH222851   1.665   1.855   4.655
 7637TIP3    H122852   1.721   1.810   4.591
 7637TIP3    H222853   1.612   1.785   4.693
 7638TIP3   OH222854   5.208   2.528   5.310
 7638TIP3    H122855   5.167   2.584   5.375
 7638TIP3    H222856   5.152   2.536   5.232
 7639TIP3   OH222857   5.089   5.989   0.322
 7639TIP3    H122858   5.075   6.070   0.371
 7639TIP3    H222859   5.014   5.984   0.262
 7640TIP3   OH222860   6.232   7.251   3.640
 7640TIP3    H122861   6.300   7.315   3.664
 7640TIP3    H222862   6.152   7.286   3.677
 7641TIP3   OH222863   4.684   6.670   5.813
 7641TIP3    H122864   4.760   6.672   5.872
 7641TIP3    H222865   4.701   6.739   5.750
 7642TIP3   OH222866   4.469   4.762   3.509
 7642TIP3    H122867   4.421   4.715   3.440
 7642TIP3    H222868   4.552   4.715   3.517
 7643TIP3   OH222869   7.602   4.270   4.683
 7643TIP3    H122870   7.532   4.261   4.748
 7643TIP3    H222871   7.560   4.246   4.600
 7644TIP3   OH222872   6.856   4.820   0.851
 7644TIP3    H122873   6.767   4.855   0.840
 7644TIP3    H222874   6.869   4.763   0.775
 7645TIP3   OH222875   2.663   4.399   2.781
 7645TIP3    H122876   2.749   4.375   2.816
 7645TIP3    H222877   2.625   4.316   2.752
 7646TIP3   OH222878   6.769   2.538   6.221
 7646TIP3    H122879   6.757   2.446   6.242
 7646TIP3    H222880   6.722   2.550   6.138
 7647TIP3   OH222881   7.555   2.357   4.452
 7647TIP3    H122882   7.574   2.338   4.360
 7647TIP3    H222883   7.553   2.452   4.457
 7648TIP3   OH222884   7.477   5.728   0.588
 7648TIP3    H122885   7.420   5.731   0.511
 7648TIP3    H222886   7.444   5.652   0.638
 7649TIP3   OH222887   7.024   3.841   6.588
 7649TIP3    H122888   6.954   3.854   6.652
 7649TIP3    H222889   7.072   3.924   6.587
 7650TIP3   OH222890   5.220   6.689   0.376
 7650TIP3    H122891   5.252   6.729   0.456
 7650TIP3    H222892   5.296   6.689   0.317
 7651TIP3   OH222893   0.011   2.271   1.473
 7651TIP3    H122894   0.084   2.288   1.532
 7651TIP3    H222895  -0.039   2.353   1.472
 7652TIP3   OH222896   4.613   5.564   5.905
 7652TIP3    H122897   4.671   5.585   5.832
 7652TIP3    H222898   4.558   5.493   5.873
 7653TIP3   OH222899   1.092   4.451   5.116
 7653TIP3    H122900   1.025   4.418   5.055
 7653TIP3    H222901   1.166   4.392   5.105
 7654TIP3   OH222902   3.727   0.299   4.017
 7654TIP3    H122903   3.639   0.316   3.983
 7654TIP3    H222904   3.772   0.384   4.013
 7655TIP3   OH222905   1.608   2.870   2.591
 7655TIP3    H122906   1.693   2.855   2.550
 7655TIP3    H222907   1.591   2.790   2.641
 7656TIP3   OH222908   3.799   1.559   1.929
 7656TIP3    H122909   3.813   1.469   1.900
 7656TIP3    H222910   3.765   1.603   1.851
 7657TIP3   OH222911   5.140   5.216   2.380
 7657TIP3    H122912   5.112   5.127   2.359
 7657TIP3    H222913   5.077   5.246   2.445
 7658TIP3   OH222914   6.449   5.989   3.542
 7658TIP3    H122915   6.499   6.019   3.465
 7658TIP3    H222916   6.407   6.069   3.574
 7659TIP3   OH222917   2.601   4.683   3.393
 7659TIP3    H122918   2.577   4.715   3.306
 7659TIP3    H222919   2.558   4.744   3.454
 7660TIP3   OH222920   2.015   7.145   1.298
 7660TIP3    H122921   2.053   7.201   1.231
 7660TIP3    H222922   2.062   7.168   1.378
 7661TIP3   OH222923   0.803   6.020   3.931
 7661TIP3    H122924   0.758   5.969   3.998
 7661TIP3    H222925   0.884   5.972   3.915
 7662TIP3   OH222926   4.256   2.548   2.370
 7662TIP3    H122927   4.294   2.472   2.413
 7662TIP3    H222928   4.316   2.620   2.390
 7663TIP3   OH222929   3.155   4.758   2.348
 7663TIP3    H122930   3.079   4.712   2.313
 7663TIP3    H222931   3.202   4.790   2.271
 7664TIP3   OH222932   8.405   1.567   3.141
 7664TIP3    H122933   8.447   1.505   3.201
 7664TIP3    H222934   8.311   1.556   3.158
 7665TIP3   OH222935   4.815   2.731   0.663
 7665TIP3    H122936   4.737   2.692   0.622
 7665TIP3    H222937   4.855   2.658   0.711
 7666TIP3   OH222938   2.927   1.793   5.925
 7666TIP3    H122939   2.926   1.708   5.882
 7666TIP3    H222940   2.844   1.797   5.973
 7667TIP3   OH222941   3.018   0.553   1.191
 7667TIP3    H122942   2.965   0.628   1.219
 7667TIP3    H222943   2.994   0.540   1.099
 7668TIP3   OH222944   2.025   7.523   2.871
 7668TIP3    H122945   2.016   7.481   2.786
 7668TIP3    H222946   1.936   7.539   2.900
 7669TIP3   OH222947   1.894   0.759   0.788
 7669TIP3    H122948   1.958   0.763   0.859
 7669TIP3    H222949   1.898   0.668   0.758
 7670TIP3   OH222950   6.568   2.571   0.680
 7670TIP3    H122951   6.476   2.586   0.657
 7670TIP3    H222952   6.567   2.563   0.775
 7671TIP3   OH222953   3.173   0.704   4.193
 7671TIP3    H122954   3.153   0.610   4.189
 7671TIP3    H222955   3.262   0.708   4.228
 7672TIP3   OH222956   4.123   7.199   4.836
 7672TIP3    H122957   4.159   7.111   4.847
 7672TIP3    H222958   4.198   7.257   4.843
 7673TIP3   OH222959   4.034   5.620   2.711
 7673TIP3    H122960   3.950   5.629   2.755
 7673TIP3    H222961   4.053   5.707   2.677
 7674TIP3   OH222962   3.713   1.122   3.145
 7674TIP3    H122963   3.748   1.109   3.057
 7674TIP3    H222964   3.623   1.150   3.131
 7675TIP3   OH222965   0.775   4.341   5.912
 7675TIP3    H122966   0.770   4.430   5.947
 7675TIP3    H222967   0.865   4.333   5.878
 7676TIP3   OH222968   0.413   4.501   5.497
 7676TIP3    H122969   0.434   4.555   5.574
 7676TIP3    H222970   0.325   4.529   5.471
 7677TIP3   OH222971   3.365   1.711   0.529
 7677TIP3    H122972   3.447   1.762   0.533
 7677TIP3    H222973   3.361   1.679   0.439
 7678TIP3   OH222974   5.924   1.805   1.385
 7678TIP3    H122975   5.846   1.768   1.345
 7678TIP3    H222976   5.892   1.851   1.462
 7679TIP3   OH222977   7.790   5.226   0.285
 7679TIP3    H122978   7.721   5.203   0.224
 7679TIP3    H222979   7.828   5.306   0.250
 7680TIP3   OH222980   7.250   2.749   5.036
 7680TIP3    H122981   7.210   2.830   5.066
 7680TIP3    H222982   7.204   2.728   4.954
 7681TIP3   OH222983   5.575   7.420   0.845
 7681TIP3    H122984   5.623   7.502   0.858
 7681TIP3    H222985   5.574   7.408   0.751
 7682TIP3   OH222986   2.174   3.571   2.497
 7682TIP3    H122987   2.176   3.643   2.560
 7682TIP3    H222988   2.145   3.495   2.548
 7683TIP3   OH222989   6.886   5.712   1.579
 7683TIP3    H122990   6.978   5.723   1.558
 7683TIP3    H222991   6.857   5.798   1.607
 7684TIP3   OH222992   3.201   7.291   0.804
 7684TIP3    H122993   3.219   7.330   0.719
 7684TIP3    H222994   3.141   7.219   0.785
 7685TIP3   OH222995   8.189   4.123   0.548
 7685TIP3    H122996   8.237   4.203   0.526
 7685TIP3    H222997   8.113   4.124   0.491
 7686TIP3   OH222998   6.614   1.157   6.406
 7686TIP3    H122999   6.644   1.153   6.497
 7686TIP3    H223000   6.614   1.066   6.376
 7687TIP3   OH223001   6.477   0.946   2.533
 7687TIP3    H123002   6.561   0.993   2.530
 7687TIP3    H223003   6.415   1.011   2.566
 7688TIP3   OH223004   6.237   3.075   4.366
 7688TIP3    H123005   6.197   2.992   4.341
 7688TIP3    H223006   6.189   3.141   4.316
 7689TIP3   OH223007   0.807   0.550   2.288
 7689TIP3    H123008   0.728   0.590   2.324
 7689TIP3    H223009   0.798   0.561   2.193
 7690TIP3   OH223010   7.513   3.192   0.841
 7690TIP3    H123011   7.556   3.131   0.780
 7690TIP3    H223012   7.449   3.238   0.788
 7691TIP3   OH223013   0.795   7.708   1.281
 7691TIP3    H123014   0.760   7.659   1.207
 7691TIP3    H223015   0.741   7.787   1.286
 7692TIP3   OH223016   1.311   3.017   0.060
 7692TIP3    H123017   1.254   3.002   0.135
 7692TIP3    H223018   1.344   2.930   0.038
 7693TIP3   OH223019   6.966   4.388   1.495
 7693TIP3    H123020   6.957   4.335   1.416
 7693TIP3    H223021   6.913   4.343   1.560
 7694TIP3   OH223022   7.586   3.966   4.205
 7694TIP3    H123023   7.599   3.986   4.298
 7694TIP3    H223024   7.564   4.050   4.166
 7695TIP3   OH223025   5.297   1.472   0.102
 7695TIP3    H123026   5.362   1.504   0.039
 7695TIP3    H223027   5.226   1.536   0.096
 7696TIP3   OH223028   6.455   4.845   3.149
 7696TIP3    H123029   6.421   4.908   3.086
 7696TIP3    H223030   6.482   4.898   3.224
 7697TIP3   OH223031   2.734   3.565   0.095
 7697TIP3    H123032   2.727   3.517   0.178
 7697TIP3    H223033   2.650   3.550   0.051
 7698TIP3   OH223034   6.163   4.796   6.405
 7698TIP3    H123035   6.229   4.844   6.454
 7698TIP3    H223036   6.208   4.765   6.327
 7699TIP3   OH223037   4.071   0.421   5.405
 7699TIP3    H123038   3.992   0.473   5.386
 7699TIP3    H223039   4.041   0.353   5.465
 7700TIP3   OH223040   5.953   2.850   2.662
 7700TIP3    H123041   6.024   2.787   2.655
 7700TIP3    H223042   5.874   2.799   2.648
 7701TIP3   OH223043   4.545   6.180   4.956
 7701TIP3    H123044   4.557   6.182   4.861
 7701TIP3    H223045   4.551   6.087   4.979
 7702TIP3   OH223046   2.307   2.663   1.980
 7702TIP3    H123047   2.296   2.713   1.899
 7702TIP3    H223048   2.222   2.667   2.023
 7703TIP3   OH223049   5.322   2.576   2.131
 7703TIP3    H123050   5.340   2.657   2.083
 7703TIP3    H223051   5.337   2.599   2.222
 7704TIP3   OH223052   0.876   1.299   0.581
 7704TIP3    H123053   0.815   1.226   0.571
 7704TIP3    H223054   0.936   1.272   0.651
 7705TIP3   OH223055   6.048   6.604   4.729
 7705TIP3    H123056   6.049   6.632   4.637
 7705TIP3    H223057   6.048   6.508   4.725
 7706TIP3   OH223058   5.297   6.153   2.813
 7706TIP3    H123059   5.311   6.090   2.742
 7706TIP3    H223060   5.240   6.220   2.775
 7707TIP3   OH223061   4.119   4.212   0.369
 7707TIP3    H123062   4.031   4.230   0.405
 7707TIP3    H223063   4.177   4.219   0.445
 7708TIP3   OH223064   4.863   7.415   2.560
 7708TIP3    H123065   4.818   7.441   2.480
 7708TIP3    H223066   4.956   7.414   2.536
 7709TIP3   OH223067   7.007   2.635   5.266
 7709TIP3    H123068   7.101   2.641   5.284
 7709TIP3    H223069   7.002   2.579   5.189
 7710TIP3   OH223070   3.015   7.894   4.670
 7710TIP3    H123071   2.946   7.854   4.618
 7710TIP3    H223072   2.978   7.976   4.701
 7711TIP3   OH223073   1.050   3.902   5.508
 7711TIP3    H123074   1.013   3.946   5.584
 7711TIP3    H223075   0.992   3.925   5.436
 7712TIP3   OH223076   7.665   2.784   6.514
 7712TIP3    H123077   7.672   2.715   6.449
 7712TIP3    H223078   7.722   2.854   6.483
 7713TIP3   OH223079   4.163   7.844   1.303
 7713TIP3    H123080   4.148   7.751   1.288
 7713TIP3    H223081   4.255   7.849   1.329
 7714TIP3   OH223082   6.678   7.138   1.738
 7714TIP3    H123083   6.619   7.190   1.793
 7714TIP3    H223084   6.716   7.074   1.797
 7715TIP3   OH223085   3.422   7.427   3.331
 7715TIP3    H123086   3.416   7.436   3.236
 7715TIP3    H223087   3.432   7.332   3.345
 7716TIP3   OH223088   1.170   6.376   0.673
 7716TIP3    H123089   1.119   6.457   0.675
 7716TIP3    H223090   1.248   6.398   0.621
 7717TIP3   OH223091   6.059   6.691   6.583
 7717TIP3    H123092   6.144   6.712   6.544
 7717TIP3    H223093   5.995   6.713   6.514
 7718TIP3   OH223094   6.798   3.425   0.187
 7718TIP3    H123095   6.787   3.520   0.191
 7718TIP3    H223096   6.761   3.400   0.102
 7719TIP3   OH223097   7.151   3.296   4.889
 7719TIP3    H123098   7.234   3.328   4.926
 7719TIP3    H223099   7.162   3.305   4.794
 7720TIP3   OH223100   1.122   0.872   2.200
 7720TIP3    H123101   1.106   0.819   2.122
 7720TIP3    H223102   1.064   0.834   2.267
 7721TIP3   OH223103   5.032   5.072   3.321
 7721TIP3    H123104   5.038   5.041   3.231
 7721TIP3    H223105   4.973   5.147   3.317
 7722TIP3   OH223106   6.712   4.945   4.261
 7722TIP3    H123107   6.736   4.871   4.206
 7722TIP3    H223108   6.761   4.932   4.342
 7723TIP3   OH223109   4.534   6.071   4.662
 7723TIP3    H123110   4.563   6.143   4.606
 7723TIP3    H223111   4.594   5.999   4.642
 7724TIP3   OH223112   3.992   6.983   3.472
 7724TIP3    H123113   3.910   6.984   3.422
 7724TIP3    H223114   3.992   7.066   3.519
 7725TIP3   OH223115   2.639   0.694   1.212
 7725TIP3    H123116   2.669   0.768   1.265
 7725TIP3    H223117   2.655   0.618   1.267
 7726TIP3   OH223118   0.340   4.182   6.816
 7726TIP3    H123119   0.389   4.125   6.876
 7726TIP3    H223120   0.317   4.125   6.743
 7727TIP3   OH223121   6.854   2.355   1.293
 7727TIP3    H123122   6.918   2.334   1.361
 7727TIP3    H223123   6.825   2.270   1.259
 7728TIP3   OH223124   6.663   4.808   6.818
 7728TIP3    H123125   6.579   4.791   6.860
 7728TIP3    H223126   6.724   4.750   6.864
 7729TIP3   OH223127   5.577   3.962   0.403
 7729TIP3    H123128   5.656   3.977   0.455
 7729TIP3    H223129   5.540   3.881   0.439
 7730TIP3   OH223130   6.584   3.098   5.579
 7730TIP3    H123131   6.597   3.006   5.554
 7730TIP3    H223132   6.670   3.138   5.568
 7731TIP3   OH223133   3.589   7.719   1.561
 7731TIP3    H123134   3.533   7.660   1.511
 7731TIP3    H223135   3.567   7.700   1.653
 7732TIP3   OH223136   2.607   6.147   0.925
 7732TIP3    H123137   2.514   6.153   0.904
 7732TIP3    H223138   2.648   6.215   0.870
 7733TIP3   OH223139   4.248   3.625   2.801
 7733TIP3    H123140   4.180   3.683   2.835
 7733TIP3    H223141   4.209   3.538   2.804
 7734TIP3   OH223142   6.601   3.422   3.006
 7734TIP3    H123143   6.582   3.338   2.963
 7734TIP3    H223144   6.690   3.413   3.039
 7735TIP3   OH223145   5.959   7.864   0.958
 7735TIP3    H123146   6.018   7.921   0.908
 7735TIP3    H223147   6.001   7.778   0.957
 7736TIP3   OH223148   2.296   3.096   1.892
 7736TIP3    H123149   2.297   3.178   1.842
 7736TIP3    H223150   2.203   3.077   1.905
 7737TIP3   OH223151   2.430   2.374   4.412
 7737TIP3    H123152   2.475   2.374   4.328
 7737TIP3    H223153   2.345   2.415   4.394
 7738TIP3   OH223154   2.168   5.712   6.581
 7738TIP3    H123155   2.169   5.696   6.487
 7738TIP3    H223156   2.076   5.715   6.604
 7739TIP3   OH223157   3.948   2.751   6.521
 7739TIP3    H123158   3.886   2.681   6.546
 7739TIP3    H223159   4.015   2.706   6.471
 7740TIP3   OH223160   3.962   2.340   0.939
 7740TIP3    H123161   3.925   2.252   0.932
 7740TIP3    H223162   3.945   2.379   0.853
 7741TIP3   OH223163   3.805   7.109   4.228
 7741TIP3    H123164   3.890   7.116   4.185
 7741TIP3    H223165   3.745   7.080   4.159
 7742TIP3   OH223166   6.963   1.921   6.794
 7742TIP3    H123167   7.024   1.853   6.765
 7742TIP3    H223168   7.003   2.003   6.765
 7743TIP3   OH223169   1.298   4.412   5.611
 7743TIP3    H123170   1.218   4.401   5.558
 7743TIP3    H223171   1.302   4.332   5.664
 7744TIP3   OH223172   2.634   6.684   3.324
 7744TIP3    H123173   2.695   6.707   3.254
 7744TIP3    H223174   2.653   6.592   3.344
 7745TIP3   OH223175   2.576   2.372   4.171
 7745TIP3    H123176   2.612   2.457   4.146
 7745TIP3    H223177   2.621   2.309   4.114
 7746TIP3   OH223178   2.062   0.074   6.151
 7746TIP3    H123179   2.012   0.155   6.149
 7746TIP3    H223180   2.007   0.011   6.104
 7747TIP3   OH223181   6.847   5.130   3.400
 7747TIP3    H123182   6.766   5.181   3.402
 7747TIP3    H223183   6.891   5.151   3.482
 7748TIP3   OH223184   4.161   1.520   4.590
 7748TIP3    H123185   4.138   1.564   4.672
 7748TIP3    H223186   4.110   1.439   4.591
 7749TIP3   OH223187   2.620   4.959   4.034
 7749TIP3    H123188   2.672   4.903   3.976
 7749TIP3    H223189   2.602   4.905   4.111
 7750TIP3   OH223190   3.516   2.668   3.855
 7750TIP3    H123191   3.498   2.641   3.766
 7750TIP3    H223192   3.433   2.657   3.901
 7751TIP3   OH223193   1.985   0.499   5.757
 7751TIP3    H123194   2.023   0.580   5.792
 7751TIP3    H223195   1.911   0.529   5.703
 7752TIP3   OH223196   0.363   4.735   3.084
 7752TIP3    H123197   0.366   4.657   3.030
 7752TIP3    H223198   0.409   4.712   3.164
 7753TIP3   OH223199   0.943   5.269   1.020
 7753TIP3    H123200   0.853   5.262   0.987
 7753TIP3    H223201   0.976   5.179   1.018
 7754TIP3   OH223202   0.197   4.462   5.832
 7754TIP3    H123203   0.148   4.390   5.790
 7754TIP3    H223204   0.289   4.436   5.824
 7755TIP3   OH223205   4.006   2.276   4.718
 7755TIP3    H123206   4.041   2.269   4.630
 7755TIP3    H223207   4.081   2.261   4.776
 7756TIP3   OH223208   7.668   2.083   1.959
 7756TIP3    H123209   7.725   2.009   1.977
 7756TIP3    H223210   7.580   2.045   1.953
 7757TIP3   OH223211   2.931   1.395   1.543
 7757TIP3    H123212   2.852   1.428   1.586
 7757TIP3    H223213   2.905   1.309   1.510
 7758TIP3   OH223214   7.912   0.097   5.422
 7758TIP3    H123215   7.902   0.165   5.356
 7758TIP3    H223216   7.989   0.125   5.473
 7759TIP3   OH223217   0.567   7.232   0.148
 7759TIP3    H123218   0.580   7.238   0.054
 7759TIP3    H223219   0.533   7.144   0.163
 7760TIP3   OH223220   7.675   1.199   0.291
 7760TIP3    H123221   7.688   1.115   0.336
 7760TIP3    H223222   7.763   1.223   0.262
 7761TIP3   OH223223   6.106   2.591   1.350
 7761TIP3    H123224   6.083   2.684   1.341
 7761TIP3    H223225   6.024   2.544   1.338
 7762TIP3   OH223226   0.294   1.512   0.663
 7762TIP3    H123227   0.382   1.488   0.635
 7762TIP3    H223228   0.276   1.454   0.737
 7763TIP3   OH223229   7.231   5.394   0.041
 7763TIP3    H123230   7.269   5.477   0.072
 7763TIP3    H223231   7.294   5.361  -0.023
 7764TIP3   OH223232   3.324   5.713   1.839
 7764TIP3    H123233   3.371   5.656   1.900
 7764TIP3    H223234   3.390   5.739   1.775
 7765TIP3   OH223235   3.433   3.702   0.283
 7765TIP3    H123236   3.460   3.714   0.374
 7765TIP3    H223237   3.512   3.720   0.233
 7766TIP3   OH223238   2.446   7.212   6.319
 7766TIP3    H123239   2.440   7.225   6.224
 7766TIP3    H223240   2.358   7.187   6.346
 7767TIP3   OH223241   4.127   0.179   0.845
 7767TIP3    H123242   4.132   0.245   0.775
 7767TIP3    H223243   4.186   0.109   0.815
 7768TIP3   OH223244   6.036   1.895   0.127
 7768TIP3    H123245   6.006   1.817   0.175
 7768TIP3    H223246   5.957   1.933   0.089
 7769TIP3   OH223247   0.263   3.634   0.768
 7769TIP3    H123248   0.191   3.598   0.820
 7769TIP3    H223249   0.329   3.565   0.767
 7770TIP3   OH223250   0.125   6.477   0.955
 7770TIP3    H123251   0.052   6.416   0.951
 7770TIP3    H223252   0.148   6.482   1.048
 7771TIP3   OH223253   1.783   3.740   3.709
 7771TIP3    H123254   1.689   3.741   3.728
 7771TIP3    H223255   1.789   3.754   3.615
 7772TIP3   OH223256   1.306   3.813   2.377
 7772TIP3    H123257   1.321   3.719   2.369
 7772TIP3    H223258   1.393   3.851   2.377
 7773TIP3   OH223259   4.066   7.314   0.754
 7773TIP3    H123260   4.020   7.233   0.730
 7773TIP3    H223261   4.003   7.383   0.735
 7774TIP3   OH223262   6.448   0.197   5.705
 7774TIP3    H123263   6.523   0.137   5.712
 7774TIP3    H223264   6.477   0.264   5.644
 7775TIP3   OH223265   5.239   5.905   0.518
 7775TIP3    H123266   5.299   5.973   0.489
 7775TIP3    H223267   5.165   5.910   0.457
 7776TIP3   OH223268   6.301   2.149   4.328
 7776TIP3    H123269   6.300   2.195   4.411
 7776TIP3    H223270   6.387   2.171   4.290
 7777TIP3   OH223271   5.299   5.878   1.702
 7777TIP3    H123272   5.352   5.813   1.656
 7777TIP3    H223273   5.361   5.920   1.763
 7778TIP3   OH223274   6.841   2.060   6.419
 7778TIP3    H123275   6.921   2.108   6.438
 7778TIP3    H223276   6.871   1.975   6.387
 7779TIP3   OH223277   2.947   2.533   4.581
 7779TIP3    H123278   2.980   2.466   4.522
 7779TIP3    H223279   3.024   2.582   4.608
 7780TIP3   OH223280   7.545   0.738   2.108
 7780TIP3    H123281   7.501   0.674   2.052
 7780TIP3    H223282   7.611   0.778   2.051
 7781TIP3   OH223283   1.408   0.914   1.846
 7781TIP3    H123284   1.385   1.007   1.845
 7781TIP3    H223285   1.345   0.873   1.787
 7782TIP3   OH223286   1.923   5.042   4.353
 7782TIP3    H123287   1.908   5.131   4.384
 7782TIP3    H223288   1.913   5.047   4.258
 7783TIP3   OH223289   5.623   5.067   1.889
 7783TIP3    H123290   5.611   5.076   1.983
 7783TIP3    H223291   5.710   5.101   1.872
 7784TIP3   OH223292   3.013   6.931   1.616
 7784TIP3    H123293   2.925   6.970   1.623
 7784TIP3    H223294   3.065   6.997   1.570
 7785TIP3   OH223295   0.171   3.293   1.540
 7785TIP3    H123296   0.079   3.269   1.552
 7785TIP3    H223297   0.181   3.306   1.446
 7786TIP3   OH223298   3.713   1.287   0.812
 7786TIP3    H123299   3.807   1.276   0.826
 7786TIP3    H223300   3.678   1.307   0.899
 7787TIP3   OH223301   2.005   5.463   3.845
 7787TIP3    H123302   2.078   5.481   3.786
 7787TIP3    H223303   1.941   5.531   3.826
 7788TIP3   OH223304   3.481   3.580   0.911
 7788TIP3    H123305   3.387   3.593   0.924
 7788TIP3    H223306   3.518   3.668   0.907
 7789TIP3   OH223307   1.514   2.683   6.026
 7789TIP3    H123308   1.474   2.734   6.095
 7789TIP3    H223309   1.608   2.703   6.032
 7790TIP3   OH223310   7.570   3.159   0.125
 7790TIP3    H123311   7.576   3.064   0.133
 7790TIP3    H223312   7.653   3.191   0.161
 7791TIP3   OH223313   7.784   5.364   4.595
 7791TIP3    H123314   7.802   5.420   4.520
 7791TIP3    H223315   7.849   5.294   4.589
 7792TIP3   OH223316   0.330   7.382   4.653
 7792TIP3    H123317   0.360   7.347   4.737
 7792TIP3    H223318   0.392   7.347   4.589
 7793TIP3   OH223319   0.681   7.605   1.528
 7793TIP3    H123320   0.650   7.516   1.514
 7793TIP3    H223321   0.710   7.635   1.442
 7794TIP3   OH223322   2.851   4.488   6.205
 7794TIP3    H123323   2.922   4.423   6.207
 7794TIP3    H223324   2.870   4.541   6.128
 7795TIP3   OH223325   3.464   4.520   2.072
 7795TIP3    H123326   3.538   4.580   2.074
 7795TIP3    H223327   3.458   4.491   1.981
 7796TIP3   OH223328   6.677   5.101   5.651
 7796TIP3    H123329   6.732   5.124   5.576
 7796TIP3    H223330   6.686   5.174   5.711
 7797TIP3   OH223331   6.955   2.975   6.030
 7797TIP3    H123332   7.024   2.913   6.054
 7797TIP3    H223333   7.001   3.047   5.987
 7798TIP3   OH223334   0.196   4.975   5.736
 7798TIP3    H123335   0.207   5.023   5.818
 7798TIP3    H223336   0.145   4.898   5.761
 7799TIP3   OH223337   6.206   5.391   1.221
 7799TIP3    H123338   6.169   5.375   1.135
 7799TIP3    H223339   6.208   5.486   1.229
 7800TIP3   OH223340   1.463   1.892   1.185
 7800TIP3    H123341   1.516   1.821   1.222
 7800TIP3    H223342   1.375   1.876   1.221
 7801TIP3   OH223343   4.944   5.066   4.109
 7801TIP3    H123344   4.896   5.123   4.049
 7801TIP3    H223345   4.935   5.108   4.195
 7802TIP3   OH223346   0.913   4.875   5.662
 7802TIP3    H123347   0.822   4.904   5.660
 7802TIP3    H223348   0.950   4.919   5.738
 7803TIP3   OH223349   7.566   0.980   2.675
 7803TIP3    H123350   7.598   0.975   2.765
 7803TIP3    H223351   7.569   1.073   2.653
 7804TIP3   OH223352   0.101   4.883   5.286
 7804TIP3    H123353   0.190   4.916   5.299
 7804TIP3    H223354   0.112   4.790   5.265
 7805TIP3   OH223355   4.952   1.713   4.830
 7805TIP3    H123356   4.901   1.670   4.899
 7805TIP3    H223357   5.041   1.681   4.843
 7806TIP3   OH223358   5.230   2.667   0.327
 7806TIP3    H123359   5.283   2.709   0.395
 7806TIP3    H223360   5.281   2.680   0.247
 7807TIP3   OH223361   7.293   5.550   4.934
 7807TIP3    H123362   7.358   5.619   4.948
 7807TIP3    H223363   7.319   5.481   4.995
 7808TIP3   OH223364   2.633   3.577   0.675
 7808TIP3    H123365   2.636   3.665   0.639
 7808TIP3    H223366   2.709   3.532   0.636
 7809TIP3   OH223367   8.002   5.295   3.304
 7809TIP3    H123368   7.946   5.218   3.296
 7809TIP3    H223369   8.087   5.266   3.272
 7810TIP3   OH223370   3.057   1.594   4.968
 7810TIP3    H123371   2.963   1.603   4.978
 7810TIP3    H223372   3.069   1.504   4.937
 7811TIP3   OH223373   7.524   7.560   2.459
 7811TIP3    H123374   7.485   7.481   2.421
 7811TIP3    H223375   7.505   7.553   2.553
 7812TIP3   OH223376   0.540   2.541   3.742
 7812TIP3    H123377   0.636   2.535   3.743
 7812TIP3    H223378   0.522   2.625   3.701
 7813TIP3   OH223379   3.283   6.431   5.109
 7813TIP3    H123380   3.335   6.382   5.172
 7813TIP3    H223381   3.291   6.381   5.027
 7814TIP3   OH223382   5.394   0.769   3.957
 7814TIP3    H123383   5.462   0.719   4.001
 7814TIP3    H223384   5.339   0.703   3.915
 7815TIP3   OH223385   3.875   0.231   3.333
 7815TIP3    H123386   3.874   0.198   3.243
 7815TIP3    H223387   3.902   0.156   3.386
 7816TIP3   OH223388   7.576   7.599   2.734
 7816TIP3    H123389   7.513   7.647   2.789
 7816TIP3    H223390   7.613   7.533   2.792
 7817TIP3   OH223391   3.860   0.112   5.977
 7817TIP3    H123392   3.930   0.163   6.017
 7817TIP3    H223393   3.789   0.175   5.963
 7818TIP3   OH223394   8.148   1.100   5.720
 7818TIP3    H123395   8.186   1.019   5.687
 7818TIP3    H223396   8.148   1.159   5.644
 7819TIP3   OH223397   6.127   6.082   1.097
 7819TIP3    H123398   6.123   6.020   1.024
 7819TIP3    H223399   6.216   6.072   1.132
 7820TIP3   OH223400   7.311   5.026   4.406
 7820TIP3    H123401   7.346   5.093   4.464
 7820TIP3    H223402   7.355   5.041   4.323
 7821TIP3   OH223403   5.835   0.527   0.704
 7821TIP3    H123404   5.884   0.564   0.777
 7821TIP3    H223405   5.780   0.599   0.673
 7822TIP3   OH223406   5.734   2.072   2.367
 7822TIP3    H123407   5.780   2.143   2.410
 7822TIP3    H223408   5.642   2.099   2.364
 7823TIP3   OH223409   1.689   1.832   5.736
 7823TIP3    H123410   1.625   1.858   5.802
 7823TIP3    H223411   1.699   1.738   5.749
 7824TIP3   OH223412   0.811   0.785   3.202
 7824TIP3    H123413   0.734   0.781   3.259
 7824TIP3    H223414   0.810   0.702   3.154
 7825TIP3   OH223415   3.596   2.342   0.205
 7825TIP3    H123416   3.617   2.251   0.185
 7825TIP3    H223417   3.516   2.336   0.258
 7826TIP3   OH223418   6.245   2.462   0.185
 7826TIP3    H123419   6.327   2.495   0.220
 7826TIP3    H223420   6.227   2.384   0.237
 7827TIP3   OH223421   0.095   3.749   5.955
 7827TIP3    H123422   0.074   3.657   5.968
 7827TIP3    H223423   0.070   3.791   6.037
 7828TIP3   OH223424   1.874   4.855   1.440
 7828TIP3    H123425   1.799   4.864   1.500
 7828TIP3    H223426   1.838   4.876   1.354
 7829TIP3   OH223427   5.057   1.994   0.656
 7829TIP3    H123428   4.988   2.054   0.629
 7829TIP3    H223429   5.036   1.912   0.610
 7830TIP3   OH223430   2.817   7.102   0.538
 7830TIP3    H123431   2.867   7.087   0.618
 7830TIP3    H223432   2.786   7.016   0.512
 7831TIP3   OH223433   7.247   0.168   0.746
 7831TIP3    H123434   7.160   0.135   0.767
 7831TIP3    H223435   7.231   0.250   0.699
 7832TIP3   OH223436   4.993   6.730   1.591
 7832TIP3    H123437   5.008   6.746   1.498
 7832TIP3    H223438   5.057   6.785   1.636
 7833TIP3   OH223439   1.304   7.746   2.287
 7833TIP3    H123440   1.385   7.744   2.339
 7833TIP3    H223441   1.271   7.836   2.298
 7834TIP3   OH223442   1.873   1.270   5.350
 7834TIP3    H123443   1.822   1.213   5.293
 7834TIP3    H223444   1.888   1.219   5.429
 7835TIP3   OH223445   6.832   7.305   0.963
 7835TIP3    H123446   6.874   7.255   1.033
 7835TIP3    H223447   6.902   7.322   0.900
 7836TIP3   OH223448   4.545   0.245   1.336
 7836TIP3    H123449   4.639   0.263   1.340
 7836TIP3    H223450   4.521   0.226   1.427
 7837TIP3   OH223451   1.753   7.004   3.346
 7837TIP3    H123452   1.829   7.019   3.403
 7837TIP3    H223453   1.730   6.912   3.360
 7838TIP3   OH223454   4.372   6.742   1.663
 7838TIP3    H123455   4.322   6.759   1.584
 7838TIP3    H223456   4.428   6.667   1.641
 7839TIP3   OH223457   4.734   0.781   3.390
 7839TIP3    H123458   4.669   0.760   3.456
 7839TIP3    H223459   4.817   0.786   3.438
 7840TIP3   OH223460   4.168   0.242   3.715
 7840TIP3    H123461   4.206   0.327   3.692
 7840TIP3    H223462   4.167   0.243   3.811
 7841TIP3   OH223463   0.023   1.595   1.398
 7841TIP3    H123464  -0.072   1.591   1.393
 7841TIP3    H223465   0.054   1.562   1.314
 7842TIP3   OH223466   2.236   5.843   3.282
 7842TIP3    H123467   2.152   5.797   3.288
 7842TIP3    H223468   2.212   5.934   3.263
 7843TIP3   OH223469   4.760   3.185   5.697
 7843TIP3    H123470   4.680   3.233   5.677
 7843TIP3    H223471   4.815   3.195   5.619
 7844TIP3   OH223472   1.374   4.645   4.361
 7844TIP3    H123473   1.399   4.604   4.444
 7844TIP3    H223474   1.392   4.738   4.374
 7845TIP3   OH223475   0.513   0.178   3.013
 7845TIP3    H123476   0.494   0.226   3.094
 7845TIP3    H223477   0.602   0.144   3.026
 7846TIP3   OH223478   2.583   4.254   3.109
 7846TIP3    H123479   2.488   4.240   3.108
 7846TIP3    H223480   2.598   4.308   3.187
 7847TIP3   OH223481   1.604   5.278   4.194
 7847TIP3    H123482   1.570   5.243   4.276
 7847TIP3    H223483   1.528   5.318   4.151
 7848TIP3   OH223484   5.446   1.843   4.184
 7848TIP3    H123485   5.372   1.820   4.241
 7848TIP3    H223486   5.523   1.816   4.234
 7849TIP3   OH223487   1.097   2.586   2.365
 7849TIP3    H123488   1.053   2.523   2.309
 7849TIP3    H223489   1.037   2.598   2.439
 7850TIP3   OH223490   1.323   1.387   6.489
 7850TIP3    H123491   1.334   1.296   6.460
 7850TIP3    H223492   1.269   1.380   6.568
 7851TIP3   OH223493   4.394   7.125   6.356
 7851TIP3    H123494   4.412   7.180   6.280
 7851TIP3    H223495   4.395   7.185   6.430
 7852TIP3   OH223496   1.272   0.396   4.611
 7852TIP3    H123497   1.203   0.411   4.676
 7852TIP3    H223498   1.226   0.388   4.528
 7853TIP3   OH223499   6.039   6.673   5.735
 7853TIP3    H123500   6.001   6.655   5.649
 7853TIP3    H223501   6.134   6.676   5.719
 7854TIP3   OH223502   2.462   7.819   2.032
 7854TIP3    H123503   2.496   7.782   2.114
 7854TIP3    H223504   2.497   7.908   2.031
 7855TIP3   OH223505   5.324   5.286   3.279
 7855TIP3    H123506   5.261   5.305   3.348
 7855TIP3    H223507   5.318   5.361   3.220
 7856TIP3   OH223508   0.941   5.943   5.941
 7856TIP3    H123509   0.949   5.848   5.939
 7856TIP3    H223510   1.008   5.971   6.004
 7857TIP3   OH223511   1.642   4.780   2.947
 7857TIP3    H123512   1.673   4.748   2.862
 7857TIP3    H223513   1.596   4.706   2.986
 7858TIP3   OH223514   4.170   5.243   5.037
 7858TIP3    H123515   4.112   5.310   5.000
 7858TIP3    H223516   4.252   5.253   4.989
 7859TIP3   OH223517   2.730   7.877   3.161
 7859TIP3    H123518   2.768   7.791   3.139
 7859TIP3    H223519   2.641   7.873   3.128
 7860TIP3   OH223520   7.358   2.678   0.041
 7860TIP3    H123521   7.432   2.739   0.050
 7860TIP3    H223522   7.397   2.591   0.044
 7861TIP3   OH223523   2.641   5.879   2.948
 7861TIP3    H123524   2.573   5.859   2.884
 7861TIP3    H223525   2.723   5.859   2.903
 7862TIP3   OH223526   5.738   1.078   4.418
 7862TIP3    H123527   5.786   1.113   4.344
 7862TIP3    H223528   5.772   1.126   4.494
 7863TIP3   OH223529   3.951   4.208   5.274
 7863TIP3    H123530   4.034   4.251   5.254
 7863TIP3    H223531   3.945   4.210   5.369
 7864TIP3   OH223532   1.742   7.929   6.269
 7864TIP3    H123533   1.790   7.847   6.255
 7864TIP3    H223534   1.715   7.956   6.181
 7865TIP3   OH223535   2.234   6.105   2.502
 7865TIP3    H123536   2.173   6.163   2.547
 7865TIP3    H223537   2.204   6.017   2.524
 7866TIP3   OH223538   0.134   7.674   2.832
 7866TIP3    H123539   0.205   7.610   2.830
 7866TIP3    H223540   0.178   7.758   2.815
 7867TIP3   OH223541   4.400   4.049   6.837
 7867TIP3    H123542   4.460   4.007   6.775
 7867TIP3    H223543   4.410   3.998   6.917
 7868TIP3   OH223544   3.632   5.757   0.169
 7868TIP3    H123545   3.541   5.766   0.196
 7868TIP3    H223546   3.682   5.764   0.250
 7869TIP3   OH223547   2.003   4.224   4.876
 7869TIP3    H123548   1.931   4.161   4.880
 7869TIP3    H223549   2.012   4.245   4.783
 7870TIP3   OH223550   5.495   0.847   2.250
 7870TIP3    H123551   5.578   0.878   2.214
 7870TIP3    H223552   5.499   0.751   2.241
 7871TIP3   OH223553   5.394   6.596   5.811
 7871TIP3    H123554   5.489   6.601   5.805
 7871TIP3    H223555   5.371   6.510   5.777
 7872TIP3   OH223556   4.773   5.186   0.965
 7872TIP3    H123557   4.732   5.148   1.042
 7872TIP3    H223558   4.866   5.162   0.973
 7873TIP3   OH223559   5.769   5.233   2.835
 7873TIP3    H123560   5.813   5.174   2.896
 7873TIP3    H223561   5.839   5.268   2.780
 7874TIP3   OH223562   3.552   1.485   3.700
 7874TIP3    H123563   3.586   1.491   3.789
 7874TIP3    H223564   3.629   1.478   3.644
 7875TIP3   OH223565   4.299   4.249   0.146
 7875TIP3    H123566   4.230   4.243   0.212
 7875TIP3    H223567   4.307   4.160   0.112
 7876TIP3   OH223568   3.397   2.763   6.202
 7876TIP3    H123569   3.484   2.723   6.196
 7876TIP3    H223570   3.341   2.692   6.235
 7877TIP3   OH223571   4.239   6.858   4.582
 7877TIP3    H123572   4.211   6.775   4.620
 7877TIP3    H223573   4.335   6.853   4.580
 7878TIP3   OH223574   7.758   7.080   3.538
 7878TIP3    H123575   7.663   7.073   3.547
 7878TIP3    H223576   7.772   7.092   3.444
 7879TIP3   OH223577   4.844   7.896   6.839
 7879TIP3    H123578   4.792   7.821   6.867
 7879TIP3    H223579   4.803   7.925   6.758
 7880TIP3   OH223580   6.230   5.699   4.826
 7880TIP3    H123581   6.209   5.660   4.741
 7880TIP3    H223582   6.323   5.681   4.838
 7881TIP3   OH223583   2.126   6.487   0.638
 7881TIP3    H123584   2.116   6.576   0.672
 7881TIP3    H223585   2.139   6.499   0.543
 7882TIP3   OH223586   6.087   0.684   5.281
 7882TIP3    H123587   6.136   0.612   5.321
 7882TIP3    H223588   6.003   0.645   5.256
 7883TIP3   OH223589   1.779   5.995   1.819
 7883TIP3    H123590   1.689   6.018   1.797
 7883TIP3    H223591   1.771   5.914   1.869
 7884TIP3   OH223592   5.527   5.419   4.552
 7884TIP3    H123593   5.486   5.420   4.466
 7884TIP3    H223594   5.584   5.341   4.551
 7885TIP3   OH223595   4.881   6.874   3.932
 7885TIP3    H123596   4.937   6.797   3.933
 7885TIP3    H223597   4.860   6.890   4.024
 7886TIP3   OH223598   5.832   7.434   5.895
 7886TIP3    H123599   5.809   7.486   5.972
 7886TIP3    H223600   5.793   7.348   5.912
 7887TIP3   OH223601   7.284   3.651   2.103
 7887TIP3    H123602   7.301   3.576   2.160
 7887TIP3    H223603   7.218   3.703   2.150
 7888TIP3   OH223604   4.988   7.010   1.889
 7888TIP3    H123605   4.984   6.920   1.919
 7888TIP3    H223606   5.002   7.062   1.969
 7889TIP3   OH223607   6.683   7.128   3.188
 7889TIP3    H123608   6.735   7.184   3.132
 7889TIP3    H223609   6.629   7.076   3.128
 7890TIP3   OH223610   7.592   5.486   4.964
 7890TIP3    H123611   7.537   5.433   4.906
 7890TIP3    H223612   7.622   5.559   4.909
 7891TIP3   OH223613   0.913   1.557   3.203
 7891TIP3    H123614   0.924   1.464   3.184
 7891TIP3    H223615   1.003   1.591   3.206
 7892TIP3   OH223616   3.123   5.792   4.749
 7892TIP3    H123617   3.116   5.845   4.828
 7892TIP3    H223618   3.154   5.707   4.780
 7893TIP3   OH223619   8.091   1.953   6.115
 7893TIP3    H123620   8.003   1.915   6.120
 7893TIP3    H223621   8.113   1.952   6.021
 7894TIP3   OH223622   6.600   1.211   0.610
 7894TIP3    H123623   6.534   1.209   0.540
 7894TIP3    H223624   6.609   1.304   0.631
 7895TIP3   OH223625   8.157   6.399   3.797
 7895TIP3    H123626   8.071   6.374   3.831
 7895TIP3    H223627   8.142   6.482   3.753
 7896TIP3   OH223628   6.381   3.460   6.128
 7896TIP3    H123629   6.411   3.370   6.141
 7896TIP3    H223630   6.357   3.490   6.215
 7897TIP3   OH223631   1.394   6.036   3.025
 7897TIP3    H123632   1.396   6.094   2.948
 7897TIP3    H223633   1.309   5.992   3.020
 7898TIP3   OH223634   8.106   4.654   1.082
 7898TIP3    H123635   8.097   4.562   1.107
 7898TIP3    H223636   8.143   4.651   0.994
 7899TIP3   OH223637   4.526   3.803   5.202
 7899TIP3    H123638   4.548   3.714   5.227
 7899TIP3    H223639   4.564   3.857   5.272
 7900TIP3   OH223640   8.355   4.492   0.122
 7900TIP3    H123641   8.353   4.587   0.117
 7900TIP3    H223642   8.407   4.473   0.200
 7901TIP3   OH223643   5.775   0.062   1.612
 7901TIP3    H123644   5.685   0.076   1.581
 7901TIP3    H223645   5.825   0.041   1.533
 7902TIP3   OH223646   4.974   4.219   5.292
 7902TIP3    H123647   5.035   4.289   5.272
 7902TIP3    H223648   4.958   4.176   5.208
 7903TIP3   OH223649   6.720   6.878   5.186
 7903TIP3    H123650   6.734   6.947   5.251
 7903TIP3    H223651   6.662   6.816   5.230
 7904TIP3   OH223652   5.572   4.657   5.836
 7904TIP3    H123653   5.655   4.698   5.810
 7904TIP3    H223654   5.505   4.721   5.811
 7905TIP3   OH223655   4.342   0.799   2.927
 7905TIP3    H123656   4.401   0.866   2.962
 7905TIP3    H223657   4.319   0.830   2.839
 7906TIP3   OH223658   0.202   4.323   2.907
 7906TIP3    H123659   0.128   4.327   2.846
 7906TIP3    H223660   0.187   4.243   2.958
 7907TIP3   OH223661   2.610   5.451   3.254
 7907TIP3    H123662   2.564   5.526   3.293
 7907TIP3    H223663   2.604   5.382   3.320
 7908TIP3   OH223664   2.673   0.463   1.372
 7908TIP3    H123665   2.620   0.515   1.432
 7908TIP3    H223666   2.762   0.471   1.406
 7909TIP3   OH223667   5.128   1.735   2.121
 7909TIP3    H123668   5.113   1.641   2.110
 7909TIP3    H223669   5.047   1.776   2.091
 7910TIP3   OH223670   6.654   2.472   5.120
 7910TIP3    H123671   6.671   2.438   5.033
 7910TIP3    H223672   6.658   2.395   5.177
 7911TIP3   OH223673   3.742   6.086   0.916
 7911TIP3    H123674   3.765   6.162   0.863
 7911TIP3    H223675   3.647   6.088   0.921
 7912TIP3   OH223676   5.658   6.631   5.939
 7912TIP3    H123677   5.734   6.604   5.990
 7912TIP3    H223678   5.688   6.705   5.887
 7913TIP3   OH223679   4.546   5.661   2.429
 7913TIP3    H123680   4.529   5.754   2.442
 7913TIP3    H223681   4.629   5.658   2.380
 7914TIP3   OH223682   7.538   7.017   1.721
 7914TIP3    H123683   7.556   7.093   1.776
 7914TIP3    H223684   7.570   7.041   1.634
 7915TIP3   OH223685   1.585   3.048   4.290
 7915TIP3    H123686   1.616   3.084   4.207
 7915TIP3    H223687   1.608   2.955   4.286
 7916TIP3   OH223688   3.963   3.681   5.145
 7916TIP3    H123689   3.994   3.752   5.089
 7916TIP3    H223690   3.985   3.601   5.097
 7917TIP3   OH223691   2.514   4.476   6.622
 7917TIP3    H123692   2.565   4.397   6.640
 7917TIP3    H223693   2.456   4.484   6.698
 7918TIP3   OH223694   1.368   1.750   1.777
 7918TIP3    H123695   1.318   1.761   1.696
 7918TIP3    H223696   1.345   1.662   1.807
 7919TIP3   OH223697   7.359   4.047   0.892
 7919TIP3    H123698   7.404   3.982   0.839
 7919TIP3    H223699   7.428   4.088   0.945
 7920TIP3   OH223700   1.497   7.508   2.531
 7920TIP3    H123701   1.428   7.450   2.499
 7920TIP3    H223702   1.465   7.539   2.616
 7921TIP3   OH223703   5.827   5.839   4.049
 7921TIP3    H123704   5.826   5.864   3.957
 7921TIP3    H223705   5.853   5.919   4.095
 7922TIP3   OH223706   5.752   1.946   5.582
 7922TIP3    H123707   5.746   1.851   5.579
 7922TIP3    H223708   5.793   1.970   5.499
 7923TIP3   OH223709   7.830   2.103   5.371
 7923TIP3    H123710   7.913   2.074   5.410
 7923TIP3    H223711   7.776   2.130   5.445
 7924TIP3   OH223712   1.862   1.934   6.696
 7924TIP3    H123713   1.799   1.862   6.699
 7924TIP3    H223714   1.809   2.013   6.704
 7925TIP3   OH223715   0.360   5.187   2.577
 7925TIP3    H123716   0.316   5.203   2.660
 7925TIP3    H223717   0.290   5.161   2.518
 7926TIP3   OH223718   6.209   5.249   4.056
 7926TIP3    H123719   6.254   5.290   4.130
 7926TIP3    H223720   6.157   5.320   4.017
 7927TIP3   OH223721   2.649   6.739   5.301
 7927TIP3    H123722   2.631   6.718   5.209
 7927TIP3    H223723   2.732   6.695   5.319
 7928TIP3   OH223724   4.705   5.720   3.860
 7928TIP3    H123725   4.623   5.766   3.877
 7928TIP3    H223726   4.680   5.627   3.857
 7929TIP3   OH223727   1.388   3.559   4.508
 7929TIP3    H123728   1.374   3.654   4.512
 7929TIP3    H223729   1.351   3.526   4.591
 7930TIP3   OH223730   7.145   7.404   0.536
 7930TIP3    H123731   7.092   7.467   0.487
 7930TIP3    H223732   7.179   7.455   0.610
 7931TIP3   OH223733   3.824   0.989   1.340
 7931TIP3    H123734   3.833   0.909   1.288
 7931TIP3    H223735   3.738   0.982   1.380
 7932TIP3   OH223736   4.812   2.148   1.320
 7932TIP3    H123737   4.830   2.067   1.368
 7932TIP3    H223738   4.829   2.218   1.383
 7933TIP3   OH223739   5.708   4.245   0.020
 7933TIP3    H123740   5.707   4.179   0.089
 7933TIP3    H223741   5.791   4.291   0.034
 7934TIP3   OH223742   3.444   3.114   3.130
 7934TIP3    H123743   3.507   3.109   3.202
 7934TIP3    H223744   3.367   3.155   3.169
 7935TIP3   OH223745   0.059   4.777   0.993
 7935TIP3    H123746  -0.015   4.832   0.971
 7935TIP3    H223747   0.133   4.815   0.945
 7936TIP3   OH223748   7.446   3.979   0.041
 7936TIP3    H123749   7.519   3.925   0.010
 7936TIP3    H223750   7.452   4.060  -0.010
 7937TIP3   OH223751   1.133   0.541   2.242
 7937TIP3    H123752   1.116   0.599   2.168
 7937TIP3    H223753   1.113   0.595   2.319
 7938TIP3   OH223754   6.153   3.294   4.534
 7938TIP3    H123755   6.155   3.309   4.439
 7938TIP3    H223756   6.136   3.380   4.571
 7939TIP3   OH223757   4.413   2.625   0.753
 7939TIP3    H123758   4.472   2.665   0.817
 7939TIP3    H223759   4.468   2.610   0.676
 7940TIP3   OH223760   2.705   1.626   2.135
 7940TIP3    H123761   2.614   1.644   2.160
 7940TIP3    H223762   2.755   1.640   2.216
 7941TIP3   OH223763   0.983   2.631   5.554
 7941TIP3    H123764   1.056   2.694   5.558
 7941TIP3    H223765   0.928   2.655   5.629
 7942TIP3   OH223766   3.040   4.593   0.934
 7942TIP3    H123767   2.966   4.610   0.993
 7942TIP3    H223768   3.012   4.629   0.850
 7943TIP3   OH223769   2.559   7.718   2.285
 7943TIP3    H123770   2.545   7.756   2.372
 7943TIP3    H223771   2.610   7.639   2.301
 7944TIP3   OH223772   1.755   0.124   3.194
 7944TIP3    H123773   1.732   0.127   3.287
 7944TIP3    H223774   1.716   0.203   3.157
 7945TIP3   OH223775   6.002   5.709   2.482
 7945TIP3    H123776   5.998   5.804   2.472
 7945TIP3    H223777   5.975   5.693   2.573
 7946TIP3   OH223778   0.116   2.346   3.197
 7946TIP3    H123779   0.034   2.342   3.147
 7946TIP3    H223780   0.113   2.268   3.253
 7947TIP3   OH223781   7.028   1.118   1.747
 7947TIP3    H123782   6.977   1.038   1.731
 7947TIP3    H223783   7.117   1.087   1.764
 7948TIP3   OH223784   3.460   6.096   0.908
 7948TIP3    H123785   3.376   6.054   0.885
 7948TIP3    H223786   3.481   6.150   0.832
 7949TIP3   OH223787   2.512   3.019   3.401
 7949TIP3    H123788   2.444   3.072   3.358
 7949TIP3    H223789   2.549   2.966   3.330
 7950TIP3   OH223790   5.391   4.263   0.876
 7950TIP3    H123791   5.313   4.237   0.924
 7950TIP3    H223792   5.459   4.201   0.904
 7951TIP3   OH223793   4.986   6.269   6.735
 7951TIP3    H123794   5.053   6.201   6.726
 7951TIP3    H223795   5.033   6.352   6.726
 7952TIP3   OH223796   4.992   3.127   3.048
 7952TIP3    H123797   4.943   3.144   3.128
 7952TIP3    H223798   5.083   3.141   3.071
 7953TIP3   OH223799   1.094   1.376   3.997
 7953TIP3    H123800   1.086   1.438   4.069
 7953TIP3    H223801   1.100   1.291   4.039
 7954TIP3   OH223802   6.635   7.185   6.348
 7954TIP3    H123803   6.700   7.136   6.398
 7954TIP3    H223804   6.551   7.157   6.385
 7955TIP3   OH223805   7.504   5.441   4.319
 7955TIP3    H123806   7.445   5.423   4.392
 7955TIP3    H223807   7.463   5.514   4.273
 7956TIP3   OH223808   5.963   2.453   6.022
 7956TIP3    H123809   6.056   2.457   6.045
 7956TIP3    H223810   5.962   2.415   5.934
 7957TIP3   OH223811   7.816   0.966   0.111
 7957TIP3    H123812   7.774   0.941   0.029
 7957TIP3    H223813   7.788   0.899   0.173
 7958TIP3   OH223814   0.403   1.470   2.546
 7958TIP3    H123815   0.497   1.488   2.536
 7958TIP3    H223816   0.370   1.544   2.597
 7959TIP3   OH223817   6.918   2.455   1.893
 7959TIP3    H123818   6.932   2.433   1.801
 7959TIP3    H223819   6.826   2.483   1.897
 7960TIP3   OH223820   3.329   4.206   5.344
 7960TIP3    H123821   3.333   4.207   5.440
 7960TIP3    H223822   3.375   4.125   5.319
 7961TIP3   OH223823   7.913   3.202   0.518
 7961TIP3    H123824   7.873   3.278   0.560
 7961TIP3    H223825   7.910   3.134   0.586
 7962TIP3   OH223826   1.588   6.666   2.759
 7962TIP3    H123827   1.605   6.711   2.676
 7962TIP3    H223828   1.505   6.621   2.745
 7963TIP3   OH223829   5.479   3.570   2.549
 7963TIP3    H123830   5.489   3.493   2.493
 7963TIP3    H223831   5.465   3.534   2.637
 7964TIP3   OH223832   7.324   2.035   6.281
 7964TIP3    H123833   7.388   1.968   6.305
 7964TIP3    H223834   7.291   2.006   6.196
 7965TIP3   OH223835   6.058   3.855   5.703
 7965TIP3    H123836   5.994   3.864   5.632
 7965TIP3    H223837   6.072   3.760   5.711
 7966TIP3   OH223838   7.551   0.390   1.489
 7966TIP3    H123839   7.629   0.378   1.434
 7966TIP3    H223840   7.505   0.464   1.450
 7967TIP3   OH223841   3.450   7.430   6.068
 7967TIP3    H123842   3.411   7.518   6.076
 7967TIP3    H223843   3.415   7.397   5.985
 7968TIP3   OH223844   3.029   5.545   5.941
 7968TIP3    H123845   2.975   5.606   5.991
 7968TIP3    H223846   3.106   5.597   5.915
 7969TIP3   OH223847   8.321   3.033   1.871
 7969TIP3    H123848   8.227   3.014   1.881
 7969TIP3    H223849   8.363   2.947   1.875
 7970TIP3   OH223850   0.067   1.721   2.037
 7970TIP3    H123851   0.110   1.775   1.972
 7970TIP3    H223852   0.120   1.732   2.116
 7971TIP3   OH223853   3.233   1.514   6.338
 7971TIP3    H123854   3.212   1.561   6.257
 7971TIP3    H223855   3.253   1.584   6.401
 7972TIP3   OH223856   5.353   3.375   2.161
 7972TIP3    H123857   5.258   3.381   2.159
 7972TIP3    H223858   5.383   3.465   2.153
 7973TIP3   OH223859   7.164   1.341   6.140
 7973TIP3    H123860   7.221   1.340   6.064
 7973TIP3    H223861   7.157   1.249   6.166
 7974TIP3   OH223862   2.969   2.339   0.285
 7974TIP3    H123863   3.055   2.309   0.255
 7974TIP3    H223864   2.963   2.306   0.375
 7975TIP3   OH223865   3.699   5.682   6.527
 7975TIP3    H123866   3.683   5.753   6.589
 7975TIP3    H223867   3.785   5.703   6.489
 7976TIP3   OH223868   6.199   0.656   3.928
 7976TIP3    H123869   6.217   0.715   3.855
 7976TIP3    H223870   6.104   0.644   3.927
 7977TIP3   OH223871   4.876   7.481   4.502
 7977TIP3    H123872   4.964   7.443   4.496
 7977TIP3    H223873   4.861   7.492   4.596
 7978TIP3   OH223874   5.841   0.650   1.413
 7978TIP3    H123875   5.781   0.610   1.476
 7978TIP3    H223876   5.856   0.582   1.348
 7979TIP3   OH223877   4.097   6.003   4.898
 7979TIP3    H123878   4.161   5.954   4.950
 7979TIP3    H223879   4.065   5.940   4.833
 7980TIP3   OH223880   1.490   0.167   3.837
 7980TIP3    H123881   1.559   0.231   3.819
 7980TIP3    H223882   1.472   0.176   3.930
 7981TIP3   OH223883   8.008   1.712   3.669
 7981TIP3    H123884   7.954   1.786   3.639
 7981TIP3    H223885   8.098   1.743   3.658
 7982TIP3   OH223886   2.411   7.356   2.720
 7982TIP3    H123887   2.389   7.393   2.635
 7982TIP3    H223888   2.425   7.263   2.703
 7983TIP3   OH223889   1.467   1.626   6.549
 7983TIP3    H123890   1.422   1.548   6.515
 7983TIP3    H223891   1.408   1.698   6.530
 7984TIP3   OH223892   1.841   1.315   1.487
 7984TIP3    H123893   1.898   1.246   1.450
 7984TIP3    H223894   1.757   1.302   1.444
 7985TIP3   OH223895   4.912   2.423   5.493
 7985TIP3    H123896   4.907   2.431   5.588
 7985TIP3    H223897   4.960   2.500   5.464
 7986TIP3   OH223898   5.071   3.615   1.908
 7986TIP3    H123899   4.988   3.660   1.898
 7986TIP3    H223900   5.102   3.639   1.995
 7987TIP3   OH223901   6.953   1.956   0.697
 7987TIP3    H123902   6.877   1.924   0.650
 7987TIP3    H223903   6.991   2.023   0.641
 7988TIP3   OH223904   4.045   4.270   4.557
 7988TIP3    H123905   4.118   4.209   4.569
 7988TIP3    H223906   4.005   4.244   4.474
 7989TIP3   OH223907   2.999   4.369   1.128
 7989TIP3    H123908   3.053   4.401   1.056
 7989TIP3    H223909   2.914   4.351   1.088
 7990TIP3   OH223910   2.809   1.851   3.258
 7990TIP3    H123911   2.792   1.844   3.352
 7990TIP3    H223912   2.818   1.945   3.242
 7991TIP3   OH223913   6.721   2.234   4.992
 7991TIP3    H123914   6.679   2.149   5.004
 7991TIP3    H223915   6.813   2.214   4.979
 7992TIP3   OH223916   3.820   5.222   1.860
 7992TIP3    H123917   3.841   5.135   1.892
 7992TIP3    H223918   3.727   5.233   1.881
 7993TIP3   OH223919   5.519   6.670   3.596
 7993TIP3    H123920   5.530   6.588   3.549
 7993TIP3    H223921   5.579   6.731   3.552
 7994TIP3   OH223922   8.084   6.330   6.790
 7994TIP3    H123923   8.018   6.296   6.851
 7994TIP3    H223924   8.036   6.347   6.709
 7995TIP3   OH223925   5.401   4.487   3.659
 7995TIP3    H123926   5.472   4.521   3.713
 7995TIP3    H223927   5.413   4.392   3.661
 7996TIP3   OH223928   1.613   5.502   6.117
 7996TIP3    H123929   1.707   5.520   6.115
 7996TIP3    H223930   1.589   5.490   6.025
 7997TIP3   OH223931   2.097   7.800   3.081
 7997TIP3    H123932   2.185   7.819   3.049
 7997TIP3    H223933   2.038   7.835   3.014
 7998TIP3   OH223934   7.549   1.082   3.866
 7998TIP3    H123935   7.562   1.171   3.896
 7998TIP3    H223936   7.599   1.028   3.928
 7999TIP3   OH223937   7.221   7.000   5.126
 7999TIP3    H123938   7.168   7.010   5.205
 7999TIP3    H223939   7.194   6.915   5.090
 8000TIP3   OH223940   3.779   0.779   6.202
 8000TIP3    H123941   3.765   0.805   6.294
 8000TIP3    H223942   3.840   0.845   6.168
 8001TIP3   OH223943   7.854   3.257   2.389
 8001TIP3    H123944   7.934   3.308   2.389
 8001TIP3    H223945   7.882   3.167   2.370
 8002TIP3   OH223946   6.941   6.130   6.729
 8002TIP3    H123947   6.898   6.209   6.759
 8002TIP3    H223948   7.020   6.123   6.783
 8003TIP3   OH223949   4.625   7.924   4.530
 8003TIP3    H123950   4.529   7.923   4.533
 8003TIP3    H223951   4.651   7.836   4.556
 8004TIP3   OH223952   3.092   5.831   3.798
 8004TIP3    H123953   3.107   5.834   3.892
 8004TIP3    H223954   3.115   5.741   3.772
 8005TIP3   OH223955   4.605   6.981   5.783
 8005TIP3    H123956   4.546   7.047   5.820
 8005TIP3    H223957   4.686   6.991   5.832
 8006TIP3   OH223958   3.891   1.930   3.007
 8006TIP3    H123959   3.969   1.981   3.029
 8006TIP3    H223960   3.818   1.982   3.039
 8007TIP3   OH223961   2.526   7.821   4.148
 8007TIP3    H123962   2.486   7.775   4.075
 8007TIP3    H223963   2.599   7.870   4.108
 8008TIP3   OH223964   3.024   5.096   6.286
 8008TIP3    H123965   3.119   5.082   6.289
 8008TIP3    H223966   3.000   5.114   6.377
 8009TIP3   OH223967   4.773   4.243   2.081
 8009TIP3    H123968   4.686   4.226   2.044
 8009TIP3    H223969   4.819   4.159   2.075
 8010TIP3   OH223970   1.529   7.350   4.773
 8010TIP3    H123971   1.578   7.349   4.691
 8010TIP3    H223972   1.465   7.420   4.762
 8011TIP3   OH223973   2.317   1.355   6.535
 8011TIP3    H123974   2.316   1.281   6.596
 8011TIP3    H223975   2.228   1.357   6.499
 8012TIP3   OH223976   3.066   3.014   3.014
 8012TIP3    H123977   3.020   3.024   2.930
 8012TIP3    H223978   2.999   3.034   3.079
 8013TIP3   OH223979   3.203   3.591   6.641
 8013TIP3    H123980   3.270   3.650   6.608
 8013TIP3    H223981   3.152   3.567   6.563
 8014TIP3   OH223982   4.275   5.574   1.196
 8014TIP3    H123983   4.287   5.512   1.268
 8014TIP3    H223984   4.293   5.660   1.235
 8015TIP3   OH223985   7.123   5.275   2.688
 8015TIP3    H123986   7.153   5.360   2.657
 8015TIP3    H223987   7.145   5.274   2.781
 8016TIP3   OH223988   0.534   4.146   0.712
 8016TIP3    H123989   0.505   4.062   0.745
 8016TIP3    H223990   0.571   4.190   0.789
 8017TIP3   OH223991   0.251   1.917   2.680
 8017TIP3    H123992   0.285   2.001   2.712
 8017TIP3    H223993   0.167   1.907   2.726
 8018TIP3   OH223994   5.932   5.395   3.413
 8018TIP3    H123995   6.009   5.450   3.402
 8018TIP3    H223996   5.870   5.426   3.346
 8019TIP3   OH223997   2.581   3.852   2.996
 8019TIP3    H123998   2.623   3.834   2.912
 8019TIP3    H223999   2.622   3.933   3.027
 8020TIP3   OH224000  -0.009   7.507   4.095
 8020TIP3    H124001  -0.092   7.535   4.057
 8020TIP3    H224002   0.047   7.489   4.020
 8021TIP3   OH224003   2.121   1.208   4.559
 8021TIP3    H124004   2.163   1.161   4.631
 8021TIP3    H224005   2.033   1.171   4.554
 8022TIP3   OH224006   1.603   0.302   6.208
 8022TIP3    H124007   1.660   0.279   6.281
 8022TIP3    H224008   1.562   0.385   6.234
 8023TIP3   OH224009   7.320   6.257   0.572
 8023TIP3    H124010   7.307   6.162   0.571
 8023TIP3    H224011   7.349   6.276   0.662
 8024TIP3   OH224012   5.766   7.509   1.845
 8024TIP3    H124013   5.832   7.456   1.801
 8024TIP3    H224014   5.803   7.527   1.932
 8025TIP3   OH224015   7.467   4.379   6.150
 8025TIP3    H124016   7.546   4.329   6.171
 8025TIP3    H224017   7.465   4.450   6.214
 8026TIP3   OH224018   4.268   0.668   6.620
 8026TIP3    H124019   4.340   0.637   6.565
 8026TIP3    H224020   4.196   0.609   6.601
 8027TIP3   OH224021   6.840   5.179   6.201
 8027TIP3    H124022   6.905   5.130   6.251
 8027TIP3    H224023   6.802   5.240   6.264
 8028TIP3   OH224024   3.306   5.316   1.830
 8028TIP3    H124025   3.302   5.221   1.840
 8028TIP3    H224026   3.215   5.345   1.834
 8029TIP3   OH224027   8.236   3.312   0.797
 8029TIP3    H124028   8.293   3.359   0.736
 8029TIP3    H224029   8.185   3.380   0.840
 8030TIP3   OH224030   1.023   2.065   6.736
 8030TIP3    H124031   0.996   2.157   6.739
 8030TIP3    H224032   1.026   2.044   6.643
 8031TIP3   OH224033   3.877   3.064   6.518
 8031TIP3    H124034   3.784   3.058   6.492
 8031TIP3    H224035   3.918   2.989   6.475
 8032TIP3   OH224036   7.490   0.264   6.716
 8032TIP3    H124037   7.553   0.305   6.657
 8032TIP3    H224038   7.534   0.263   6.801
 8033TIP3   OH224039   8.082   7.711   2.334
 8033TIP3    H124040   8.001   7.679   2.375
 8033TIP3    H224041   8.066   7.704   2.240
 8034TIP3   OH224042   7.766   7.564   3.616
 8034TIP3    H124043   7.717   7.505   3.673
 8034TIP3    H224044   7.701   7.597   3.554
 8035TIP3   OH224045   5.352   6.793   0.605
 8035TIP3    H124046   5.300   6.801   0.686
 8035TIP3    H224047   5.442   6.807   0.633
 8036TIP3   OH224048   5.189   2.098   1.519
 8036TIP3    H124049   5.121   2.049   1.567
 8036TIP3    H224050   5.269   2.048   1.534
 8037TIP3   OH224051   0.684   7.676   5.230
 8037TIP3    H124052   0.697   7.770   5.225
 8037TIP3    H224053   0.738   7.648   5.305
 8038TIP3   OH224054   4.826   3.487   4.539
 8038TIP3    H124055   4.897   3.499   4.475
 8038TIP3    H224056   4.754   3.540   4.504
 8039TIP3   OH224057   5.773   4.656   6.638
 8039TIP3    H124058   5.708   4.678   6.572
 8039TIP3    H224059   5.844   4.615   6.590
 8040TIP3   OH224060   6.652   6.967   4.216
 8040TIP3    H124061   6.635   6.885   4.170
 8040TIP3    H224062   6.604   6.959   4.298
 8041TIP3   OH224063   0.862   2.667   1.187
 8041TIP3    H124064   0.780   2.631   1.153
 8041TIP3    H224065   0.925   2.595   1.179
 8042TIP3   OH224066   4.060   7.087   0.483
 8042TIP3    H124067   4.071   7.038   0.564
 8042TIP3    H224068   4.105   7.171   0.498
 8043TIP3   OH224069   6.887   7.077   3.357
 8043TIP3    H124070   6.808   7.091   3.305
 8043TIP3    H224071   6.936   7.158   3.348
 8044TIP3   OH224072   5.519   0.789   6.815
 8044TIP3    H124073   5.448   0.823   6.869
 8044TIP3    H224074   5.496   0.814   6.725
 8045TIP3   OH224075   7.499   1.355   3.998
 8045TIP3    H124076   7.583   1.338   4.040
 8045TIP3    H224077   7.440   1.378   4.070
 8046TIP3   OH224078   7.672   5.223   5.127
 8046TIP3    H124079   7.691   5.299   5.072
 8046TIP3    H224080   7.682   5.148   5.068
 8047TIP3   OH224081   7.858   7.103   3.090
 8047TIP3    H124082   7.891   7.039   3.153
 8047TIP3    H224083   7.789   7.150   3.138
 8048TIP3   OH224084   7.348   0.887   6.587
 8048TIP3    H124085   7.352   0.924   6.675
 8048TIP3    H224086   7.398   0.806   6.592
 8049TIP3   OH224087   2.868   4.285   3.342
 8049TIP3    H124088   2.909   4.360   3.300
 8049TIP3    H224089   2.778   4.284   3.308
 8050TIP3   OH224090   6.894   6.670   4.029
 8050TIP3    H124091   6.877   6.680   3.935
 8050TIP3    H224092   6.990   6.674   4.037
 8051TIP3   OH224093   1.840   7.399   5.586
 8051TIP3    H124094   1.816   7.311   5.613
 8051TIP3    H224095   1.815   7.455   5.659
 8052TIP3   OH224096   0.319   1.803   0.632
 8052TIP3    H124097   0.298   1.822   0.724
 8052TIP3    H224098   0.284   1.715   0.618
 8053TIP3   OH224099   7.212   0.329   6.734
 8053TIP3    H124100   7.291   0.281   6.707
 8053TIP3    H224101   7.238   0.376   6.813
 8054TIP3   OH224102   2.955   3.694   1.715
 8054TIP3    H124103   2.902   3.640   1.656
 8054TIP3    H224104   2.920   3.675   1.802
 8055TIP3   OH224105   6.412   4.895   1.310
 8055TIP3    H124106   6.403   4.975   1.362
 8055TIP3    H224107   6.322   4.870   1.289
 8056TIP3   OH224108   5.921   3.451   2.204
 8056TIP3    H124109   5.894   3.531   2.159
 8056TIP3    H224110   5.904   3.381   2.141
 8057TIP3   OH224111   4.673   3.028   1.028
 8057TIP3    H124112   4.707   2.940   1.044
 8057TIP3    H224113   4.635   3.055   1.112
 8058TIP3   OH224114   6.210   4.794   2.826
 8058TIP3    H124115   6.137   4.733   2.839
 8058TIP3    H224116   6.211   4.811   2.732
 8059TIP3   OH224117   4.695   5.487   0.317
 8059TIP3    H124118   4.653   5.567   0.346
 8059TIP3    H224119   4.742   5.454   0.393
 8060TIP3   OH224120   2.344   4.535   0.947
 8060TIP3    H124121   2.430   4.503   0.975
 8060TIP3    H224122   2.300   4.558   1.029
 8061TIP3   OH224123   0.074   1.456   2.902
 8061TIP3    H124124  -0.002   1.400   2.887
 8061TIP3    H224125   0.052   1.505   2.981
 8062TIP3   OH224126   4.710   7.783   0.350
 8062TIP3    H124127   4.669   7.700   0.329
 8062TIP3    H224128   4.636   7.842   0.369
 8063TIP3   OH224129   4.101   7.382   6.616
 8063TIP3    H124130   4.033   7.436   6.656
 8063TIP3    H224131   4.095   7.298   6.662
 8064TIP3   OH224132   3.518   3.780   0.552
 8064TIP3    H124133   3.458   3.853   0.562
 8064TIP3    H224134   3.542   3.756   0.642
 8065TIP3   OH224135   8.345   3.290   0.268
 8065TIP3    H124136   8.291   3.219   0.303
 8065TIP3    H224137   8.360   3.266   0.177
 8066TIP3   OH224138   5.473   0.999   1.820
 8066TIP3    H124139   5.547   0.943   1.797
 8066TIP3    H224140   5.405   0.939   1.848
 8067TIP3   OH224141   1.300   7.238   4.484
 8067TIP3    H124142   1.376   7.186   4.459
 8067TIP3    H224143   1.277   7.287   4.404
 8068TIP3   OH224144   0.816   0.775   5.914
 8068TIP3    H124145   0.911   0.783   5.907
 8068TIP3    H224146   0.782   0.860   5.886
 8069TIP3   OH224147   2.828   3.291   5.391
 8069TIP3    H124148   2.899   3.237   5.426
 8069TIP3    H224149   2.771   3.229   5.347
 8070TIP3   OH224150   6.380   7.681   1.702
 8070TIP3    H124151   6.335   7.676   1.618
 8070TIP3    H224152   6.465   7.641   1.686
 8071TIP3   OH224153   1.659   6.886   2.528
 8071TIP3    H124154   1.627   6.974   2.507
 8071TIP3    H224155   1.676   6.846   2.442
 8072TIP3   OH224156   1.131   0.336   1.596
 8072TIP3    H124157   1.204   0.366   1.649
 8072TIP3    H224158   1.143   0.241   1.591
 8073TIP3   OH224159   0.141   5.597   0.054
 8073TIP3    H124160   0.185   5.551  -0.018
 8073TIP3    H224161   0.127   5.530   0.120
 8074TIP3   OH224162   5.696   4.000   6.723
 8074TIP3    H124163   5.721   4.009   6.631
 8074TIP3    H224164   5.694   3.906   6.738
 8075TIP3   OH224165   8.150   1.003   3.299
 8075TIP3    H124166   8.116   1.064   3.365
 8075TIP3    H224167   8.091   1.013   3.224
 8076TIP3   OH224168   2.175   1.759   0.828
 8076TIP3    H124169   2.195   1.724   0.915
 8076TIP3    H224170   2.242   1.720   0.772
 8077TIP3   OH224171   6.620   3.849   4.714
 8077TIP3    H124172   6.638   3.760   4.685
 8077TIP3    H224173   6.525   3.860   4.701
 8078TIP3   OH224174   0.281   2.218   5.200
 8078TIP3    H124175   0.238   2.151   5.254
 8078TIP3    H224176   0.351   2.170   5.154
 8079TIP3   OH224177   1.771   2.249   3.807
 8079TIP3    H124178   1.722   2.318   3.851
 8079TIP3    H224179   1.835   2.295   3.753
 8080TIP3   OH224180   0.101   1.944   3.999
 8080TIP3    H124181   0.033   1.892   3.957
 8080TIP3    H224182   0.091   2.031   3.960
 8081TIP3   OH224183   2.695   3.337   4.861
 8081TIP3    H124184   2.698   3.433   4.868
 8081TIP3    H224185   2.765   3.316   4.798
 8082TIP3   OH224186   0.596   7.096   2.669
 8082TIP3    H124187   0.635   7.048   2.596
 8082TIP3    H224188   0.590   7.187   2.638
 8083TIP3   OH224189   6.936   3.034   6.403
 8083TIP3    H124190   7.002   2.965   6.394
 8083TIP3    H224191   6.977   3.112   6.366
 8084TIP3   OH224192   5.725   3.410   3.069
 8084TIP3    H124193   5.784   3.451   3.132
 8084TIP3    H224194   5.771   3.331   3.041
 8085TIP3   OH224195   8.338   6.265   2.151
 8085TIP3    H124196   8.300   6.344   2.113
 8085TIP3    H224197   8.369   6.215   2.075
 8086TIP3   OH224198   7.833   2.549   3.042
 8086TIP3    H124199   7.908   2.491   3.059
 8086TIP3    H224200   7.777   2.498   2.983
 8087TIP3   OH224201   1.299   0.436   2.551
 8087TIP3    H124202   1.308   0.488   2.472
 8087TIP3    H224203   1.357   0.361   2.538
 8088TIP3   OH224204   6.568   0.854   3.560
 8088TIP3    H124205   6.569   0.941   3.520
 8088TIP3    H224206   6.615   0.798   3.498
 8089TIP3   OH224207   0.905   0.611   5.205
 8089TIP3    H124208   0.869   0.571   5.284
 8089TIP3    H224209   0.906   0.541   5.140
 8090TIP3   OH224210   2.956   3.745   4.697
 8090TIP3    H124211   2.883   3.793   4.659
 8090TIP3    H224212   2.959   3.774   4.788
 8091TIP3   OH224213   1.709   6.647   1.568
 8091TIP3    H124214   1.696   6.742   1.572
 8091TIP3    H224215   1.626   6.613   1.535
 8092TIP3   OH224216   8.154   5.944   5.982
 8092TIP3    H124217   8.190   5.864   6.020
 8092TIP3    H224218   8.187   5.944   5.892
 8093TIP3   OH224219   4.318   5.755   2.233
 8093TIP3    H124220   4.364   5.792   2.157
 8093TIP3    H224221   4.387   5.723   2.290
 8094TIP3   OH224222   6.284   5.682   3.872
 8094TIP3    H124223   6.214   5.670   3.936
 8094TIP3    H224224   6.285   5.776   3.855
 8095TIP3   OH224225   2.303   4.163   1.996
 8095TIP3    H124226   2.371   4.115   2.043
 8095TIP3    H224227   2.346   4.243   1.966
 8096TIP3   OH224228   5.409   5.515   1.545
 8096TIP3    H124229   5.372   5.450   1.604
 8096TIP3    H224230   5.333   5.564   1.512
 8097TIP3   OH224231   3.649   5.330   6.390
 8097TIP3    H124232   3.585   5.392   6.356
 8097TIP3    H224233   3.651   5.347   6.484
 8098TIP3   OH224234   0.015   0.737   6.748
 8098TIP3    H124235  -0.076   0.712   6.764
 8098TIP3    H224236   0.010   0.830   6.724
 8099TIP3   OH224237   3.524   3.279   6.366
 8099TIP3    H124238   3.575   3.338   6.421
 8099TIP3    H224239   3.590   3.229   6.317
 8100TIP3   OH224240   5.832   7.841   5.336
 8100TIP3    H124241   5.757   7.781   5.337
 8100TIP3    H224242   5.896   7.801   5.395
 8101TIP3   OH224243   7.253   4.274   6.797
 8101TIP3    H124244   7.182   4.338   6.799
 8101TIP3    H224245   7.317   4.310   6.736
 8102TIP3   OH224246   7.972   0.507   2.218
 8102TIP3    H124247   8.051   0.453   2.213
 8102TIP3    H224248   7.987   0.567   2.291
 8103TIP3   OH224249   2.230   4.217   3.463
 8103TIP3    H124250   2.135   4.232   3.459
 8103TIP3    H224251   2.246   4.189   3.553
 8104TIP3   OH224252   3.319   4.054   1.060
 8104TIP3    H124253   3.267   4.114   1.113
 8104TIP3    H224254   3.302   3.968   1.097
 8105TIP3   OH224255   5.400   4.897   0.455
 8105TIP3    H124256   5.418   4.929   0.543
 8105TIP3    H224257   5.305   4.900   0.447
 8106TIP3   OH224258   1.919   7.343   4.660
 8106TIP3    H124259   1.862   7.403   4.612
 8106TIP3    H224260   1.939   7.389   4.741
 8107TIP3   OH224261   6.578   0.634   5.695
 8107TIP3    H124262   6.659   0.615   5.742
 8107TIP3    H224263   6.564   0.558   5.639
 8108TIP3   OH224264   1.731   6.616   0.612
 8108TIP3    H124265   1.801   6.662   0.566
 8108TIP3    H224266   1.654   6.673   0.601
 8109TIP3   OH224267   4.293   4.354   0.844
 8109TIP3    H124268   4.387   4.339   0.851
 8109TIP3    H224269   4.282   4.446   0.870
 8110TIP3   OH224270   4.834   0.483   2.188
 8110TIP3    H124271   4.832   0.394   2.221
 8110TIP3    H224272   4.885   0.533   2.252
 8111TIP3   OH224273   0.234   7.548   3.260
 8111TIP3    H124274   0.287   7.624   3.236
 8111TIP3    H224275   0.297   7.478   3.276
 8112TIP3   OH224276   6.027   6.750   2.772
 8112TIP3    H124277   6.066   6.664   2.758
 8112TIP3    H224278   5.934   6.732   2.787
 8113TIP3   OH224279   7.589   1.169   6.199
 8113TIP3    H124280   7.684   1.156   6.206
 8113TIP3    H224281   7.551   1.089   6.235
 8114TIP3   OH224282   4.012   2.382   4.169
 8114TIP3    H124283   4.047   2.464   4.134
 8114TIP3    H224284   4.018   2.391   4.264
 8115TIP3   OH224285   5.304   7.551   2.081
 8115TIP3    H124286   5.297   7.610   2.006
 8115TIP3    H224287   5.377   7.493   2.060
 8116TIP3   OH224288   2.019   6.022   1.652
 8116TIP3    H124289   2.026   6.073   1.572
 8116TIP3    H224290   1.928   5.992   1.654
 8117TIP3   OH224291   6.906   7.512   3.046
 8117TIP3    H124292   6.959   7.554   3.114
 8117TIP3    H224293   6.821   7.498   3.086
 8118TIP3   OH224294   0.140   3.434   0.408
 8118TIP3    H124295   0.185   3.479   0.336
 8118TIP3    H224296   0.063   3.395   0.367
 8119TIP3   OH224297   8.374   1.338   0.177
 8119TIP3    H124298   8.384   1.433   0.185
 8119TIP3    H224299   8.287   1.326   0.140
 8120TIP3   OH224300   1.710   3.554   5.025
 8120TIP3    H124301   1.719   3.532   5.118
 8120TIP3    H224302   1.792   3.526   4.985
 8121TIP3   OH224303   3.328   2.986   6.770
 8121TIP3    H124304   3.419   3.009   6.749
 8121TIP3    H224305   3.331   2.962   6.863
 8122TIP3   OH224306   4.538   5.432   6.602
 8122TIP3    H124307   4.548   5.420   6.508
 8122TIP3    H224308   4.457   5.386   6.624
 8123TIP3   OH224309   3.668   1.151   4.642
 8123TIP3    H124310   3.708   1.231   4.609
 8123TIP3    H224311   3.634   1.175   4.728
 8124TIP3   OH224312   8.250   3.276   4.862
 8124TIP3    H124313   8.316   3.290   4.930
 8124TIP3    H224314   8.186   3.345   4.876
 8125TIP3   OH224315   3.279   6.976   5.372
 8125TIP3    H124316   3.262   6.969   5.466
 8125TIP3    H224317   3.300   6.887   5.344
 8126TIP3   OH224318   3.766   6.745   5.577
 8126TIP3    H124319   3.801   6.794   5.503
 8126TIP3    H224320   3.800   6.790   5.654
 8127TIP3   OH224321   7.953   0.857   0.617
 8127TIP3    H124322   7.940   0.879   0.709
 8127TIP3    H224323   7.977   0.940   0.575
 8128TIP3   OH224324   6.377   7.861   5.654
 8128TIP3    H124325   6.290   7.856   5.614
 8128TIP3    H224326   6.409   7.771   5.653
 8129TIP3   OH224327   2.167   0.663   0.921
 8129TIP3    H124328   2.188   0.571   0.935
 8129TIP3    H224329   2.240   0.711   0.960
 8130TIP3   OH224330   1.113   5.616   5.238
 8130TIP3    H124331   1.035   5.648   5.282
 8130TIP3    H224332   1.119   5.523   5.263
 8131TIP3   OH224333   5.962   4.653   2.851
 8131TIP3    H124334   5.885   4.686   2.898
 8131TIP3    H224335   5.995   4.582   2.905
 8132TIP3   OH224336   3.626   0.662   5.425
 8132TIP3    H124337   3.566   0.643   5.498
 8132TIP3    H224338   3.627   0.757   5.419
 8133TIP3   OH224339   8.313   2.919   6.377
 8133TIP3    H124340   8.258   2.992   6.348
 8133TIP3    H224341   8.320   2.931   6.472
 8134TIP3   OH224342   4.752   5.892   0.819
 8134TIP3    H124343   4.703   5.971   0.840
 8134TIP3    H224344   4.822   5.888   0.885
 8135TIP3   OH224345   2.329   6.114   6.833
 8135TIP3    H124346   2.318   6.042   6.772
 8135TIP3    H224347   2.241   6.130   6.867
 8136TIP3   OH224348   4.190   6.751   0.650
 8136TIP3    H124349   4.194   6.844   0.673
 8136TIP3    H224350   4.098   6.737   0.626
 8137TIP3   OH224351   3.922   2.482   0.694
 8137TIP3    H124352   3.924   2.575   0.670
 8137TIP3    H224353   3.860   2.443   0.634
 8138TIP3   OH224354   8.112   0.693   6.747
 8138TIP3    H124355   8.043   0.634   6.778
 8138TIP3    H224356   8.067   0.777   6.733
 8139TIP3   OH224357   5.257   2.529   6.315
 8139TIP3    H124358   5.264   2.459   6.379
 8139TIP3    H224359   5.257   2.485   6.230
 8140TIP3   OH224360   1.449   5.925   1.920
 8140TIP3    H124361   1.471   5.982   1.994
 8140TIP3    H224362   1.383   5.975   1.870
 8141TIP3   OH224363   7.950   0.263   2.413
 8141TIP3    H124364   7.914   0.283   2.499
 8141TIP3    H224365   8.044   0.258   2.427
 8142TIP3   OH224366   2.587   0.079   1.950
 8142TIP3    H124367   2.572   0.116   1.863
 8142TIP3    H224368   2.537   0.136   2.008
 8143TIP3   OH224369   5.708   2.052   4.624
 8143TIP3    H124370   5.729   1.998   4.700
 8143TIP3    H224371   5.736   2.140   4.649
 8144TIP3   OH224372   0.711   5.552   1.353
 8144TIP3    H124373   0.670   5.609   1.418
 8144TIP3    H224374   0.708   5.464   1.391
 8145TIP3   OH224375   6.716   5.603   3.873
 8145TIP3    H124376   6.686   5.650   3.795
 8145TIP3    H224377   6.782   5.542   3.840
 8146TIP3   OH224378   1.632   1.829   3.484
 8146TIP3    H124379   1.556   1.771   3.485
 8146TIP3    H224380   1.600   1.912   3.448
 8147TIP3   OH224381   3.742   6.469   6.861
 8147TIP3    H124382   3.834   6.473   6.885
 8147TIP3    H224383   3.740   6.419   6.779
 8148TIP3   OH224384   0.120   2.033   5.678
 8148TIP3    H124385   0.185   2.102   5.692
 8148TIP3    H224386   0.099   2.001   5.766
 8149TIP3   OH224387   0.833   0.257   4.245
 8149TIP3    H124388   0.804   0.328   4.187
 8149TIP3    H224389   0.922   0.281   4.270
 8150TIP3   OH224390   5.296   1.781   2.464
 8150TIP3    H124391   5.252   1.843   2.524
 8150TIP3    H224392   5.311   1.703   2.518
 8151TIP3   OH224393   5.866   6.852   6.418
 8151TIP3    H124394   5.784   6.897   6.397
 8151TIP3    H224395   5.919   6.860   6.339
 8152TIP3   OH224396   2.420   4.742   4.536
 8152TIP3    H124397   2.412   4.689   4.457
 8152TIP3    H224398   2.398   4.831   4.508
 8153TIP3   OH224399   3.902   7.334   0.387
 8153TIP3    H124400   3.987   7.367   0.418
 8153TIP3    H224401   3.898   7.245   0.421
 8154TIP3   OH224402   0.885   4.145   2.925
 8154TIP3    H124403   0.828   4.185   2.991
 8154TIP3    H224404   0.930   4.075   2.973
 8155TIP3   OH224405   8.326   7.607   5.599
 8155TIP3    H124406   8.410   7.582   5.562
 8155TIP3    H224407   8.343   7.620   5.692
 8156TIP3   OH224408   4.407   3.235   5.348
 8156TIP3    H124409   4.424   3.254   5.440
 8156TIP3    H224410   4.449   3.151   5.332
 8157TIP3   OH224411   0.332   5.768   6.586
 8157TIP3    H124412   0.381   5.688   6.607
 8157TIP3    H224413   0.400   5.831   6.560
 8158TIP3   OH224414   7.788   0.700   2.580
 8158TIP3    H124415   7.762   0.706   2.488
 8158TIP3    H224416   7.707   0.678   2.626
 8159TIP3   OH224417   5.695   6.407   4.182
 8159TIP3    H124418   5.652   6.361   4.110
 8159TIP3    H224419   5.622   6.441   4.235
 8160TIP3   OH224420   1.647   0.285   1.943
 8160TIP3    H124421   1.577   0.243   1.992
 8160TIP3    H224422   1.674   0.220   1.877
 8161TIP3   OH224423   5.294   3.198   5.668
 8161TIP3    H124424   5.260   3.236   5.587
 8161TIP3    H224425   5.217   3.160   5.710
 8162TIP3   OH224426   6.917   2.107   3.391
 8162TIP3    H124427   6.908   2.087   3.298
 8162TIP3    H224428   6.899   2.023   3.435
 8163TIP3   OH224429   4.808   7.718   5.489
 8163TIP3    H124430   4.813   7.703   5.583
 8163TIP3    H224431   4.758   7.643   5.456
 8164TIP3   OH224432   4.028   7.254   4.586
 8164TIP3    H124433   4.064   7.239   4.673
 8164TIP3    H224434   4.105   7.264   4.530
 8165TIP3   OH224435   4.861   6.858   1.105
 8165TIP3    H124436   4.916   6.918   1.056
 8165TIP3    H224437   4.849   6.783   1.047
 8166TIP3   OH224438   1.627   5.470   4.664
 8166TIP3    H124439   1.700   5.419   4.699
 8166TIP3    H224440   1.573   5.488   4.741
 8167TIP3   OH224441   6.608   7.672   2.700
 8167TIP3    H124442   6.602   7.584   2.738
 8167TIP3    H224443   6.527   7.683   2.652
 8168TIP3   OH224444   2.219   7.291   1.494
 8168TIP3    H124445   2.191   7.345   1.420
 8168TIP3    H224446   2.297   7.246   1.462
 8169TIP3   OH224447   7.798   5.329   1.598
 8169TIP3    H124448   7.864   5.398   1.602
 8169TIP3    H224449   7.760   5.328   1.686
 8170TIP3   OH224450   1.321   0.338   6.003
 8170TIP3    H124451   1.379   0.412   6.022
 8170TIP3    H224452   1.289   0.355   5.915
 8171TIP3   OH224453   7.211   6.331   3.950
 8171TIP3    H124454   7.258   6.276   4.012
 8171TIP3    H224455   7.171   6.399   4.004
 8172TIP3   OH224456   7.419   5.634   5.958
 8172TIP3    H124457   7.489   5.658   5.898
 8172TIP3    H224458   7.346   5.691   5.934
 8173TIP3   OH224459   2.045   1.469   5.479
 8173TIP3    H124460   2.019   1.402   5.416
 8173TIP3    H224461   1.963   1.508   5.509
 8174TIP3   OH224462   3.267   5.759   0.611
 8174TIP3    H124463   3.280   5.670   0.646
 8174TIP3    H224464   3.186   5.754   0.562
 8175TIP3   OH224465   0.363   6.988   1.884
 8175TIP3    H124466   0.325   6.970   1.970
 8175TIP3    H224467   0.436   7.047   1.902
 8176TIP3   OH224468   6.494   6.747   5.041
 8176TIP3    H124469   6.585   6.757   5.015
 8176TIP3    H224470   6.492   6.665   5.091
 8177TIP3   OH224471   8.168   0.293   6.043
 8177TIP3    H124472   8.167   0.197   6.049
 8177TIP3    H224473   8.075   0.316   6.036
 8178TIP3   OH224474   2.201   7.501   6.071
 8178TIP3    H124475   2.263   7.574   6.070
 8178TIP3    H224476   2.160   7.506   6.158
 8179TIP3   OH224477   8.219   1.870   1.978
 8179TIP3    H124478   8.287   1.806   1.997
 8179TIP3    H224479   8.159   1.825   1.919
 8180TIP3   OH224480   1.372   1.882   5.108
 8180TIP3    H124481   1.283   1.913   5.093
 8180TIP3    H224482   1.373   1.858   5.201
 8181TIP3   OH224483   0.346   0.929   2.176
 8181TIP3    H124484   0.290   0.997   2.214
 8181TIP3    H224485   0.284   0.867   2.137
 8182TIP3   OH224486   0.599   5.222   1.501
 8182TIP3    H124487   0.569   5.163   1.432
 8182TIP3    H224488   0.549   5.197   1.578
 8183TIP3   OH224489   2.283   3.477   3.849
 8183TIP3    H124490   2.205   3.533   3.852
 8183TIP3    H224491   2.348   3.524   3.900
 8184TIP3   OH224492   2.887   4.769   4.398
 8184TIP3    H124493   2.874   4.714   4.475
 8184TIP3    H224494   2.965   4.732   4.356
 8185TIP3   OH224495   6.173   2.850   0.575
 8185TIP3    H124496   6.140   2.812   0.493
 8185TIP3    H224497   6.098   2.898   0.611
 8186TIP3   OH224498   4.997   3.897   0.143
 8186TIP3    H124499   4.996   3.945   0.226
 8186TIP3    H224500   5.084   3.857   0.139
 8187TIP3   OH224501   7.273   7.614   6.528
 8187TIP3    H124502   7.268   7.610   6.433
 8187TIP3    H224503   7.324   7.536   6.552
 8188TIP3   OH224504   5.450   3.656   2.113
 8188TIP3    H124505   5.504   3.720   2.160
 8188TIP3    H224506   5.511   3.588   2.085
 8189TIP3   OH224507   5.273   4.194   6.142
 8189TIP3    H124508   5.348   4.137   6.159
 8189TIP3    H224509   5.205   4.136   6.109
 8190TIP3   OH224510   7.887   3.962   5.036
 8190TIP3    H124511   7.871   4.019   5.111
 8190TIP3    H224512   7.976   3.929   5.049
 8191TIP3   OH224513   6.550  -0.003   2.345
 8191TIP3    H124514   6.630   0.033   2.306
 8191TIP3    H224515   6.498   0.073   2.369
 8192TIP3   OH224516   6.536   5.597   6.771
 8192TIP3    H124517   6.581   5.675   6.739
 8192TIP3    H224518   6.461   5.631   6.820
 8193TIP3   OH224519   5.325   5.262   3.849
 8193TIP3    H124520   5.398   5.248   3.788
 8193TIP3    H224521   5.258   5.306   3.798
 8194TIP3   OH224522   1.547   3.442   6.300
 8194TIP3    H124523   1.524   3.434   6.207
 8194TIP3    H224524   1.491   3.513   6.332
 8195TIP3   OH224525   5.591   7.401   4.777
 8195TIP3    H124526   5.565   7.355   4.857
 8195TIP3    H224527   5.680   7.432   4.796
 8196TIP3   OH224528   3.377   5.042   2.548
 8196TIP3    H124529   3.381   5.135   2.527
 8196TIP3    H224530   3.291   5.014   2.517
 8197TIP3   OH224531   6.538   4.094   0.483
 8197TIP3    H124532   6.508   4.173   0.437
 8197TIP3    H224533   6.629   4.084   0.456
 8198TIP3   OH224534   0.298   1.609   4.782
 8198TIP3    H124535   0.342   1.636   4.701
 8198TIP3    H224536   0.239   1.682   4.802
 8199TIP3   OH224537   3.344   5.638   4.093
 8199TIP3    H124538   3.301   5.723   4.092
 8199TIP3    H224539   3.319   5.598   4.009
 8200TIP3   OH224540   1.767   5.526   5.678
 8200TIP3    H124541   1.738   5.476   5.754
 8200TIP3    H224542   1.706   5.599   5.672
 8201TIP3   OH224543   0.064   7.848   1.711
 8201TIP3    H124544   0.039   7.859   1.619
 8201TIP3    H224545   0.026   7.764   1.736
 8202TIP3   OH224546   4.927   0.440   5.513
 8202TIP3    H124547   4.842   0.462   5.474
 8202TIP3    H224548   4.909   0.364   5.568
 8203TIP3   OH224549   3.194   4.604   3.843
 8203TIP3    H124550   3.265   4.643   3.792
 8203TIP3    H224551   3.131   4.574   3.777
 8204TIP3   OH224552   0.981   6.308   0.868
 8204TIP3    H124553   1.053   6.312   0.805
 8204TIP3    H224554   0.903   6.298   0.814
 8205TIP3   OH224555   1.629   1.731   1.312
 8205TIP3    H124556   1.698   1.664   1.311
 8205TIP3    H224557   1.632   1.766   1.401
 8206TIP3   OH224558   7.427   5.519   3.933
 8206TIP3    H124559   7.398   5.521   3.842
 8206TIP3    H224560   7.515   5.482   3.930
 8207TIP3   OH224561   6.327   3.650   3.746
 8207TIP3    H124562   6.357   3.691   3.665
 8207TIP3    H224563   6.306   3.723   3.804
 8208TIP3   OH224564   7.130   5.837   6.479
 8208TIP3    H124565   7.114   5.931   6.485
 8208TIP3    H224566   7.114   5.804   6.567
 8209TIP3   OH224567   6.113   0.121   3.004
 8209TIP3    H124568   6.027   0.084   3.027
 8209TIP3    H224569   6.092   0.198   2.951
 8210TIP3   OH224570   1.868   4.901   5.827
 8210TIP3    H124571   1.818   4.982   5.817
 8210TIP3    H224572   1.945   4.913   5.772
 8211TIP3   OH224573   4.015   0.191   6.560
 8211TIP3    H124574   4.040   0.130   6.630
 8211TIP3    H224575   4.003   0.136   6.483
 8212TIP3   OH224576   1.754   3.231   6.045
 8212TIP3    H124577   1.688   3.291   6.081
 8212TIP3    H224578   1.792   3.279   5.971
 8213TIP3   OH224579   1.805   5.477   0.628
 8213TIP3    H124580   1.730   5.521   0.667
 8213TIP3    H224581   1.789   5.384   0.645
 8214TIP3   OH224582   6.527   2.016   5.257
 8214TIP3    H124583   6.474   1.941   5.282
 8214TIP3    H224584   6.468   2.091   5.262
 8215TIP3   OH224585   5.406   5.279   6.664
 8215TIP3    H124586   5.334   5.228   6.703
 8215TIP3    H224587   5.480   5.219   6.665
 8216TIP3   OH224588   3.514   4.657   3.017
 8216TIP3    H124589   3.427   4.678   3.052
 8216TIP3    H224590   3.497   4.615   2.933
 8217TIP3   OH224591   0.502   5.619   6.325
 8217TIP3    H124592   0.498   5.695   6.266
 8217TIP3    H224593   0.587   5.628   6.369
 8218TIP3   OH224594   0.469   2.016   5.513
 8218TIP3    H124595   0.423   1.968   5.444
 8218TIP3    H224596   0.424   2.100   5.519
 8219TIP3   OH224597   2.158   1.007   0.951
 8219TIP3    H124598   2.236   1.051   0.985
 8219TIP3    H224599   2.116   0.970   1.029
 8220TIP3   OH224600   2.500   7.693   5.088
 8220TIP3    H124601   2.582   7.698   5.038
 8220TIP3    H224602   2.522   7.643   5.166
 8221TIP3   OH224603   6.018   2.603   6.464
 8221TIP3    H124604   6.001   2.617   6.371
 8221TIP3    H224605   5.937   2.563   6.497
 8222TIP3   OH224606   0.150   3.936   4.748
 8222TIP3    H124607   0.197   4.003   4.796
 8222TIP3    H224608   0.072   3.919   4.800
 8223TIP3   OH224609   5.958   5.400   0.348
 8223TIP3    H124610   6.046   5.389   0.383
 8223TIP3    H224611   5.934   5.313   0.316
 8224TIP3   OH224612   7.035   3.051   0.690
 8224TIP3    H124613   7.071   3.107   0.620
 8224TIP3    H224614   6.986   2.983   0.644
 8225TIP3   OH224615   1.895   7.886   5.602
 8225TIP3    H124616   1.877   7.948   5.531
 8225TIP3    H224617   1.922   7.806   5.557
 8226TIP3   OH224618   7.448   2.324   1.644
 8226TIP3    H124619   7.395   2.274   1.705
 8226TIP3    H224620   7.440   2.415   1.672
 8227TIP3   OH224621   7.890   3.435   0.211
 8227TIP3    H124622   7.944   3.465   0.284
 8227TIP3    H224623   7.822   3.382   0.251
 8228TIP3   OH224624   1.730   1.229   0.091
 8228TIP3    H124625   1.721   1.216  -0.004
 8228TIP3    H224626   1.658   1.178   0.128
 8229TIP3   OH224627   4.336   4.135   6.134
 8229TIP3    H124628   4.243   4.115   6.125
 8229TIP3    H224629   4.371   4.129   6.045
 8230TIP3   OH224630   3.811   4.688   4.089
 8230TIP3    H124631   3.803   4.602   4.048
 8230TIP3    H224632   3.761   4.680   4.170
 8231TIP3   OH224633   4.059   2.649   0.193
 8231TIP3    H124634   3.972   2.622   0.223
 8231TIP3    H224635   4.059   2.744   0.203
 8232TIP3   OH224636   5.930   2.223   3.389
 8232TIP3    H124637   5.976   2.239   3.307
 8232TIP3    H224638   5.963   2.290   3.449
 8233TIP3   OH224639   5.721   2.142   5.137
 8233TIP3    H124640   5.633   2.162   5.105
 8233TIP3    H224641   5.707   2.095   5.219
 8234TIP3   OH224642   4.925   6.766   2.985
 8234TIP3    H124643   4.854   6.772   3.049
 8234TIP3    H224644   4.891   6.813   2.909
 8235TIP3   OH224645   2.857   5.616   1.978
 8235TIP3    H124646   2.940   5.658   1.955
 8235TIP3    H224647   2.850   5.626   2.073
 8236TIP3   OH224648   6.020   4.800   0.106
 8236TIP3    H124649   5.936   4.818   0.149
 8236TIP3    H224650   6.038   4.879   0.055
 8237TIP3   OH224651   3.713   7.607   2.283
 8237TIP3    H124652   3.778   7.637   2.219
 8237TIP3    H224653   3.762   7.594   2.364
 8238TIP3   OH224654   0.368   2.268   6.098
 8238TIP3    H124655   0.342   2.301   6.184
 8238TIP3    H224656   0.296   2.212   6.070
 8239TIP3   OH224657   6.238   7.322   1.834
 8239TIP3    H124658   6.192   7.361   1.760
 8239TIP3    H224659   6.185   7.345   1.911
 8240TIP3   OH224660   7.222   2.191   3.490
 8240TIP3    H124661   7.126   2.187   3.495
 8240TIP3    H224662   7.253   2.140   3.565
 8241TIP3   OH224663   2.722   0.496  -0.044
 8241TIP3    H124664   2.765   0.528   0.036
 8241TIP3    H224665   2.633   0.474  -0.015
 8242TIP3   OH224666   3.971   3.564   3.585
 8242TIP3    H124667   4.027   3.507   3.533
 8242TIP3    H224668   3.893   3.576   3.530
 8243TIP3   OH224669   7.491   0.706   5.299
 8243TIP3    H124670   7.465   0.617   5.275
 8243TIP3    H224671   7.555   0.695   5.369
 8244TIP3   OH224672   1.146   2.716   6.628
 8244TIP3    H124673   1.097   2.666   6.563
 8244TIP3    H224674   1.096   2.797   6.639
 8245TIP3   OH224675   7.286   5.492   4.513
 8245TIP3    H124676   7.277   5.567   4.571
 8245TIP3    H224677   7.241   5.518   4.433
 8246TIP3   OH224678   2.930   6.035   3.953
 8246TIP3    H124679   2.947   6.121   3.914
 8246TIP3    H224680   3.012   5.987   3.942
 8247TIP3   OH224681   7.123   7.365   6.127
 8247TIP3    H124682   7.099   7.313   6.050
 8247TIP3    H224683   7.078   7.323   6.200
 8248TIP3   OH224684   5.488   0.953   2.631
 8248TIP3    H124685   5.483   0.858   2.619
 8248TIP3    H224686   5.467   0.989   2.545
 8249TIP3   OH224687   1.463   0.069   6.135
 8249TIP3    H124688   1.519   0.146   6.138
 8249TIP3    H224689   1.385   0.094   6.186
 8250TIP3   OH224690   1.618   0.735   0.086
 8250TIP3    H124691   1.653   0.766   0.003
 8250TIP3    H224692   1.607   0.641   0.074
 8251TIP3   OH224693   0.621   6.717   5.615
 8251TIP3    H124694   0.610   6.637   5.666
 8251TIP3    H224695   0.707   6.707   5.573
 8252TIP3   OH224696   3.334   3.087   0.911
 8252TIP3    H124697   3.281   3.082   0.832
 8252TIP3    H224698   3.425   3.089   0.880
 8253TIP3   OH224699   1.823   4.170   5.931
 8253TIP3    H124700   1.857   4.259   5.922
 8253TIP3    H224701   1.877   4.118   5.872
 8254TIP3   OH224702   2.567   3.969   5.654
 8254TIP3    H124703   2.619   4.012   5.722
 8254TIP3    H224704   2.609   3.993   5.572
 8255TIP3   OH224705   5.337   0.100   0.785
 8255TIP3    H124706   5.347   0.144   0.869
 8255TIP3    H224707   5.243   0.082   0.778
 8256TIP3   OH224708   7.250   2.976   2.919
 8256TIP3    H124709   7.218   3.044   2.860
 8256TIP3    H224710   7.178   2.913   2.923
 8257TIP3   OH224711   1.379   3.251   1.786
 8257TIP3    H124712   1.285   3.266   1.777
 8257TIP3    H224713   1.385   3.165   1.828
 8258TIP3   OH224714   2.063   6.297   2.611
 8258TIP3    H124715   2.123   6.369   2.589
 8258TIP3    H224716   1.982   6.341   2.637
 8259TIP3   OH224717   5.470   2.056   1.076
 8259TIP3    H124718   5.548   2.007   1.049
 8259TIP3    H224719   5.503   2.131   1.125
 8260TIP3   OH224720   4.644   1.143   3.870
 8260TIP3    H124721   4.675   1.079   3.934
 8260TIP3    H224722   4.706   1.215   3.876
 8261TIP3   OH224723   7.093   2.367   3.996
 8261TIP3    H124724   7.128   2.427   3.931
 8261TIP3    H224725   7.160   2.363   4.064
 8262TIP3   OH224726   6.355   2.010   5.748
 8262TIP3    H124727   6.383   1.930   5.704
 8262TIP3    H224728   6.346   2.074   5.678
 8263TIP3   OH224729   2.876   5.935   6.201
 8263TIP3    H124730   2.870   5.953   6.107
 8263TIP3    H224731   2.901   6.019   6.240
 8264TIP3   OH224732   8.022   6.814   6.123
 8264TIP3    H124733   8.015   6.784   6.032
 8264TIP3    H224734   8.115   6.812   6.142
 8265TIP3   OH224735   1.051   6.615   4.120
 8265TIP3    H124736   1.005   6.580   4.044
 8265TIP3    H224737   1.059   6.540   4.179
 8266TIP3   OH224738   6.194   3.731   0.848
 8266TIP3    H124739   6.238   3.794   0.906
 8266TIP3    H224740   6.265   3.689   0.800
 8267TIP3   OH224741   8.175   4.848   3.917
 8267TIP3    H124742   8.209   4.777   3.863
 8267TIP3    H224743   8.089   4.818   3.946
 8268TIP3   OH224744   5.543   5.224   2.667
 8268TIP3    H124745   5.623   5.217   2.719
 8268TIP3    H224746   5.545   5.313   2.631
 8269TIP3   OH224747   7.927   1.332   0.345
 8269TIP3    H124748   7.953   1.400   0.407
 8269TIP3    H224749   7.879   1.379   0.276
 8270TIP3   OH224750   6.054   7.753   0.648
 8270TIP3    H124751   6.040   7.720   0.559
 8270TIP3    H224752   6.112   7.689   0.688
 8271TIP3   OH224753   3.363   5.882   1.365
 8271TIP3    H124754   3.289   5.822   1.375
 8271TIP3    H224755   3.328   5.967   1.389
 8272TIP3   OH224756   6.801   6.380   6.776
 8272TIP3    H124757   6.801   6.437   6.699
 8272TIP3    H224758   6.849   6.430   6.843
 8273TIP3   OH224759   5.930   4.456   2.247
 8273TIP3    H124760   5.986   4.517   2.294
 8273TIP3    H224761   5.907   4.390   2.312
 8274TIP3   OH224762   7.688   7.865   2.812
 8274TIP3    H124763   7.758   7.822   2.860
 8274TIP3    H224764   7.620   7.798   2.804
 8275TIP3   OH224765   0.618   4.936   1.552
 8275TIP3    H124766   0.581   4.872   1.492
 8275TIP3    H224767   0.683   4.983   1.500
 8276TIP3   OH224768   7.675   3.787   5.941
 8276TIP3    H124769   7.640   3.760   5.856
 8276TIP3    H224770   7.610   3.848   5.975
 8277TIP3   OH224771   2.908   4.247   2.824
 8277TIP3    H124772   2.982   4.261   2.765
 8277TIP3    H224773   2.892   4.153   2.822
 8278TIP3   OH224774   0.054   1.690   4.470
 8278TIP3    H124775  -0.003   1.755   4.429
 8278TIP3    H224776   0.134   1.739   4.491
 8279TIP3   OH224777   2.341   5.068   3.994
 8279TIP3    H124778   2.430   5.035   3.985
 8279TIP3    H224779   2.309   5.027   4.075
 8280TIP3   OH224780   1.077   6.753   0.483
 8280TIP3    H124781   1.042   6.719   0.565
 8280TIP3    H224782   1.060   6.684   0.419
 8281TIP3   OH224783   0.210   5.907   0.698
 8281TIP3    H124784   0.133   5.915   0.756
 8281TIP3    H224785   0.218   5.813   0.681
 8282TIP3   OH224786   3.654   6.842   1.486
 8282TIP3    H124787   3.675   6.871   1.575
 8282TIP3    H224788   3.590   6.907   1.454
 8283TIP3   OH224789   2.291   3.768   4.920
 8283TIP3    H124790   2.207   3.813   4.907
 8283TIP3    H224791   2.305   3.771   5.015
 8284TIP3   OH224792   6.728   0.218   4.219
 8284TIP3    H124793   6.754   0.305   4.250
 8284TIP3    H224794   6.663   0.188   4.282
 8285TIP3   OH224795   0.542   2.667   0.133
 8285TIP3    H124796   0.465   2.610   0.125
 8285TIP3    H224797   0.604   2.633   0.069
 8286TIP3   OH224798   1.710   2.597   0.318
 8286TIP3    H124799   1.789   2.646   0.341
 8286TIP3    H224800   1.717   2.515   0.367
 8287TIP3   OH224801   3.204   4.768   0.495
 8287TIP3    H124802   3.233   4.678   0.507
 8287TIP3    H224803   3.116   4.759   0.457
 8288TIP3   OH224804   4.830   6.719   4.238
 8288TIP3    H124805   4.741   6.714   4.203
 8288TIP3    H224806   4.853   6.628   4.258
 8289TIP3   OH224807   6.009   7.676   1.870
 8289TIP3    H124808   6.099   7.668   1.903
 8289TIP3    H224809   5.961   7.717   1.942
 8290TIP3   OH224810   4.220   7.150   5.197
 8290TIP3    H124811   4.250   7.224   5.145
 8290TIP3    H224812   4.125   7.164   5.206
 8291TIP3   OH224813   4.565   5.215   2.319
 8291TIP3    H124814   4.491   5.240   2.374
 8291TIP3    H224815   4.525   5.196   2.233
 8292TIP3   OH224816   6.958   1.272   2.690
 8292TIP3    H124817   6.965   1.322   2.772
 8292TIP3    H224818   6.905   1.327   2.633
 8293TIP3   OH224819   6.854   3.748   3.198
 8293TIP3    H124820   6.890   3.669   3.237
 8293TIP3    H224821   6.915   3.772   3.129
 8294TIP3   OH224822   3.255   2.379   5.746
 8294TIP3    H124823   3.216   2.428   5.673
 8294TIP3    H224824   3.264   2.443   5.816
 8295TIP3   OH224825   6.742   7.097   4.648
 8295TIP3    H124826   6.747   7.037   4.723
 8295TIP3    H224827   6.751   7.184   4.687
 8296TIP3   OH224828   5.066   4.813   4.387
 8296TIP3    H124829   4.978   4.830   4.422
 8296TIP3    H224830   5.051   4.792   4.295
 8297TIP3   OH224831   1.650   6.651   6.594
 8297TIP3    H124832   1.695   6.583   6.543
 8297TIP3    H224833   1.682   6.639   6.683
 8298TIP3   OH224834   6.238   6.997   5.596
 8298TIP3    H124835   6.237   7.052   5.518
 8298TIP3    H224836   6.320   7.017   5.639
 8299TIP3   OH224837   2.312   2.038   2.557
 8299TIP3    H124838   2.373   2.099   2.598
 8299TIP3    H224839   2.284   1.981   2.628
 8300TIP3   OH224840   1.241   4.177   1.314
 8300TIP3    H124841   1.316   4.237   1.308
 8300TIP3    H224842   1.165   4.234   1.324
 8301TIP3   OH224843   2.824   1.237   3.343
 8301TIP3    H124844   2.802   1.166   3.403
 8301TIP3    H224845   2.813   1.199   3.256
 8302TIP3   OH224846   0.606   1.691   2.116
 8302TIP3    H124847   0.641   1.765   2.166
 8302TIP3    H224848   0.607   1.618   2.179
 8303TIP3   OH224849   1.191   2.331   2.128
 8303TIP3    H124850   1.198   2.414   2.081
 8303TIP3    H224851   1.097   2.312   2.131
 8304TIP3   OH224852   3.899   1.712   6.107
 8304TIP3    H124853   3.916   1.620   6.090
 8304TIP3    H224854   3.893   1.718   6.203
 8305TIP3   OH224855   1.956   2.465   1.515
 8305TIP3    H124856   1.907   2.415   1.580
 8305TIP3    H224857   1.900   2.541   1.497
 8306TIP3   OH224858   1.643   1.389   2.850
 8306TIP3    H124859   1.626   1.470   2.803
 8306TIP3    H224860   1.573   1.383   2.915
 8307TIP3   OH224861   3.413   0.655   3.825
 8307TIP3    H124862   3.373   0.736   3.856
 8307TIP3    H224863   3.349   0.587   3.848
 8308TIP3   OH224864   3.526   5.683   2.675
 8308TIP3    H124865   3.510   5.778   2.676
 8308TIP3    H224866   3.598   5.672   2.613
 8309TIP3   OH224867   3.750   6.847   4.721
 8309TIP3    H124868   3.798   6.829   4.803
 8309TIP3    H224869   3.811   6.900   4.670
 8310TIP3   OH224870   2.367   5.387   4.005
 8310TIP3    H124871   2.462   5.400   3.999
 8310TIP3    H224872   2.340   5.440   4.079
 8311TIP3   OH224873   1.279   6.531   0.009
 8311TIP3    H124874   1.194   6.575   0.013
 8311TIP3    H224875   1.320   6.566  -0.070
 8312TIP3   OH224876   1.439   0.611   0.376
 8312TIP3    H124877   1.405   0.522   0.381
 8312TIP3    H224878   1.507   0.607   0.309
 8313TIP3   OH224879   2.413   0.064   2.935
 8313TIP3    H124880   2.387  -0.027   2.952
 8313TIP3    H224881   2.481   0.057   2.868
 8314TIP3   OH224882   4.647   2.519   5.519
 8314TIP3    H124883   4.728   2.471   5.502
 8314TIP3    H224884   4.604   2.469   5.589
 8315TIP3   OH224885   5.925   2.311   5.193
 8315TIP3    H124886   5.954   2.341   5.107
 8315TIP3    H224887   5.843   2.264   5.176
 8316TIP3   OH224888   3.554   4.318   4.343
 8316TIP3    H124889   3.592   4.308   4.430
 8316TIP3    H224890   3.526   4.230   4.318
 8317TIP3   OH224891   2.281   5.487   2.573
 8317TIP3    H124892   2.211   5.484   2.639
 8317TIP3    H224893   2.343   5.421   2.601
 8318TIP3   OH224894   5.103   5.734   6.434
 8318TIP3    H124895   5.134   5.675   6.366
 8318TIP3    H224896   5.134   5.821   6.407
 8319TIP3   OH224897   2.468   1.363   4.939
 8319TIP3    H124898   2.376   1.365   4.914
 8319TIP3    H224899   2.510   1.426   4.881
 8320TIP3   OH224900   3.532   2.566   3.590
 8320TIP3    H124901   3.446   2.567   3.547
 8320TIP3    H224902   3.546   2.474   3.611
 8321TIP3   OH224903   2.850   1.125   4.100
 8321TIP3    H124904   2.823   1.035   4.117
 8321TIP3    H224905   2.869   1.161   4.187
 8322TIP3   OH224906   2.782   1.255   4.473
 8322TIP3    H124907   2.702   1.243   4.422
 8322TIP3    H224908   2.755   1.244   4.564
 8323TIP3   OH224909   7.243   3.423   1.526
 8323TIP3    H124910   7.233   3.457   1.437
 8323TIP3    H224911   7.182   3.474   1.578
 8324TIP3   OH224912   5.872   2.213   1.833
 8324TIP3    H124913   5.792   2.188   1.879
 8324TIP3    H224914   5.942   2.175   1.886
 8325TIP3   OH224915   4.118   2.069   0.730
 8325TIP3    H124916   4.172   2.076   0.809
 8325TIP3    H224917   4.106   2.160   0.701
 8326TIP3   OH224918   2.419   7.355   0.042
 8326TIP3    H124919   2.503   7.341   0.085
 8326TIP3    H224920   2.429   7.316  -0.045
 8327TIP3   OH224921   1.642   6.532   2.422
 8327TIP3    H124922   1.650   6.527   2.327
 8327TIP3    H224923   1.550   6.513   2.440
 8328TIP3   OH224924   2.542   3.051   6.260
 8328TIP3    H124925   2.611   2.986   6.245
 8328TIP3    H224926   2.563   3.123   6.201
 8329TIP3   OH224927   7.597   6.555   2.493
 8329TIP3    H124928   7.585   6.613   2.568
 8329TIP3    H224929   7.514   6.508   2.485
 8330TIP3   OH224930   7.253   5.649   0.141
 8330TIP3    H124931   7.175   5.693   0.107
 8330TIP3    H224932   7.297   5.715   0.194
 8331TIP3   OH224933   6.318   3.526   6.878
 8331TIP3    H124934   6.226   3.546   6.894
 8331TIP3    H224935   6.321   3.498   6.786
 8332TIP3   OH224936   2.970   7.409   2.428
 8332TIP3    H124937   2.976   7.454   2.512
 8332TIP3    H224938   2.951   7.479   2.365
 8333TIP3   OH224939   4.019   0.750   4.454
 8333TIP3    H124940   3.997   0.727   4.364
 8333TIP3    H224941   3.953   0.814   4.480
 8334TIP3   OH224942   2.444   1.877   3.076
 8334TIP3    H124943   2.389   1.901   3.001
 8334TIP3    H224944   2.430   1.948   3.139
 8335TIP3   OH224945   7.466   3.408   5.023
 8335TIP3    H124946   7.388   3.443   5.067
 8335TIP3    H224947   7.533   3.475   5.035
 8336TIP3   OH224948   1.534   5.689   5.661
 8336TIP3    H124949   1.452   5.651   5.631
 8336TIP3    H224950   1.537   5.776   5.620
 8337TIP3   OH224951   3.693   0.852   4.935
 8337TIP3    H124952   3.666   0.915   4.868
 8337TIP3    H224953   3.677   0.897   5.018
 8338TIP3   OH224954   4.724   1.775   2.014
 8338TIP3    H124955   4.646   1.793   2.066
 8338TIP3    H224956   4.748   1.686   2.038
 8339TIP3   OH224957   6.747   3.891   6.156
 8339TIP3    H124958   6.696   3.912   6.234
 8339TIP3    H224959   6.711   3.808   6.125
 8340TIP3   OH224960   6.515   6.959   1.315
 8340TIP3    H124961   6.529   6.871   1.280
 8340TIP3    H224962   6.515   6.946   1.410
 8341TIP3   OH224963   5.842   5.668   2.971
 8341TIP3    H124964   5.813   5.619   3.048
 8341TIP3    H224965   5.798   5.753   2.979
 8342TIP3   OH224966   4.322   2.782   3.862
 8342TIP3    H124967   4.401   2.827   3.834
 8342TIP3    H224968   4.352   2.696   3.894
 8343TIP3   OH224969   0.853   0.198   2.812
 8343TIP3    H124970   0.940   0.230   2.787
 8343TIP3    H224971   0.855   0.194   2.907
 8344TIP3   OH224972   1.580   2.653   5.664
 8344TIP3    H124973   1.561   2.746   5.677
 8344TIP3    H224974   1.494   2.613   5.653
 8345TIP3   OH224975   6.187   6.583   6.836
 8345TIP3    H124976   6.208   6.492   6.816
 8345TIP3    H224977   6.165   6.622   6.752
 8346TIP3   OH224978   4.284   2.335   2.525
 8346TIP3    H124979   4.313   2.287   2.448
 8346TIP3    H224980   4.347   2.311   2.593
 8347TIP3   OH224981   1.054   7.393   3.647
 8347TIP3    H124982   0.995   7.384   3.721
 8347TIP3    H224983   1.139   7.364   3.680
 8348TIP3   OH224984   6.550   3.991   2.129
 8348TIP3    H124985   6.588   4.013   2.043
 8348TIP3    H224986   6.575   4.064   2.186
 8349TIP3   OH224987   6.371   6.024   5.172
 8349TIP3    H124988   6.418   6.079   5.235
 8349TIP3    H224989   6.314   6.085   5.126
 8350TIP3   OH224990   0.886   3.590   5.360
 8350TIP3    H124991   0.924   3.644   5.430
 8350TIP3    H224992   0.895   3.644   5.281
 8351TIP3   OH224993   6.407   5.525   2.010
 8351TIP3    H124994   6.475   5.573   2.059
 8351TIP3    H224995   6.408   5.565   1.923
 8352TIP3   OH224996   0.570   4.241   0.470
 8352TIP3    H124997   0.557   4.192   0.551
 8352TIP3    H224998   0.614   4.321   0.498
 8353TIP3   OH224999   2.805   3.860   6.568
 8353TIP3    H125000   2.790   3.766   6.568
 8353TIP3    H225001   2.718   3.898   6.579
 8354TIP3   OH225002   3.049   5.302   0.900
 8354TIP3    H125003   3.143   5.318   0.896
 8354TIP3    H225004   3.029   5.254   0.820
 8355TIP3   OH225005   2.948   3.751   2.990
 8355TIP3    H125006   2.885   3.682   2.970
 8355TIP3    H225007   3.016   3.707   3.041
 8356TIP3   OH225008   8.167   1.102   3.025
 8356TIP3    H125009   8.197   1.160   2.955
 8356TIP3    H225010   8.237   1.106   3.090
 8357TIP3   OH225011   3.715   2.892   4.863
 8357TIP3    H125012   3.699   2.979   4.826
 8357TIP3    H225013   3.643   2.838   4.830
 8358TIP3   OH225014   0.148   5.459   6.136
 8358TIP3    H125015   0.186   5.452   6.224
 8358TIP3    H225016   0.075   5.397   6.137
 8359TIP3   OH225017   1.704   7.717   5.142
 8359TIP3    H125018   1.753   7.668   5.076
 8359TIP3    H225019   1.645   7.772   5.090
 8360TIP3   OH225020   7.514   3.933   1.919
 8360TIP3    H125021   7.522   4.025   1.895
 8360TIP3    H225022   7.560   3.886   1.849
 8361TIP3   OH225023   7.044   1.427   0.076
 8361TIP3    H125024   7.133   1.391   0.074
 8361TIP3    H225025   7.052   1.514   0.038
 8362TIP3   OH225026   3.890   7.549   4.553
 8362TIP3    H125027   3.866   7.467   4.511
 8362TIP3    H225028   3.973   7.530   4.596
 8363TIP3   OH225029   5.078   3.420   3.138
 8363TIP3    H125030   5.066   3.377   3.222
 8363TIP3    H225031   5.016   3.493   3.139
 8364TIP3   OH225032   5.493   1.748   2.243
 8364TIP3    H125033   5.439   1.760   2.321
 8364TIP3    H225034   5.446   1.793   2.174
 8365TIP3   OH225035   5.185   5.586   5.292
 8365TIP3    H125036   5.239   5.639   5.233
 8365TIP3    H225037   5.243   5.514   5.318
 8366TIP3   OH225038   1.941   3.433   3.478
 8366TIP3    H125039   1.887   3.391   3.545
 8366TIP3    H225040   1.892   3.419   3.397
 8367TIP3   OH225041   0.460   0.039   4.537
 8367TIP3    H125042   0.455   0.072   4.447
 8367TIP3    H225043   0.417  -0.047   4.533
 8368TIP3   OH225044   6.786   6.266   0.966
 8368TIP3    H125045   6.857   6.289   1.026
 8368TIP3    H225046   6.795   6.172   0.953
 8369TIP3   OH225047   1.297   5.089   5.428
 8369TIP3    H125048   1.329   5.011   5.474
 8369TIP3    H225049   1.201   5.082   5.433
 8370TIP3   OH225050   3.034   4.506   3.228
 8370TIP3    H125051   2.979   4.583   3.218
 8370TIP3    H225052   3.068   4.488   3.140
 8371TIP3   OH225053   2.653   6.412   3.317
 8371TIP3    H125054   2.624   6.401   3.227
 8371TIP3    H225055   2.694   6.328   3.339
 8372TIP3   OH225056   0.270   0.329   5.174
 8372TIP3    H125057   0.258   0.310   5.081
 8372TIP3    H225058   0.207   0.398   5.192
 8373TIP3   OH225059   7.574   3.096   6.698
 8373TIP3    H125060   7.525   3.020   6.728
 8373TIP3    H225061   7.578   3.087   6.603
 8374TIP3   OH225062   5.373   2.751   1.844
 8374TIP3    H125063   5.392   2.828   1.898
 8374TIP3    H225064   5.278   2.741   1.849
 8375TIP3   OH225065   8.033   0.839   4.862
 8375TIP3    H125066   8.048   0.930   4.889
 8375TIP3    H225067   8.107   0.791   4.898
 8376TIP3   OH225068   7.349   1.585   0.337
 8376TIP3    H125069   7.259   1.601   0.367
 8376TIP3    H225070   7.339   1.521   0.266
 8377TIP3   OH225071   7.172   1.566   2.701
 8377TIP3    H125072   7.149   1.624   2.628
 8377TIP3    H225073   7.241   1.611   2.747
 8378TIP3   OH225074   6.589   1.679   1.936
 8378TIP3    H125075   6.636   1.731   1.871
 8378TIP3    H225076   6.644   1.601   1.948
 8379TIP3   OH225077   1.656   7.878   0.192
 8379TIP3    H125078   1.685   7.961   0.230
 8379TIP3    H225079   1.702   7.873   0.108
 8380TIP3   OH225080   5.849   4.042   4.393
 8380TIP3    H125081   5.914   4.039   4.323
 8380TIP3    H225082   5.766   4.061   4.349
 8381TIP3   OH225083   3.688   4.073   0.188
 8381TIP3    H125084   3.746   4.115   0.125
 8381TIP3    H225085   3.600   4.103   0.163
 8382TIP3   OH225086   1.036   5.270   0.560
 8382TIP3    H125087   1.015   5.346   0.615
 8382TIP3    H225088   0.994   5.196   0.604
 8383TIP3   OH225089   2.782   5.890   2.147
 8383TIP3    H125090   2.719   5.834   2.100
 8383TIP3    H225091   2.759   5.979   2.120
 8384TIP3   OH225092   8.245   6.056   4.740
 8384TIP3    H125093   8.166   6.098   4.775
 8384TIP3    H225094   8.311   6.125   4.744
 8385TIP3   OH225095   3.857   5.932   1.098
 8385TIP3    H125096   3.801   5.953   1.173
 8385TIP3    H225097   3.814   5.971   1.023
 8386TIP3   OH225098   3.219   2.679   4.621
 8386TIP3    H125099   3.282   2.662   4.691
 8386TIP3    H225100   3.268   2.664   4.540
 8387TIP3   OH225101   4.539   6.222   6.725
 8387TIP3    H125102   4.584   6.256   6.802
 8387TIP3    H225103   4.471   6.286   6.706
 8388TIP3   OH225104   7.648   5.219   4.265
 8388TIP3    H125105   7.613   5.306   4.282
 8388TIP3    H225106   7.740   5.235   4.241
 8389TIP3   OH225107   1.929   0.753   6.046
 8389TIP3    H125108   1.928   0.712   5.959
 8389TIP3    H225109   1.880   0.692   6.101
 8390TIP3   OH225110   2.198   3.965   2.657
 8390TIP3    H125111   2.175   3.907   2.730
 8390TIP3    H225112   2.166   3.920   2.579
 8391TIP3   OH225113   6.997   0.537   3.386
 8391TIP3    H125114   7.022   0.444   3.389
 8391TIP3    H225115   7.029   0.567   3.301
 8392TIP3   OH225116   2.963   1.451   6.396
 8392TIP3    H125117   3.054   1.471   6.420
 8392TIP3    H225118   2.949   1.499   6.314
 8393TIP3   OH225119   2.157   3.276   0.959
 8393TIP3    H125120   2.089   3.219   0.994
 8393TIP3    H225121   2.113   3.329   0.893
 8394TIP3   OH225122   7.400   6.362   0.123
 8394TIP3    H125123   7.487   6.325   0.136
 8394TIP3    H225124   7.383   6.410   0.205
 8395TIP3   OH225125   7.097   6.170   6.017
 8395TIP3    H125126   7.063   6.256   6.043
 8395TIP3    H225127   7.190   6.185   6.002
 8396TIP3   OH225128   0.697   7.863   4.087
 8396TIP3    H125129   0.751   7.873   4.008
 8396TIP3    H225130   0.623   7.809   4.058
 8397TIP3   OH225131   7.333   3.592   6.171
 8397TIP3    H125132   7.398   3.522   6.166
 8397TIP3    H225133   7.346   3.642   6.090
 8398TIP3   OH225134   5.047   3.996   1.686
 8398TIP3    H125135   5.138   4.026   1.681
 8398TIP3    H225136   5.015   4.033   1.768
 8399TIP3   OH225137   6.118   4.906   5.501
 8399TIP3    H125138   6.173   4.828   5.509
 8399TIP3    H225139   6.028   4.872   5.506
 8400TIP3   OH225140   4.918   1.794   3.250
 8400TIP3    H125141   4.871   1.741   3.314
 8400TIP3    H225142   5.011   1.773   3.265
 8401TIP3   OH225143   5.392   3.156   4.525
 8401TIP3    H125144   5.373   3.062   4.526
 8401TIP3    H225145   5.478   3.162   4.482
 8402TIP3   OH225146   6.756   1.463   4.408
 8402TIP3    H125147   6.748   1.407   4.485
 8402TIP3    H225148   6.795   1.544   4.441
 8403TIP3   OH225149   3.238   7.548   3.902
 8403TIP3    H125150   3.239   7.569   3.995
 8403TIP3    H225151   3.211   7.456   3.899
 8404TIP3   OH225152   4.561   6.176   3.384
 8404TIP3    H125153   4.588   6.160   3.293
 8404TIP3    H225154   4.510   6.098   3.408
 8405TIP3   OH225155   5.684   3.656   5.280
 8405TIP3    H125156   5.702   3.570   5.317
 8405TIP3    H225157   5.602   3.684   5.322
 8406TIP3   OH225158   7.648   4.873   5.459
 8406TIP3    H125159   7.606   4.844   5.378
 8406TIP3    H225160   7.694   4.796   5.491
 8407TIP3   OH225161   0.093   7.621   5.831
 8407TIP3    H125162   0.188   7.611   5.827
 8407TIP3    H225163   0.074   7.635   5.924
 8408TIP3   OH225164   2.426   5.658   6.483
 8408TIP3    H125165   2.345   5.672   6.533
 8408TIP3    H225166   2.455   5.571   6.507
 8409TIP3   OH225167   2.415   5.289   3.502
 8409TIP3    H125168   2.333   5.242   3.513
 8409TIP3    H225169   2.389   5.376   3.472
 8410TIP3   OH225170   7.664   6.144   6.853
 8410TIP3    H125171   7.702   6.157   6.767
 8410TIP3    H225172   7.645   6.050   6.858
 8411TIP3   OH225173   7.385   2.953   0.950
 8411TIP3    H125174   7.419   3.042   0.939
 8411TIP3    H225175   7.314   2.962   1.013
 8412TIP3   OH225176   8.248   4.971   0.460
 8412TIP3    H125177   8.170   5.022   0.441
 8412TIP3    H225178   8.215   4.883   0.478
 8413TIP3   OH225179   1.382   5.653   1.420
 8413TIP3    H125180   1.429   5.569   1.413
 8413TIP3    H225181   1.351   5.671   1.332
 8414TIP3   OH225182   0.779   3.758   6.725
 8414TIP3    H125183   0.741   3.749   6.813
 8414TIP3    H225184   0.777   3.670   6.689
 8415TIP3   OH225185   2.181   4.609   5.770
 8415TIP3    H125186   2.259   4.560   5.742
 8415TIP3    H225187   2.182   4.603   5.866
 8416TIP3   OH225188   3.778   1.242   6.779
 8416TIP3    H125189   3.700   1.262   6.727
 8416TIP3    H225190   3.851   1.258   6.720
 8417TIP3   OH225191   6.910   7.677   3.564
 8417TIP3    H125192   6.967   7.745   3.598
 8417TIP3    H225193   6.822   7.714   3.573
 8418TIP3   OH225194   0.973   0.284   6.607
 8418TIP3    H125195   0.943   0.196   6.582
 8418TIP3    H225196   0.927   0.303   6.689
 8419TIP3   OH225197   2.100   2.362   1.252
 8419TIP3    H125198   2.053   2.406   1.181
 8419TIP3    H225199   2.052   2.387   1.331
 8420TIP3   OH225200   4.133   4.687   2.207
 8420TIP3    H125201   4.205   4.701   2.268
 8420TIP3    H225202   4.056   4.724   2.252
 8421TIP3   OH225203   3.614   6.644   1.937
 8421TIP3    H125204   3.660   6.588   1.874
 8421TIP3    H225205   3.681   6.670   2.000
 8422TIP3   OH225206   1.160   5.057   1.716
 8422TIP3    H125207   1.179   5.066   1.809
 8422TIP3    H225208   1.070   5.088   1.707
 8423TIP3   OH225209   3.629   1.775   2.843
 8423TIP3    H125210   3.550   1.744   2.799
 8423TIP3    H225211   3.607   1.864   2.871
 8424TIP3   OH225212   1.893   6.571   1.778
 8424TIP3    H125213   1.832   6.585   1.705
 8424TIP3    H225214   1.960   6.513   1.742
 8425TIP3   OH225215   5.328   5.296   0.683
 8425TIP3    H125216   5.412   5.282   0.641
 8425TIP3    H225217   5.316   5.391   0.682
 8426TIP3   OH225218   7.895   0.351   0.837
 8426TIP3    H125219   7.900   0.280   0.773
 8426TIP3    H225220   7.870   0.428   0.785
 8427TIP3   OH225221   3.956   1.439   4.208
 8427TIP3    H125222   3.867   1.418   4.237
 8427TIP3    H225223   4.000   1.354   4.203
 8428TIP3   OH225224   1.430   0.763   0.595
 8428TIP3    H125225   1.441   0.691   0.533
 8428TIP3    H225226   1.349   0.806   0.567
 8429TIP3   OH225227   5.296   5.810   2.604
 8429TIP3    H125228   5.294   5.891   2.552
 8429TIP3    H225229   5.248   5.833   2.684
 8430TIP3   OH225230   0.823   5.987   2.594
 8430TIP3    H125231   0.758   5.955   2.658
 8430TIP3    H225232   0.868   5.908   2.565
 8431TIP3   OH225233   7.804   4.395   4.061
 8431TIP3    H125234   7.785   4.318   4.007
 8431TIP3    H225235   7.822   4.359   4.148
 8432TIP3   OH225236   6.319   4.702   6.194
 8432TIP3    H125237   6.252   4.661   6.139
 8432TIP3    H225238   6.365   4.761   6.135
 8433TIP3   OH225239   2.309   5.122   6.739
 8433TIP3    H125240   2.264   5.039   6.758
 8433TIP3    H225241   2.347   5.147   6.823
 8434TIP3   OH225242   1.099   3.419   4.116
 8434TIP3    H125243   1.009   3.412   4.149
 8434TIP3    H225244   1.153   3.424   4.195
 8435TIP3   OH225245   3.036   1.167   5.687
 8435TIP3    H125246   3.053   1.197   5.776
 8435TIP3    H225247   3.123   1.149   5.650
 8436TIP3   OH225248   4.308   4.551   3.763
 8436TIP3    H125249   4.282   4.607   3.690
 8436TIP3    H225250   4.403   4.546   3.757
 8437TIP3   OH225251   6.209   1.480   2.273
 8437TIP3    H125252   6.137   1.422   2.299
 8437TIP3    H225253   6.181   1.516   2.189
 8438TIP3   OH225254   1.650   3.523   2.223
 8438TIP3    H125255   1.735   3.512   2.264
 8438TIP3    H225256   1.662   3.491   2.133
 8439TIP3   OH225257   5.326   3.913   0.664
 8439TIP3    H125258   5.286   3.839   0.709
 8439TIP3    H225259   5.417   3.912   0.693
 8440TIP3   OH225260   4.819   5.041   0.467
 8440TIP3    H125261   4.899   5.095   0.469
 8440TIP3    H225262   4.772   5.064   0.547
 8441TIP3   OH225263   4.947   3.369   1.847
 8441TIP3    H125264   5.026   3.418   1.828
 8441TIP3    H225265   4.886   3.392   1.777
 8442TIP3   OH225266   5.375   6.468   5.432
 8442TIP3    H125267   5.373   6.391   5.376
 8442TIP3    H225268   5.437   6.445   5.502
 8443TIP3   OH225269   6.710   2.805   5.066
 8443TIP3    H125270   6.752   2.891   5.055
 8443TIP3    H225271   6.770   2.744   5.023
 8444TIP3   OH225272   3.445   4.610   2.752
 8444TIP3    H125273   3.383   4.636   2.684
 8444TIP3    H225274   3.507   4.682   2.757
 8445TIP3   OH225275   6.301   2.923   5.804
 8445TIP3    H125276   6.284   2.956   5.715
 8445TIP3    H225277   6.214   2.902   5.838
 8446TIP3   OH225278   0.470   7.808   2.670
 8446TIP3    H125279   0.499   7.897   2.690
 8446TIP3    H225280   0.526   7.781   2.597
 8447TIP3   OH225281   2.295   3.666   6.252
 8447TIP3    H125282   2.324   3.654   6.342
 8447TIP3    H225283   2.231   3.737   6.257
 8448TIP3   OH225284   4.976   4.960   0.005
 8448TIP3    H125285   4.949   4.869   0.002
 8448TIP3    H225286   5.028   4.967   0.085
 8449TIP3   OH225287   2.302   3.089   4.353
 8449TIP3    H125288   2.299   2.998   4.326
 8449TIP3    H225289   2.362   3.090   4.428
 8450TIP3   OH225290   4.193   1.887   3.157
 8450TIP3    H125291   4.110   1.915   3.195
 8450TIP3    H225292   4.258   1.947   3.193
 8451TIP3   OH225293   7.598   6.180   1.415
 8451TIP3    H125294   7.599   6.088   1.442
 8451TIP3    H225295   7.612   6.229   1.497
 8452TIP3   OH225296   3.885   6.532   3.625
 8452TIP3    H125297   3.881   6.583   3.545
 8452TIP3    H225298   3.794   6.507   3.643
 8453TIP3   OH225299   4.867   4.311   1.629
 8453TIP3    H125300   4.862   4.387   1.687
 8453TIP3    H225301   4.961   4.289   1.625
 8454TIP3   OH225302   5.544   6.192   1.064
 8454TIP3    H125303   5.490   6.158   0.992
 8454TIP3    H225304   5.481   6.226   1.127
 8455TIP3   OH225305   3.893   2.551   5.486
 8455TIP3    H125306   3.823   2.542   5.550
 8455TIP3    H225307   3.854   2.601   5.414
 8456TIP3   OH225308   7.324   0.142   5.189
 8456TIP3    H125309   7.355   0.158   5.100
 8456TIP3    H225310   7.398   0.166   5.245
 8457TIP3   OH225311   6.040   3.948   2.360
 8457TIP3    H125312   6.025   3.993   2.277
 8457TIP3    H225313   6.068   4.017   2.420
 8458TIP3   OH225314   6.793   6.600   2.843
 8458TIP3    H125315   6.832   6.513   2.834
 8458TIP3    H225316   6.852   6.658   2.795
 8459TIP3   OH225317   0.615   1.173   2.376
 8459TIP3    H125318   0.602   1.084   2.408
 8459TIP3    H225319   0.708   1.177   2.353
 8460TIP3   OH225320   5.326   0.899   0.340
 8460TIP3    H125321   5.233   0.908   0.321
 8460TIP3    H225322   5.333   0.816   0.387
 8461TIP3   OH225323   6.846   7.801   6.329
 8461TIP3    H125324   6.893   7.719   6.340
 8461TIP3    H225325   6.787   7.785   6.255
 8462TIP3   OH225326   7.991   2.093   1.303
 8462TIP3    H125327   8.038   2.090   1.219
 8462TIP3    H225328   7.961   2.183   1.311
 8463TIP3   OH225329   3.007   5.024   1.061
 8463TIP3    H125330   3.043   4.937   1.044
 8463TIP3    H225331   3.034   5.077   0.986
 8464TIP3   OH225332   4.372   7.461   4.426
 8464TIP3    H125333   4.342   7.374   4.451
 8464TIP3    H225334   4.367   7.462   4.330
 8465TIP3   OH225335   6.654   7.296   5.851
 8465TIP3    H125336   6.741   7.336   5.858
 8465TIP3    H225337   6.664   7.227   5.786
 8466TIP3   OH225338   1.874   1.953   3.587
 8466TIP3    H125339   1.798   1.909   3.551
 8466TIP3    H225340   1.870   1.935   3.681
 8467TIP3   OH225341   2.843   7.171   2.982
 8467TIP3    H125342   2.769   7.206   2.933
 8467TIP3    H225343   2.805   7.137   3.063
 8468TIP3   OH225344   0.518   6.496   2.323
 8468TIP3    H125345   0.440   6.545   2.349
 8468TIP3    H225346   0.483   6.412   2.291
 8469TIP3   OH225347   6.200   5.970   3.857
 8469TIP3    H125348   6.159   6.004   3.937
 8469TIP3    H225349   6.278   6.025   3.846
 8470TIP3   OH225350   7.968   0.017   3.526
 8470TIP3    H125351   7.983   0.036   3.434
 8470TIP3    H225352   7.993  -0.075   3.536
 8471TIP3   OH225353   7.265   6.932   0.092
 8471TIP3    H125354   7.236   7.002   0.035
 8471TIP3    H225355   7.215   6.855   0.064
 8472TIP3   OH225356   4.696   0.877   4.307
 8472TIP3    H125357   4.608   0.863   4.272
 8472TIP3    H225358   4.746   0.801   4.278
 8473TIP3   OH225359   0.657   7.408   6.634
 8473TIP3    H125360   0.684   7.328   6.589
 8473TIP3    H225361   0.578   7.436   6.588
 8474TIP3   OH225362   0.110   1.995   3.036
 8474TIP3    H125363   0.037   2.017   3.094
 8474TIP3    H225364   0.068   1.964   2.956
 8475TIP3   OH225365   3.352   1.462   0.656
 8475TIP3    H125366   3.335   1.546   0.613
 8475TIP3    H225367   3.274   1.446   0.709
 8476TIP3   OH225368   6.832   0.529   5.549
 8476TIP3    H125369   6.833   0.455   5.489
 8476TIP3    H225370   6.864   0.603   5.498
 8477TIP3   OH225371   6.772   6.059   4.306
 8477TIP3    H125372   6.826   6.059   4.385
 8477TIP3    H225373   6.819   6.002   4.245
 8478TIP3   OH225374   2.822   7.657   0.296
 8478TIP3    H125375   2.842   7.728   0.235
 8478TIP3    H225376   2.830   7.577   0.243
 8479TIP3   OH225377   7.025   6.143   1.441
 8479TIP3    H125378   7.080   6.146   1.363
 8479TIP3    H225379   6.950   6.089   1.416
 8480TIP3   OH225380   0.956   5.931   1.487
 8480TIP3    H125381   1.006   5.941   1.568
 8480TIP3    H225382   0.967   5.840   1.462
 8481TIP3   OH225383   6.052   4.402   5.690
 8481TIP3    H125384   6.083   4.312   5.681
 8481TIP3    H225385   6.045   4.434   5.600
 8482TIP3   OH225386   6.376   7.618   4.181
 8482TIP3    H125387   6.437   7.622   4.254
 8482TIP3    H225388   6.347   7.709   4.170
 8483TIP3   OH225389   1.251   0.355   3.005
 8483TIP3    H125390   1.168   0.399   2.990
 8483TIP3    H225391   1.306   0.420   3.047
 8484TIP3   OH225392   3.686   6.874   3.452
 8484TIP3    H125393   3.658   6.922   3.530
 8484TIP3    H225394   3.613   6.814   3.434
 8485TIP3   OH225395   2.912   0.992   6.806
 8485TIP3    H125396   2.895   0.938   6.729
 8485TIP3    H225397   2.916   1.082   6.772
 8486TIP3   OH225398   2.551   2.556   1.517
 8486TIP3    H125399   2.587   2.507   1.443
 8486TIP3    H225400   2.467   2.588   1.486
 8487TIP3   OH225401   6.878   1.850   2.908
 8487TIP3    H125402   6.902   1.776   2.853
 8487TIP3    H225403   6.865   1.922   2.847
 8488TIP3   OH225404   4.249   7.021   2.186
 8488TIP3    H125405   4.305   7.097   2.205
 8488TIP3    H225406   4.209   7.000   2.270
 8489TIP3   OH225407   3.640   0.756   3.967
 8489TIP3    H125408   3.581   0.686   3.941
 8489TIP3    H225409   3.583   0.829   3.991
 8490TIP3   OH225410   0.046   1.219   3.143
 8490TIP3    H125411   0.030   1.285   3.210
 8490TIP3    H225412   0.114   1.256   3.088
 8491TIP3   OH225413   5.408   0.787   1.486
 8491TIP3    H125414   5.340   0.817   1.546
 8491TIP3    H225415   5.441   0.868   1.446
 8492TIP3   OH225416   3.026   2.037   4.427
 8492TIP3    H125417   2.945   2.074   4.393
 8492TIP3    H225418   3.017   1.943   4.417
 8493TIP3   OH225419   7.059   1.140   5.724
 8493TIP3    H125420   7.065   1.178   5.636
 8493TIP3    H225421   7.150   1.120   5.747
 8494TIP3   OH225422   7.195   4.768   2.945
 8494TIP3    H125423   7.113   4.815   2.929
 8494TIP3    H225424   7.169   4.676   2.950
 8495TIP3   OH225425   7.857   6.677   1.645
 8495TIP3    H125426   7.824   6.718   1.725
 8495TIP3    H225427   7.919   6.741   1.609
 8496TIP3   OH225428   1.837   1.541   6.323
 8496TIP3    H125429   1.855   1.583   6.407
 8496TIP3    H225430   1.770   1.475   6.344
 8497TIP3   OH225431   1.346   2.332   0.545
 8497TIP3    H125432   1.283   2.297   0.608
 8497TIP3    H225433   1.399   2.257   0.520
 8498TIP3   OH225434   2.819   0.290   6.398
 8498TIP3    H125435   2.821   0.385   6.402
 8498TIP3    H225436   2.869   0.261   6.475
 8499TIP3   OH225437   8.071   1.554   3.977
 8499TIP3    H125438   8.029   1.568   3.892
 8499TIP3    H225439   8.136   1.625   3.984
 8500TIP3   OH225440   0.094   7.877   3.078
 8500TIP3    H125441   0.040   7.822   3.134
 8500TIP3    H225442   0.124   7.819   3.009
 8501TIP3   OH225443   3.332   6.275   4.892
 8501TIP3    H125444   3.418   6.263   4.931
 8501TIP3    H225445   3.327   6.208   4.824
 8502TIP3   OH225446   1.221   3.153   5.684
 8502TIP3    H125447   1.164   3.131   5.611
 8502TIP3    H225448   1.169   3.212   5.738
 8503TIP3   OH225449   6.638   1.464   3.717
 8503TIP3    H125450   6.608   1.425   3.799
 8503TIP3    H225451   6.559   1.469   3.663
 8504TIP3   OH225452   7.678   1.149   4.994
 8504TIP3    H125453   7.653   1.220   5.053
 8504TIP3    H225454   7.623   1.075   5.020
 8505TIP3   OH225455   5.196   4.948   1.270
 8505TIP3    H125456   5.223   4.976   1.358
 8505TIP3    H225457   5.271   4.969   1.214
 8506TIP3   OH225458   6.436   7.449   3.698
 8506TIP3    H125459   6.482   7.480   3.776
 8506TIP3    H225460   6.445   7.521   3.635
 8507TIP3   OH225461   6.848   0.537   6.653
 8507TIP3    H125462   6.861   0.562   6.562
 8507TIP3    H225463   6.897   0.455   6.664
 8508TIP3   OH225464   8.182   7.801   0.235
 8508TIP3    H125465   8.100   7.794   0.285
 8508TIP3    H225466   8.244   7.841   0.295
 8509TIP3   OH225467   1.377   5.738   5.236
 8509TIP3    H125468   1.389   5.809   5.173
 8509TIP3    H225469   1.288   5.706   5.221
 8510TIP3   OH225470   7.220   0.899   4.417
 8510TIP3    H125471   7.144   0.841   4.422
 8510TIP3    H225472   7.183   0.985   4.396
 8511TIP3   OH225473   6.445   4.680   0.822
 8511TIP3    H125474   6.372   4.620   0.833
 8511TIP3    H225475   6.501   4.665   0.899
 8512TIP3   OH225476   2.989   5.077   6.002
 8512TIP3    H125477   2.981   5.093   6.096
 8512TIP3    H225478   3.047   5.147   5.971
 8513TIP3   OH225479   6.805   7.085   0.404
 8513TIP3    H125480   6.808   7.167   0.354
 8513TIP3    H225481   6.819   7.112   0.495
 8514TIP3   OH225482   5.079   3.995   3.253
 8514TIP3    H125483   5.025   4.020   3.179
 8514TIP3    H225484   5.169   4.010   3.224
 8515TIP3   OH225485   5.005   3.939   3.936
 8515TIP3    H125486   5.005   3.844   3.937
 8515TIP3    H225487   4.913   3.963   3.927
 8516TIP3   OH225488   3.627   4.510   1.138
 8516TIP3    H125489   3.646   4.423   1.101
 8516TIP3    H225490   3.635   4.569   1.063
 8517TIP3   OH225491   5.191   3.967   1.138
 8517TIP3    H125492   5.115   3.910   1.148
 8517TIP3    H225493   5.173   4.019   1.060
 8518TIP3   OH225494   8.230   5.764   1.648
 8518TIP3    H125495   8.217   5.706   1.722
 8518TIP3    H225496   8.262   5.707   1.578
 8519TIP3   OH225497   1.488   7.730   1.989
 8519TIP3    H125498   1.462   7.807   1.938
 8519TIP3    H225499   1.406   7.687   2.012
 8520TIP3   OH225500   2.442   7.722   1.784
 8520TIP3    H125501   2.455   7.742   1.877
 8520TIP3    H225502   2.393   7.640   1.784
 8521TIP3   OH225503   2.716   5.834   4.024
 8521TIP3    H125504   2.806   5.844   3.993
 8521TIP3    H225505   2.674   5.918   4.005
 8522TIP3   OH225506   0.918   6.747   1.177
 8522TIP3    H125507   0.887   6.729   1.265
 8522TIP3    H225508   0.954   6.664   1.146
 8523TIP3   OH225509   2.689   1.140   6.542
 8523TIP3    H125510   2.678   1.208   6.608
 8523TIP3    H225511   2.607   1.142   6.492
 8524TIP3   OH225512   0.089   0.566   5.922
 8524TIP3    H125513   0.048   0.652   5.931
 8524TIP3    H225514   0.181   0.580   5.944
 8525TIP3   OH225515   7.213   6.051   3.482
 8525TIP3    H125516   7.218   6.141   3.449
 8525TIP3    H225517   7.244   5.997   3.409
 8526TIP3   OH225518   2.366   0.379   0.559
 8526TIP3    H125519   2.456   0.414   0.562
 8526TIP3    H225520   2.350   0.348   0.648
 8527TIP3   OH225521   3.312   6.936   5.646
 8527TIP3    H125522   3.379   6.874   5.673
 8527TIP3    H225523   3.259   6.949   5.724
 8528TIP3   OH225524   0.732   1.783   5.068
 8528TIP3    H125525   0.714   1.845   5.139
 8528TIP3    H225526   0.647   1.740   5.052
 8529TIP3   OH225527   5.237   1.751   4.946
 8529TIP3    H125528   5.272   1.743   4.857
 8529TIP3    H225529   5.230   1.661   4.978
 8530TIP3   OH225530   6.276   4.816   5.945
 8530TIP3    H125531   6.320   4.809   5.860
 8530TIP3    H225532   6.302   4.901   5.979
 8531TIP3   OH225533   4.020   2.452   1.508
 8531TIP3    H125534   3.927   2.437   1.488
 8531TIP3    H225535   4.019   2.510   1.584
 8532TIP3   OH225536   5.038   6.466   1.728
 8532TIP3    H125537   4.963   6.470   1.787
 8532TIP3    H225538   5.021   6.534   1.663
 8533TIP3   OH225539   8.323   2.047   3.232
 8533TIP3    H125540   8.254   2.097   3.276
 8533TIP3    H225541   8.321   1.961   3.274
 8534TIP3   OH225542   4.971   0.822   5.324
 8534TIP3    H125543   5.045   0.847   5.268
 8534TIP3    H225544   4.996   0.737   5.360
 8535TIP3   OH225545   5.070   5.252   6.412
 8535TIP3    H125546   5.148   5.301   6.387
 8535TIP3    H225547   5.090   5.216   6.499
 8536TIP3   OH225548   5.201   2.705   3.989
 8536TIP3    H125549   5.238   2.768   3.927
 8536TIP3    H225550   5.108   2.730   3.994
 8537TIP3   OH225551   4.480   0.336   2.145
 8537TIP3    H125552   4.428   0.259   2.121
 8537TIP3    H225553   4.571   0.309   2.132
 8538TIP3   OH225554   2.647   1.813   0.821
 8538TIP3    H125555   2.728   1.842   0.780
 8538TIP3    H225556   2.665   1.723   0.849
 8539TIP3   OH225557   1.132   4.428   3.618
 8539TIP3    H125558   1.167   4.357   3.673
 8539TIP3    H225559   1.210   4.473   3.586
 8540TIP3   OH225560   2.572   6.145   2.123
 8540TIP3    H125561   2.601   6.219   2.070
 8540TIP3    H225562   2.484   6.125   2.091
 8541TIP3   OH225563   1.876   6.307   2.347
 8541TIP3    H125564   1.844   6.356   2.423
 8541TIP3    H225565   1.827   6.225   2.349
 8542TIP3   OH225566   3.940   2.383   1.216
 8542TIP3    H125567   3.961   2.386   1.123
 8542TIP3    H225568   3.888   2.303   1.225
 8543TIP3   OH225569   7.079   5.839   2.350
 8543TIP3    H125570   6.999   5.891   2.361
 8543TIP3    H225571   7.148   5.905   2.340
 8544TIP3   OH225572   4.094   1.551   6.392
 8544TIP3    H125573   4.115   1.630   6.442
 8544TIP3    H225574   3.999   1.555   6.381
 8545TIP3   OH225575   7.476   2.441   3.352
 8545TIP3    H125576   7.487   2.425   3.446
 8545TIP3    H225577   7.555   2.488   3.326
 8546TIP3   OH225578   2.258   7.465   5.180
 8546TIP3    H125579   2.317   7.515   5.237
 8546TIP3    H225580   2.298   7.471   5.094
 8547TIP3   OH225581   6.990   7.760   2.189
 8547TIP3    H125582   7.072   7.727   2.153
 8547TIP3    H225583   6.924   7.737   2.123
 8548TIP3   OH225584   3.429   1.966   2.599
 8548TIP3    H125585   3.447   1.908   2.674
 8548TIP3    H225586   3.373   1.914   2.542
 8549TIP3   OH225587   3.120   6.244   6.258
 8549TIP3    H125588   3.197   6.280   6.214
 8549TIP3    H225589   3.155   6.171   6.310
 8550TIP3   OH225590   0.380   6.912   5.303
 8550TIP3    H125591   0.418   6.981   5.357
 8550TIP3    H225592   0.328   6.959   5.237
 8551TIP3   OH225593   2.685   4.902   0.996
 8551TIP3    H125594   2.664   4.968   0.929
 8551TIP3    H225595   2.634   4.928   1.072
 8552TIP3   OH225596   5.366   0.580   3.544
 8552TIP3    H125597   5.349   0.614   3.456
 8552TIP3    H225598   5.359   0.485   3.535
 8553TIP3   OH225599   8.054   1.975   0.351
 8553TIP3    H125600   8.085   1.943   0.436
 8553TIP3    H225601   7.959   1.978   0.361
 8554TIP3   OH225602   1.357   1.617   1.051
 8554TIP3    H125603   1.279   1.658   1.015
 8554TIP3    H225604   1.360   1.646   1.142
 8555TIP3   OH225605   7.837   4.601   6.284
 8555TIP3    H125606   7.796   4.543   6.347
 8555TIP3    H225607   7.773   4.671   6.269
 8556TIP3   OH225608   3.567   1.871   2.138
 8556TIP3    H125609   3.648   1.854   2.090
 8556TIP3    H225610   3.502   1.816   2.095
 8557TIP3   OH225611   7.210   3.068   3.682
 8557TIP3    H125612   7.208   3.154   3.724
 8557TIP3    H225613   7.299   3.059   3.649
 8558TIP3   OH225614   5.410   6.969   3.376
 8558TIP3    H125615   5.503   6.958   3.359
 8558TIP3    H225616   5.374   6.880   3.370
 8559TIP3   OH225617   5.972   0.530   4.249
 8559TIP3    H125618   6.015   0.493   4.325
 8559TIP3    H225619   5.981   0.625   4.260
 8560TIP3   OH225620   8.237   2.487   1.524
 8560TIP3    H125621   8.229   2.570   1.477
 8560TIP3    H225622   8.148   2.454   1.531
 8561TIP3   OH225623   4.508   2.261   5.342
 8561TIP3    H125624   4.448   2.188   5.358
 8561TIP3    H225625   4.523   2.300   5.428
 8562TIP3   OH225626   3.088   2.404   3.577
 8562TIP3    H125627   3.137   2.379   3.655
 8562TIP3    H225628   3.035   2.478   3.605
 8563TIP3   OH225629   0.193   0.752   2.013
 8563TIP3    H125630   0.158   0.666   1.990
 8563TIP3    H225631   0.244   0.778   1.937
 8564TIP3   OH225632   7.747   6.716   5.666
 8564TIP3    H125633   7.708   6.629   5.655
 8564TIP3    H225634   7.823   6.716   5.608
 8565TIP3   OH225635   4.460   1.843   4.148
 8565TIP3    H125636   4.368   1.823   4.136
 8565TIP3    H225637   4.505   1.759   4.136
 8566TIP3   OH225638   6.581   3.726   2.506
 8566TIP3    H125639   6.607   3.750   2.595
 8566TIP3    H225640   6.504   3.780   2.488
 8567TIP3   OH225641   1.952   1.553   3.994
 8567TIP3    H125642   2.039   1.590   3.974
 8567TIP3    H225643   1.897   1.581   3.920
 8568TIP3   OH225644   1.089   1.969   5.181
 8568TIP3    H125645   1.095   1.916   5.261
 8568TIP3    H225646   1.047   1.912   5.117
 8569TIP3   OH225647   7.958   3.572   5.767
 8569TIP3    H125648   8.050   3.560   5.744
 8569TIP3    H225649   7.942   3.666   5.757
 8570TIP3   OH225650   3.280   3.470   4.312
 8570TIP3    H125651   3.329   3.405   4.362
 8570TIP3    H225652   3.305   3.554   4.350
 8571TIP3   OH225653   1.763   6.404   5.125
 8571TIP3    H125654   1.736   6.395   5.217
 8571TIP3    H225655   1.685   6.386   5.074
 8572TIP3   OH225656   3.499   0.220   0.877
 8572TIP3    H125657   3.538   0.133   0.888
 8572TIP3    H225658   3.455   0.215   0.792
 8573TIP3   OH225659   4.436   3.803   5.729
 8573TIP3    H125660   4.360   3.848   5.765
 8573TIP3    H225661   4.507   3.867   5.736
 8574TIP3   OH225662   6.231   1.584   5.599
 8574TIP3    H125663   6.230   1.499   5.643
 8574TIP3    H225664   6.223   1.648   5.670
 8575TIP3   OH225665   5.071   6.192   1.718
 8575TIP3    H125666   5.124   6.171   1.795
 8575TIP3    H225667   5.056   6.286   1.724
 8576TIP3   OH225668   4.092   7.167   1.350
 8576TIP3    H125669   4.089   7.101   1.419
 8576TIP3    H225670   4.086   7.251   1.396
 8577TIP3   OH225671   4.695   1.033   2.749
 8577TIP3    H125672   4.778   0.992   2.774
 8577TIP3    H225673   4.687   1.016   2.655
 8578TIP3   OH225674   2.865   6.473   1.611
 8578TIP3    H125675   2.889   6.439   1.697
 8578TIP3    H225676   2.932   6.538   1.591
 8579TIP3   OH225677   4.442   3.056   3.525
 8579TIP3    H125678   4.506   3.109   3.478
 8579TIP3    H225679   4.429   2.980   3.470
 8580TIP3   OH225680   2.057   3.966   3.845
 8580TIP3    H125681   2.109   4.041   3.874
 8580TIP3    H225682   2.010   3.999   3.768
 8581TIP3   OH225683   7.234   7.881   1.998
 8581TIP3    H125684   7.248   7.888   2.092
 8581TIP3    H225685   7.295   7.812   1.970
 8582TIP3   OH225686   4.922   4.885   1.045
 8582TIP3    H125687   4.863   4.904   0.972
 8582TIP3    H225688   4.970   4.807   1.018
 8583TIP3   OH225689   6.179   7.550   6.593
 8583TIP3    H125690   6.130   7.526   6.672
 8583TIP3    H225691   6.139   7.633   6.565
 8584TIP3   OH225692   5.178   0.698   1.016
 8584TIP3    H125693   5.090   0.732   1.001
 8584TIP3    H225694   5.207   0.740   1.097
 8585TIP3   OH225695   8.006   2.774   4.158
 8585TIP3    H125696   8.061   2.847   4.127
 8585TIP3    H225697   7.931   2.773   4.099
 8586TIP3   OH225698   4.528   1.415   0.285
 8586TIP3    H125699   4.468   1.409   0.210
 8586TIP3    H225700   4.473   1.398   0.361
 8587TIP3   OH225701   5.035   5.387   5.663
 8587TIP3    H125702   5.119   5.390   5.708
 8587TIP3    H225703   4.987   5.317   5.707
 8588TIP3   OH225704   1.142   7.585   5.472
 8588TIP3    H125705   1.174   7.673   5.451
 8588TIP3    H225706   1.200   7.527   5.423
 8589TIP3   OH225707   7.304   3.155   1.642
 8589TIP3    H125708   7.393   3.143   1.609
 8589TIP3    H225709   7.283   3.246   1.621
 8590TIP3   OH225710   0.533   7.381   0.962
 8590TIP3    H125711   0.583   7.359   0.883
 8590TIP3    H225712   0.441   7.376   0.935
 8591TIP3   OH225713   7.086   7.336   3.307
 8591TIP3    H125714   7.133   7.327   3.390
 8591TIP3    H225715   7.078   7.431   3.294
 8592TIP3   OH225716   1.241   3.915   0.531
 8592TIP3    H125717   1.224   3.942   0.441
 8592TIP3    H225718   1.155   3.919   0.574
 8593TIP3   OH225719   2.162   0.613   5.523
 8593TIP3    H125720   2.183   0.664   5.602
 8593TIP3    H225721   2.076   0.576   5.540
 8594TIP3   OH225722   6.251   0.455   2.221
 8594TIP3    H125723   6.254   0.464   2.126
 8594TIP3    H225724   6.288   0.368   2.238
 8595TIP3   OH225725   3.642   7.815   0.553
 8595TIP3    H125726   3.698   7.777   0.485
 8595TIP3    H225727   3.582   7.872   0.505
 8596TIP3   OH225728   1.923   2.390   5.409
 8596TIP3    H125729   1.844   2.434   5.439
 8596TIP3    H225730   1.919   2.398   5.313
 8597TIP3   OH225731   1.134   6.565   2.339
 8597TIP3    H125732   1.053   6.607   2.310
 8597TIP3    H225733   1.181   6.633   2.387
 8598TIP3   OH225734   4.433   2.057   5.659
 8598TIP3    H125735   4.466   1.987   5.716
 8598TIP3    H225736   4.361   2.096   5.708
 8599TIP3   OH225737   8.114   2.856   0.113
 8599TIP3    H125738   8.181   2.894   0.170
 8599TIP3    H225739   8.163   2.804   0.049
 8600TIP3   OH225740   4.261   1.692   6.149
 8600TIP3    H125741   4.166   1.685   6.158
 8600TIP3    H225742   4.285   1.762   6.210
 8601TIP3   OH225743   5.919   1.689   2.171
 8601TIP3    H125744   5.871   1.625   2.223
 8601TIP3    H225745   5.874   1.772   2.186
 8602TIP3   OH225746   5.603   1.023   3.226
 8602TIP3    H125747   5.615   1.010   3.320
 8602TIP3    H225748   5.509   1.012   3.212
 8603TIP3   OH225749   2.226   2.111   1.290
 8603TIP3    H125750   2.302   2.141   1.339
 8603TIP3    H225751   2.152   2.160   1.327
 8604TIP3   OH225752   7.804   1.969   1.495
 8604TIP3    H125753   7.794   2.036   1.427
 8604TIP3    H225754   7.877   1.915   1.465
 8605TIP3   OH225755   2.360   1.920   6.807
 8605TIP3    H125756   2.417   1.997   6.807
 8605TIP3    H225757   2.277   1.951   6.843
 8606TIP3   OH225758   3.378   0.590   0.763
 8606TIP3    H125759   3.445   0.586   0.832
 8606TIP3    H225760   3.427   0.579   0.681
 8607TIP3   OH225761   3.139   2.926   2.208
 8607TIP3    H125762   3.073   2.904   2.142
 8607TIP3    H225763   3.163   3.017   2.189
 8608TIP3   OH225764   2.991   0.234   6.600
 8608TIP3    H125765   3.071   0.280   6.577
 8608TIP3    H225766   2.970   0.264   6.689
 8609TIP3   OH225767   6.640   3.262   2.558
 8609TIP3    H125768   6.612   3.340   2.606
 8609TIP3    H225769   6.657   3.293   2.469
 8610TIP3   OH225770   4.863   2.163   2.964
 8610TIP3    H125771   4.905   2.207   2.890
 8610TIP3    H225772   4.934   2.145   3.025
 8611TIP3   OH225773   5.145   3.390   0.717
 8611TIP3    H125774   5.225   3.390   0.665
 8611TIP3    H225775   5.084   3.335   0.667
 8612TIP3   OH225776   2.907   2.876   4.443
 8612TIP3    H125777   2.824   2.841   4.476
 8612TIP3    H225778   2.913   2.964   4.481
 8613TIP3   OH225779   4.503   3.474   6.224
 8613TIP3    H125780   4.418   3.465   6.180
 8613TIP3    H225781   4.566   3.482   6.152
 8614TIP3   OH225782   1.428   7.096   5.956
 8614TIP3    H125783   1.401   7.075   5.866
 8614TIP3    H225784   1.362   7.056   6.011
 8615TIP3   OH225785   3.057   0.022   2.809
 8615TIP3    H125786   3.133  -0.025   2.773
 8615TIP3    H225787   3.092   0.071   2.883
 8616TIP3   OH225788   7.936   5.757   0.730
 8616TIP3    H125789   7.999   5.736   0.799
 8616TIP3    H225790   7.852   5.726   0.763
 8617TIP3   OH225791   6.950   0.050   6.118
 8617TIP3    H125792   6.984   0.054   6.029
 8617TIP3    H225793   6.867   0.098   6.114
 8618TIP3   OH225794   2.134   3.648   3.125
 8618TIP3    H125795   2.174   3.586   3.186
 8618TIP3    H225796   2.111   3.724   3.179
 8619TIP3   OH225797   2.444   7.408   4.917
 8619TIP3    H125798   2.447   7.330   4.972
 8619TIP3    H225799   2.520   7.400   4.859
 8620TIP3   OH225800   3.792   1.478   1.154
 8620TIP3    H125801   3.841   1.508   1.230
 8620TIP3    H225802   3.810   1.384   1.150
 8621TIP3   OH225803   0.204   4.022   0.306
 8621TIP3    H125804   0.185   4.098   0.361
 8621TIP3    H225805   0.156   3.950   0.346
 8622TIP3   OH225806   3.968   1.219   0.630
 8622TIP3    H125807   3.875   1.198   0.626
 8622TIP3    H225808   3.998   1.178   0.712
 8623TIP3   OH225809   7.812   4.175   4.257
 8623TIP3    H125810   7.808   4.158   4.163
 8623TIP3    H225811   7.814   4.088   4.297
 8624TIP3   OH225812   2.855   2.637   5.284
 8624TIP3    H125813   2.874   2.709   5.344
 8624TIP3    H225814   2.847   2.679   5.198
 8625TIP3   OH225815   6.265   7.732   3.810
 8625TIP3    H125816   6.197   7.732   3.878
 8625TIP3    H225817   6.230   7.673   3.743
 8626TIP3   OH225818   6.273   7.207   5.291
 8626TIP3    H125819   6.243   7.257   5.367
 8626TIP3    H225820   6.218   7.130   5.290
 8627TIP3   OH225821   7.574   2.553   5.808
 8627TIP3    H125822   7.642   2.512   5.754
 8627TIP3    H225823   7.492   2.532   5.763
 8628TIP3   OH225824   3.124   7.017   2.338
 8628TIP3    H125825   3.049   6.972   2.300
 8628TIP3    H225826   3.130   7.099   2.289
 8629TIP3   OH225827   8.297   7.069   6.309
 8629TIP3    H125828   8.263   7.158   6.317
 8629TIP3    H225829   8.373   7.068   6.368
 8630TIP3   OH225830   3.089   7.573   6.258
 8630TIP3    H125831   3.178   7.540   6.270
 8630TIP3    H225832   3.032   7.499   6.277
 8631TIP3   OH225833   1.177   5.431   1.271
 8631TIP3    H125834   1.180   5.478   1.188
 8631TIP3    H225835   1.257   5.456   1.316
 8632TIP3   OH225836   6.171   6.931   3.321
 8632TIP3    H125837   6.080   6.938   3.348
 8632TIP3    H225838   6.220   6.917   3.402
 8633TIP3   OH225839   3.930   6.880   1.747
 8633TIP3    H125840   3.958   6.903   1.836
 8633TIP3    H225841   3.966   6.792   1.733
 8634TIP3   OH225842   4.705   6.084   3.154
 8634TIP3    H125843   4.735   5.994   3.140
 8634TIP3    H225844   4.780   6.128   3.194
 8635TIP3   OH225845   2.019   7.120   6.700
 8635TIP3    H125846   2.096   7.062   6.701
 8635TIP3    H225847   2.031   7.176   6.776
 8636TIP3   OH225848   8.117   5.223   5.967
 8636TIP3    H125849   8.060   5.193   6.038
 8636TIP3    H225850   8.058   5.272   5.909
 8637TIP3   OH225851   0.561   6.462   1.615
 8637TIP3    H125852   0.629   6.430   1.555
 8637TIP3    H225853   0.479   6.444   1.570
 8638TIP3   OH225854   8.242   1.769   2.327
 8638TIP3    H125855   8.210   1.857   2.308
 8638TIP3    H225856   8.338   1.778   2.327
 8639TIP3   OH225857   8.177   5.147   6.368
 8639TIP3    H125858   8.092   5.111   6.342
 8639TIP3    H225859   8.200   5.099   6.447
 8640TIP3   OH225860   0.605   7.083   1.200
 8640TIP3    H125861   0.668   7.101   1.130
 8640TIP3    H225862   0.535   7.147   1.186
 8641TIP3   OH225863   1.607   2.862   3.037
 8641TIP3    H125864   1.556   2.891   3.113
 8641TIP3    H225865   1.633   2.772   3.058
 8642TIP3   OH225866   0.788   1.039   1.524
 8642TIP3    H125867   0.799   0.970   1.590
 8642TIP3    H225868   0.845   1.012   1.452
 8643TIP3   OH225869   4.944   2.468   3.116
 8643TIP3    H125870   4.943   2.485   3.210
 8643TIP3    H225871   4.863   2.419   3.099
 8644TIP3   OH225872   3.646   1.984   3.988
 8644TIP3    H125873   3.737   2.013   3.983
 8644TIP3    H225874   3.650   1.889   3.976
 8645TIP3   OH225875   3.076   2.095   2.414
 8645TIP3    H125876   3.139   2.165   2.398
 8645TIP3    H225877   3.035   2.079   2.329
 8646TIP3   OH225878   4.809   3.346   2.067
 8646TIP3    H125879   4.867   3.339   1.991
 8646TIP3    H225880   4.753   3.422   2.048
 8647TIP3   OH225881   4.556   5.145   4.107
 8647TIP3    H125882   4.475   5.190   4.081
 8647TIP3    H225883   4.575   5.086   4.034
 8648TIP3   OH225884   6.308   5.403   5.173
 8648TIP3    H125885   6.221   5.429   5.142
 8648TIP3    H225886   6.361   5.398   5.093
 8649TIP3   OH225887   7.577   7.597   1.275
 8649TIP3    H125888   7.631   7.602   1.353
 8649TIP3    H225889   7.624   7.536   1.217
 8650TIP3   OH225890   6.545   6.484   3.823
 8650TIP3    H125891   6.465   6.445   3.859
 8650TIP3    H225892   6.602   6.409   3.806
 8651TIP3   OH225893   3.726   1.892   1.581
 8651TIP3    H125894   3.651   1.898   1.522
 8651TIP3    H225895   3.750   1.984   1.598
 8652TIP3   OH225896   7.139   1.713   6.659
 8652TIP3    H125897   7.103   1.639   6.707
 8652TIP3    H225898   7.230   1.689   6.642
 8653TIP3   OH225899   0.623   3.953   5.544
 8653TIP3    H125900   0.538   3.961   5.501
 8653TIP3    H225901   0.687   3.959   5.473
 8654TIP3   OH225902   0.549   5.901   6.493
 8654TIP3    H125903   0.620   5.846   6.460
 8654TIP3    H225904   0.505   5.932   6.414
 8655TIP3   OH225905   3.724   3.577   4.853
 8655TIP3    H125906   3.687   3.659   4.822
 8655TIP3    H225907   3.818   3.595   4.863
 8656TIP3   OH225908   6.901   5.958   6.044
 8656TIP3    H125909   6.868   6.039   6.082
 8656TIP3    H225910   6.993   5.976   6.025
 8657TIP3   OH225911   3.583   4.166   3.668
 8657TIP3    H125912   3.594   4.259   3.646
 8657TIP3    H225913   3.669   4.127   3.649
 8658TIP3   OH225914   6.311   3.567   5.611
 8658TIP3    H125915   6.225   3.562   5.654
 8658TIP3    H225916   6.351   3.482   5.627
 8659TIP3   OH225917   4.221   3.323   2.577
 8659TIP3    H125918   4.222   3.264   2.502
 8659TIP3    H225919   4.202   3.267   2.652
 8660TIP3   OH225920   7.671   2.307   6.529
 8660TIP3    H125921   7.638   2.342   6.612
 8660TIP3    H225922   7.592   2.293   6.476
 8661TIP3   OH225923   3.308   2.621   5.858
 8661TIP3    H125924   3.249   2.692   5.884
 8661TIP3    H225925   3.396   2.654   5.877
 8662TIP3   OH225926   7.314   2.217   4.296
 8662TIP3    H125927   7.285   2.145   4.239
 8662TIP3    H225928   7.379   2.263   4.244
 8663TIP3   OH225929   5.510   0.543   2.226
 8663TIP3    H125930   5.426   0.502   2.204
 8663TIP3    H225931   5.576   0.481   2.198
 8664TIP3   OH225932   2.823   2.158   5.972
 8664TIP3    H125933   2.882   2.232   5.963
 8664TIP3    H225934   2.842   2.102   5.896
 8665TIP3   OH225935   3.689   3.955   2.913
 8665TIP3    H125936   3.713   3.870   2.949
 8665TIP3    H225937   3.733   4.018   2.970
 8666TIP3   OH225938   8.339   7.566   1.129
 8666TIP3    H125939   8.432   7.588   1.125
 8666TIP3    H225940   8.324   7.540   1.220
 8667TIP3   OH225941   6.256   7.860   4.984
 8667TIP3    H125942   6.196   7.860   5.058
 8667TIP3    H225943   6.305   7.779   4.993
 8668TIP3   OH225944   0.212   3.074   3.654
 8668TIP3    H125945   0.305   3.088   3.634
 8668TIP3    H225946   0.165   3.120   3.584
 8669TIP3   OH225947   7.114   4.512   2.894
 8669TIP3    H125948   7.138   4.419   2.892
 8669TIP3    H225949   7.099   4.534   2.802
 8670TIP3   OH225950   4.496   4.261   1.919
 8670TIP3    H125951   4.404   4.250   1.942
 8670TIP3    H225952   4.529   4.172   1.908
 8671TIP3   OH225953   6.866   0.232   3.591
 8671TIP3    H125954   6.898   0.148   3.556
 8671TIP3    H225955   6.894   0.232   3.683
 8672TIP3   OH225956   4.700   1.761   0.396
 8672TIP3    H125957   4.753   1.714   0.332
 8672TIP3    H225958   4.752   1.761   0.476
 8673TIP3   OH225959   2.249   3.184   3.923
 8673TIP3    H125960   2.273   3.263   3.875
 8673TIP3    H225961   2.248   3.211   4.015
 8674TIP3   OH225962   7.488   5.982   5.585
 8674TIP3    H125963   7.541   6.007   5.661
 8674TIP3    H225964   7.412   6.041   5.589
 8675TIP3   OH225965   6.030   6.878   4.802
 8675TIP3    H125966   6.031   6.783   4.810
 8675TIP3    H225967   6.108   6.907   4.848
 8676TIP3   OH225968   1.624   1.991   6.405
 8676TIP3    H125969   1.652   1.973   6.315
 8676TIP3    H225970   1.694   1.956   6.459
 8677TIP3   OH225971   8.157   2.993   6.638
 8677TIP3    H125972   8.101   2.918   6.660
 8677TIP3    H225973   8.226   2.990   6.704
 8678TIP3   OH225974   6.030   0.400   5.441
 8678TIP3    H125975   6.006   0.392   5.534
 8678TIP3    H225976   5.987   0.325   5.399
 8679TIP3   OH225977   4.371   7.344   1.132
 8679TIP3    H125978   4.324   7.296   1.064
 8679TIP3    H225979   4.359   7.291   1.211
 8680TIP3   OH225980   4.242   7.747   0.704
 8680TIP3    H125981   4.230   7.842   0.709
 8680TIP3    H225982   4.161   7.711   0.741
 8681TIP3   OH225983   0.352   3.822   5.470
 8681TIP3    H125984   0.301   3.816   5.551
 8681TIP3    H225985   0.304   3.885   5.416
 8682TIP3   OH225986   6.438   5.330   2.240
 8682TIP3    H125987   6.411   5.419   2.217
 8682TIP3    H225988   6.356   5.286   2.263
 8683TIP3   OH225989   5.884   5.610   2.718
 8683TIP3    H125990   5.867   5.636   2.809
 8683TIP3    H225991   5.954   5.545   2.724
 8684TIP3   OH225992   7.171   2.554   3.192
 8684TIP3    H125993   7.108   2.624   3.178
 8684TIP3    H225994   7.152   2.521   3.280
 8685TIP3   OH225995   0.628   5.612   4.904
 8685TIP3    H125996   0.694   5.678   4.926
 8685TIP3    H225997   0.546   5.650   4.934
 8686TIP3   OH225998   7.405   3.829   0.762
 8686TIP3    H125999   7.472   3.834   0.694
 8686TIP3    H226000   7.348   3.757   0.734
 8687TIP3   OH226001   3.708   4.949   3.047
 8687TIP3    H126002   3.741   4.997   2.971
 8687TIP3    H226003   3.720   4.857   3.026
 8688TIP3   OH226004   6.476   1.151   5.731
 8688TIP3    H126005   6.412   1.155   5.802
 8688TIP3    H226006   6.556   1.121   5.773
 8689TIP3   OH226007   6.930   5.421   3.802
 8689TIP3    H126008   7.022   5.396   3.791
 8689TIP3    H226009   6.892   5.411   3.715
 8690TIP3   OH226010   7.413   0.553   1.938
 8690TIP3    H126011   7.488   0.539   1.880
 8690TIP3    H226012   7.412   0.476   1.995
 8691TIP3   OH226013   2.755   2.981   2.583
 8691TIP3    H126014   2.751   3.011   2.492
 8691TIP3    H226015   2.699   3.042   2.631
 8692TIP3   OH226016   1.491   0.358   4.329
 8692TIP3    H126017   1.451   0.309   4.401
 8692TIP3    H226018   1.448   0.444   4.331
 8693TIP3   OH226019   7.089   0.525   0.168
 8693TIP3    H126020   7.094   0.608   0.214
 8693TIP3    H226021   7.178   0.510   0.135
 8694TIP3   OH226022   5.442   2.050   2.337
 8694TIP3    H126023   5.412   1.987   2.271
 8694TIP3    H226024   5.363   2.097   2.364
 8695TIP3   OH226025   7.308   0.785   4.646
 8695TIP3    H126026   7.286   0.833   4.566
 8695TIP3    H226027   7.329   0.696   4.615
 8696TIP3   OH226028   5.810   6.077   1.021
 8696TIP3    H126029   5.738   6.138   1.004
 8696TIP3    H226030   5.876   6.130   1.065
 8697TIP3   OH226031   0.416   7.939   0.514
 8697TIP3    H126032   0.460   7.860   0.483
 8697TIP3    H226033   0.340   7.948   0.456
 8698TIP3   OH226034   7.172   6.606   1.229
 8698TIP3    H126035   7.145   6.603   1.137
 8698TIP3    H226036   7.256   6.651   1.228
 8699TIP3   OH226037   3.354   6.665   3.994
 8699TIP3    H126038   3.394   6.738   4.043
 8699TIP3    H226039   3.330   6.704   3.909
 8700TIP3   OH226040   6.060   7.273   6.391
 8700TIP3    H126041   6.128   7.322   6.345
 8700TIP3    H226042   5.988   7.268   6.329
 8701TIP3   OH226043   0.078   4.251   2.254
 8701TIP3    H126044   0.048   4.240   2.344
 8701TIP3    H226045   0.020   4.195   2.203
 8702TIP3   OH226046   3.382   1.660   4.090
 8702TIP3    H126047   3.334   1.741   4.071
 8702TIP3    H226048   3.460   1.666   4.033
 8703TIP3   OH226049  -0.019   1.319   6.314
 8703TIP3    H126050  -0.041   1.308   6.407
 8703TIP3    H226051   0.061   1.269   6.302
 8704TIP3   OH226052   4.735   4.178   1.337
 8704TIP3    H126053   4.692   4.259   1.309
 8704TIP3    H226054   4.700   4.161   1.424
 8705TIP3   OH226055   2.865   6.557   6.808
 8705TIP3    H126056   2.806   6.552   6.734
 8705TIP3    H226057   2.870   6.468   6.842
 8706TIP3   OH226058   1.822   3.698   0.684
 8706TIP3    H126059   1.859   3.654   0.760
 8706TIP3    H226060   1.877   3.775   0.671
 8707TIP3   OH226061   6.459   5.779   4.962
 8707TIP3    H126062   6.530   5.837   4.988
 8707TIP3    H226063   6.389   5.838   4.932
 8708TIP3   OH226064   7.493   2.866   2.450
 8708TIP3    H126065   7.578   2.846   2.410
 8708TIP3    H226066   7.452   2.928   2.390
 8709TIP3   OH226067   1.042   7.859   5.057
 8709TIP3    H126068   0.956   7.856   5.015
 8709TIP3    H226069   1.104   7.841   4.987
 8710TIP3   OH226070   1.985   2.737   2.996
 8710TIP3    H126071   2.074   2.707   2.981
 8710TIP3    H226072   1.933   2.696   2.927
 8711TIP3   OH226073   1.698   4.077   3.073
 8711TIP3    H126074   1.637   4.127   3.018
 8711TIP3    H226075   1.781   4.122   3.064
 8712TIP3   OH226076   7.599   3.102   2.643
 8712TIP3    H126077   7.572   3.021   2.600
 8712TIP3    H226078   7.592   3.083   2.736
 8713TIP3   OH226079   5.504   4.414   3.404
 8713TIP3    H126080   5.565   4.482   3.376
 8713TIP3    H226081   5.505   4.419   3.500
 8714TIP3   OH226082   6.106   0.741   1.480
 8714TIP3    H126083   6.033   0.688   1.447
 8714TIP3    H226084   6.133   0.795   1.406
 8715TIP3   OH226085   4.477   0.088   6.526
 8715TIP3    H126086   4.429   0.171   6.525
 8715TIP3    H226087   4.496   0.069   6.434
 8716TIP3   OH226088   4.053   0.955   3.827
 8716TIP3    H126089   4.004   1.009   3.764
 8716TIP3    H226090   4.018   0.867   3.816
 8717TIP3   OH226091   6.948   4.579   6.532
 8717TIP3    H126092   6.926   4.663   6.490
 8717TIP3    H226093   6.966   4.520   6.459
 8718TIP3   OH226094   7.005   4.587   1.946
 8718TIP3    H126095   7.037   4.531   1.875
 8718TIP3    H226096   6.973   4.666   1.902
 8719TIP3   OH226097   0.073   4.004   6.685
 8719TIP3    H126098   0.006   4.026   6.620
 8719TIP3    H226099   0.095   4.087   6.726
 8720TIP3   OH226100   4.545   3.775   1.586
 8720TIP3    H126101   4.461   3.795   1.627
 8720TIP3    H226102   4.523   3.744   1.499
 8721TIP3   OH226103   8.359   3.488   5.964
 8721TIP3    H126104   8.380   3.397   5.943
 8721TIP3    H226105   8.297   3.514   5.895
 8722TIP3   OH226106   2.210   5.109   3.039
 8722TIP3    H126107   2.152   5.033   3.050
 8722TIP3    H226108   2.284   5.076   2.988
 8723TIP3   OH226109   1.907   3.228   6.712
 8723TIP3    H126110   1.915   3.242   6.806
 8723TIP3    H226111   1.813   3.222   6.696
 8724TIP3   OH226112   6.695   6.104   4.922
 8724TIP3    H126113   6.741   6.165   4.979
 8724TIP3    H226114   6.731   6.018   4.945
 8725TIP3   OH226115   5.817   3.489   0.760
 8725TIP3    H126116   5.738   3.541   0.773
 8725TIP3    H226117   5.787   3.398   0.769
 8726TIP3   OH226118   2.384   2.095   5.681
 8726TIP3    H126119   2.451   2.162   5.695
 8726TIP3    H226120   2.428   2.028   5.628
 8727TIP3   OH226121   3.912   4.053   1.581
 8727TIP3    H126122   3.942   4.064   1.671
 8727TIP3    H226123   3.868   4.136   1.561
 8728TIP3   OH226124   4.832   1.694   2.260
 8728TIP3    H126125   4.910   1.688   2.315
 8728TIP3    H226126   4.765   1.644   2.306
 8729TIP3   OH226127   5.324   2.330   4.395
 8729TIP3    H126128   5.261   2.313   4.325
 8729TIP3    H226129   5.369   2.247   4.409
 8730TIP3   OH226130   4.768   5.048   2.476
 8730TIP3    H126131   4.755   4.969   2.423
 8730TIP3    H226132   4.818   5.018   2.552
 8731TIP3   OH226133   4.644   6.374   5.316
 8731TIP3    H126134   4.620   6.343   5.403
 8731TIP3    H226135   4.560   6.387   5.271
 8732TIP3   OH226136   2.474   0.758   0.766
 8732TIP3    H126137   2.451   0.848   0.743
 8732TIP3    H226138   2.395   0.708   0.747
 8733TIP3   OH226139   2.324   3.792   0.686
 8733TIP3    H126140   2.296   3.750   0.605
 8733TIP3    H226141   2.419   3.782   0.686
 8734TIP3   OH226142   8.001   2.397   0.940
 8734TIP3    H126143   8.082   2.425   0.898
 8734TIP3    H226144   7.999   2.302   0.929
 8735TIP3   OH226145   6.752   6.621   6.258
 8735TIP3    H126146   6.812   6.688   6.290
 8735TIP3    H226147   6.800   6.539   6.269
 8736TIP3   OH226148   5.196   0.087   2.977
 8736TIP3    H126149   5.108   0.109   2.946
 8736TIP3    H226150   5.192  -0.007   2.993
 8737TIP3   OH226151   0.883   5.750   5.340
 8737TIP3    H126152   0.800   5.769   5.384
 8737TIP3    H226153   0.944   5.815   5.376
 8738TIP3   OH226154   4.763   4.220   4.292
 8738TIP3    H126155   4.808   4.223   4.376
 8738TIP3    H226156   4.683   4.271   4.305
 8739TIP3   OH226157   2.909   1.852   0.393
 8739TIP3    H126158   2.975   1.837   0.461
 8739TIP3    H226159   2.923   1.943   0.366
 8740TIP3   OH226160   6.909   4.588   4.004
 8740TIP3    H126161   6.916   4.577   3.909
 8740TIP3    H226162   6.927   4.501   4.039
 8741TIP3   OH226163   5.305   1.823   0.606
 8741TIP3    H126164   5.244   1.858   0.671
 8741TIP3    H226165   5.328   1.736   0.639
 8742TIP3   OH226166   4.875   7.106   0.638
 8742TIP3    H126167   4.926   7.139   0.712
 8742TIP3    H226168   4.917   7.143   0.560
 8743TIP3   OH226169   6.392   1.933   3.979
 8743TIP3    H126170   6.355   2.021   3.971
 8743TIP3    H226171   6.319   1.874   3.962
 8744TIP3   OH226172   4.429   0.354   2.555
 8744TIP3    H126173   4.459   0.313   2.635
 8744TIP3    H226174   4.364   0.418   2.583
 8745TIP3   OH226175   7.079   6.420   6.520
 8745TIP3    H126176   7.022   6.471   6.578
 8745TIP3    H226177   7.153   6.395   6.574
 8746TIP3   OH226178   6.471   7.755   1.338
 8746TIP3    H126179   6.381   7.781   1.359
 8746TIP3    H226180   6.480   7.668   1.376
 8747TIP3   OH226181   3.499   6.661   3.706
 8747TIP3    H126182   3.411   6.676   3.738
 8747TIP3    H226183   3.491   6.666   3.610
 8748TIP3   OH226184   0.200   1.309   2.656
 8748TIP3    H126185   0.169   1.352   2.736
 8748TIP3    H226186   0.270   1.365   2.623
 8749TIP3   OH226187   5.257   3.728   6.514
 8749TIP3    H126188   5.257   3.683   6.430
 8749TIP3    H226189   5.329   3.791   6.507
 8750TIP3   OH226190   1.458   1.935   6.718
 8750TIP3    H126191   1.454   1.879   6.641
 8750TIP3    H226192   1.389   2.000   6.705
 8751TIP3   OH226193   5.777   0.972   1.876
 8751TIP3    H126194   5.871   0.966   1.887
 8751TIP3    H226195   5.741   0.952   1.963
 8752TIP3   OH226196   4.541   0.650   0.537
 8752TIP3    H126197   4.551   0.712   0.610
 8752TIP3    H226198   4.611   0.586   0.550
 8753TIP3   OH226199   5.215   3.115   0.589
 8753TIP3    H126200   5.119   3.113   0.586
 8753TIP3    H226201   5.239   3.045   0.649
 8754TIP3   OH226202   5.684   4.095   5.582
 8754TIP3    H126203   5.597   4.064   5.607
 8754TIP3    H226204   5.739   4.017   5.582
 8755TIP3   OH226205   3.560   6.301   0.743
 8755TIP3    H126206   3.639   6.341   0.707
 8755TIP3    H226207   3.525   6.366   0.804
 8756TIP3   OH226208   1.819   3.364   3.244
 8756TIP3    H126209   1.771   3.285   3.269
 8756TIP3    H226210   1.785   3.386   3.157
 8757TIP3   OH226211   7.883   5.763   1.817
 8757TIP3    H126212   7.889   5.858   1.804
 8757TIP3    H226213   7.828   5.753   1.895
 8758TIP3   OH226214   6.916   1.195   4.641
 8758TIP3    H126215   6.973   1.204   4.717
 8758TIP3    H226216   6.839   1.248   4.662
 8759TIP3   OH226217   5.620   3.089   2.353
 8759TIP3    H126218   5.666   3.071   2.271
 8759TIP3    H226219   5.688   3.080   2.420
 8760TIP3   OH226220   6.304   6.676   5.663
 8760TIP3    H126221   6.337   6.763   5.686
 8760TIP3    H226222   6.372   6.640   5.606
 8761TIP3   OH226223   2.810   2.893   6.113
 8761TIP3    H126224   2.864   2.930   6.183
 8761TIP3    H226225   2.851   2.808   6.095
 8762TIP3   OH226226   7.707   4.277   1.809
 8762TIP3    H126227   7.641   4.344   1.795
 8762TIP3    H226228   7.780   4.324   1.850
 8763TIP3   OH226229   5.980   1.659   3.452
 8763TIP3    H126230   5.947   1.624   3.370
 8763TIP3    H226231   5.933   1.741   3.464
 8764TIP3   OH226232   1.313   6.041   5.838
 8764TIP3    H126233   1.280   5.997   5.760
 8764TIP3    H226234   1.363   6.116   5.805
 8765TIP3   OH226235   7.507   1.538   4.591
 8765TIP3    H126236   7.516   1.630   4.564
 8765TIP3    H226237   7.508   1.541   4.686
 8766TIP3   OH226238   8.228   3.529   5.719
 8766TIP3    H126239   8.270   3.607   5.681
 8766TIP3    H226240   8.232   3.463   5.650
 8767TIP3   OH226241   2.211   0.568   2.552
 8767TIP3    H126242   2.121   0.538   2.538
 8767TIP3    H226243   2.218   0.648   2.500
 8768TIP3   OH226244   7.074   7.835   3.713
 8768TIP3    H126245   7.051   7.763   3.771
 8768TIP3    H226246   7.081   7.912   3.770
 8769TIP3   OH226247   4.771   0.476   6.088
 8769TIP3    H126248   4.750   0.434   6.004
 8769TIP3    H226249   4.761   0.407   6.153
 8770TIP3   OH226250   5.118   1.210   5.829
 8770TIP3    H126251   5.185   1.220   5.896
 8770TIP3    H226252   5.037   1.195   5.878
 8771TIP3   OH226253   7.466   5.755   4.950
 8771TIP3    H126254   7.456   5.850   4.954
 8771TIP3    H226255   7.474   5.736   4.857
 8772TIP3   OH226256   4.094   5.335   3.764
 8772TIP3    H126257   4.003   5.312   3.745
 8772TIP3    H226258   4.135   5.252   3.789
 8773TIP3   OH226259   2.722   7.641   2.728
 8773TIP3    H126260   2.802   7.666   2.774
 8773TIP3    H226261   2.752   7.594   2.651
 8774TIP3   OH226262   0.367   6.424   4.212
 8774TIP3    H126263   0.357   6.334   4.181
 8774TIP3    H226264   0.443   6.420   4.271
 8775TIP3   OH226265   1.860   4.559   2.244
 8775TIP3    H126266   1.777   4.518   2.268
 8775TIP3    H226267   1.916   4.486   2.219
 8776TIP3   OH226268   0.954   1.653   2.592
 8776TIP3    H126269   1.004   1.686   2.517
 8776TIP3    H226270   0.869   1.695   2.585
 8777TIP3   OH226271   3.632   2.958   2.054
 8777TIP3    H126272   3.638   2.865   2.034
 8777TIP3    H226273   3.540   2.980   2.041
 8778TIP3   OH226274   1.378   5.559   4.061
 8778TIP3    H126275   1.473   5.563   4.056
 8778TIP3    H226276   1.348   5.624   3.997
 8779TIP3   OH226277   1.763   2.002   4.919
 8779TIP3    H126278   1.731   2.002   4.828
 8779TIP3    H226279   1.785   2.093   4.937
 8780TIP3   OH226280   2.641   5.496   0.693
 8780TIP3    H126281   2.546   5.496   0.707
 8780TIP3    H226282   2.667   5.587   0.704
 8781TIP3   OH226283   0.499   6.564   2.607
 8781TIP3    H126284   0.514   6.469   2.604
 8781TIP3    H226285   0.525   6.595   2.520
 8782TIP3   OH226286   1.398   2.567   0.766
 8782TIP3    H126287   1.454   2.490   0.760
 8782TIP3    H226288   1.459   2.641   0.765
 8783TIP3   OH226289   5.564   4.713   4.356
 8783TIP3    H126290   5.603   4.692   4.270
 8783TIP3    H226291   5.475   4.677   4.351
 8784TIP3   OH226292   4.769   1.772   4.635
 8784TIP3    H126293   4.733   1.688   4.608
 8784TIP3    H226294   4.834   1.750   4.702
 8785TIP3   OH226295   2.961   5.228   0.654
 8785TIP3    H126296   2.907   5.159   0.692
 8785TIP3    H226297   2.904   5.271   0.590
 8786TIP3   OH226298   0.222   2.611   3.526
 8786TIP3    H126299   0.193   2.676   3.590
 8786TIP3    H226300   0.202   2.650   3.441
 8787TIP3   OH226301   1.263   5.052   6.040
 8787TIP3    H126302   1.339   4.995   6.038
 8787TIP3    H226303   1.297   5.138   6.066
 8788TIP3   OH226304   6.967   1.588   3.925
 8788TIP3    H126305   6.987   1.501   3.961
 8788TIP3    H226306   6.908   1.628   3.990
 8789TIP3   OH226307   2.046   7.468   1.966
 8789TIP3    H126308   2.012   7.404   2.029
 8789TIP3    H226309   1.980   7.471   1.897
 8790TIP3   OH226310   3.429   0.884   4.707
 8790TIP3    H126311   3.448   0.796   4.675
 8790TIP3    H226312   3.368   0.919   4.642
 8791TIP3   OH226313   6.966   2.126   6.141
 8791TIP3    H126314   7.029   2.198   6.135
 8791TIP3    H226315   6.990   2.080   6.221
 8792TIP3   OH226316   3.771   3.927   2.628
 8792TIP3    H126317   3.744   3.836   2.626
 8792TIP3    H226318   3.756   3.956   2.718
 8793TIP3   OH226319   3.543   6.157   1.174
 8793TIP3    H126320   3.515   6.198   1.092
 8793TIP3    H226321   3.530   6.063   1.160
 8794TIP3   OH226322   1.788   3.243   0.266
 8794TIP3    H126323   1.798   3.149   0.283
 8794TIP3    H226324   1.697   3.261   0.286
 8795TIP3   OH226325   1.286   0.385   6.545
 8795TIP3    H126326   1.288   0.291   6.565
 8795TIP3    H226327   1.315   0.427   6.626
 8796TIP3   OH226328   2.688   1.532   4.841
 8796TIP3    H126329   2.732   1.591   4.780
 8796TIP3    H226330   2.711   1.563   4.928
 8797TIP3   OH226331   0.658   1.389   1.283
 8797TIP3    H126332   0.604   1.445   1.227
 8797TIP3    H226333   0.622   1.401   1.371
 8798TIP3   OH226334   3.474   7.606   4.338
 8798TIP3    H126335   3.567   7.594   4.323
 8798TIP3    H226336   3.464   7.700   4.354
 8799TIP3   OH226337   2.402   7.282   3.104
 8799TIP3    H126338   2.419   7.199   3.148
 8799TIP3    H226339   2.307   7.292   3.107
 8800TIP3   OH226340   1.299   5.944   2.674
 8800TIP3    H126341   1.257   5.998   2.607
 8800TIP3    H226342   1.392   5.958   2.661
 8801TIP3   OH226343   5.104   6.526   2.814
 8801TIP3    H126344   5.143   6.475   2.743
 8801TIP3    H226345   5.080   6.610   2.774
 8802TIP3   OH226346   1.484   7.708   6.333
 8802TIP3    H126347   1.516   7.645   6.268
 8802TIP3    H226348   1.432   7.771   6.283
 8803TIP3   OH226349   2.356   2.434   2.563
 8803TIP3    H126350   2.408   2.354   2.563
 8803TIP3    H226351   2.311   2.433   2.479
 8804TIP3   OH226352   3.858   0.797   3.474
 8804TIP3    H126353   3.850   0.799   3.569
 8804TIP3    H226354   3.777   0.837   3.442
 8805TIP3   OH226355   2.056   3.518   6.501
 8805TIP3    H126356   2.118   3.553   6.436
 8805TIP3    H226357   1.975   3.505   6.452
 8806TIP3   OH226358   4.176   6.178   5.640
 8806TIP3    H126359   4.100   6.230   5.617
 8806TIP3    H226360   4.251   6.228   5.609
 8807TIP3   OH226361   0.684   1.137   1.170
 8807TIP3    H126362   0.602   1.147   1.121
 8807TIP3    H226363   0.685   1.212   1.230
 8808TIP3   OH226364   1.380   1.268   3.879
 8808TIP3    H126365   1.286   1.282   3.885
 8808TIP3    H226366   1.396   1.192   3.935
 8809TIP3   OH226367   6.312   2.126   1.777
 8809TIP3    H126368   6.256   2.056   1.746
 8809TIP3    H226369   6.256   2.204   1.778
 8810TIP3   OH226370   6.755   3.741   6.535
 8810TIP3    H126371   6.709   3.728   6.618
 8810TIP3    H226372   6.846   3.720   6.555
 8811TIP3   OH226373   7.256   7.051   4.016
 8811TIP3    H126374   7.162   7.056   4.028
 8811TIP3    H226375   7.286   6.990   4.083
 8812TIP3   OH226376   0.856   0.448   0.704
 8812TIP3    H126377   0.840   0.395   0.782
 8812TIP3    H226378   0.860   0.385   0.632
 8813TIP3   OH226379   4.420   6.848   2.735
 8813TIP3    H126380   4.367   6.905   2.791
 8813TIP3    H226381   4.480   6.908   2.691
 8814TIP3   OH226382   7.837   4.367   2.575
 8814TIP3    H126383   7.851   4.410   2.659
 8814TIP3    H226384   7.887   4.286   2.581
 8815TIP3   OH226385   1.828   6.744   3.397
 8815TIP3    H126386   1.904   6.687   3.389
 8815TIP3    H226387   1.780   6.709   3.472
 8816TIP3   OH226388   4.680   7.292   6.574
 8816TIP3    H126389   4.731   7.345   6.635
 8816TIP3    H226390   4.589   7.302   6.604
 8817TIP3   OH226391   3.243   7.249   4.886
 8817TIP3    H126392   3.177   7.316   4.905
 8817TIP3    H226393   3.309   7.260   4.955
 8818TIP3   OH226394   4.657   0.443   5.403
 8818TIP3    H126395   4.595   0.391   5.351
 8818TIP3    H226396   4.607   0.468   5.481
 8819TIP3   OH226397   3.034   6.121   1.194
 8819TIP3    H126398   2.956   6.133   1.140
 8819TIP3    H226399   3.006   6.147   1.282
 8820TIP3   OH226400   3.432   5.288   4.455
 8820TIP3    H126401   3.452   5.199   4.484
 8820TIP3    H226402   3.337   5.289   4.443
 8821TIP3   OH226403   4.215   3.958   5.827
 8821TIP3    H126404   4.213   4.047   5.791
 8821TIP3    H226405   4.132   3.920   5.800
 8822TIP3   OH226406   6.106   2.856   1.380
 8822TIP3    H126407   6.085   2.947   1.403
 8822TIP3    H226408   6.175   2.864   1.314
 8823TIP3   OH226409   6.767   7.580   1.012
 8823TIP3    H126410   6.761   7.576   1.108
 8823TIP3    H226411   6.773   7.488   0.985
 8824TIP3   OH226412   0.573   3.757   4.906
 8824TIP3    H126413   0.514   3.813   4.855
 8824TIP3    H226414   0.522   3.734   4.984
 8825TIP3   OH226415   0.132   2.452   5.188
 8825TIP3    H126416   0.080   2.433   5.266
 8825TIP3    H226417   0.186   2.373   5.176
 8826TIP3   OH226418   4.011   7.715   0.942
 8826TIP3    H126419   4.074   7.691   1.011
 8826TIP3    H226420   3.969   7.632   0.919
 8827TIP3   OH226421   6.343   3.888   6.669
 8827TIP3    H126422   6.266   3.869   6.614
 8827TIP3    H226423   6.386   3.961   6.624
 8828TIP3   OH226424   4.956   6.749   1.979
 8828TIP3    H126425   4.982   6.715   2.065
 8828TIP3    H226426   4.863   6.771   1.989
 8829TIP3   OH226427   8.139   1.971   4.573
 8829TIP3    H126428   8.210   2.033   4.563
 8829TIP3    H226429   8.108   1.984   4.663
 8830TIP3   OH226430   2.361   6.889   3.044
 8830TIP3    H126431   2.421   6.821   3.012
 8830TIP3    H226432   2.292   6.893   2.978
 8831TIP3   OH226433   7.138   1.337   4.096
 8831TIP3    H126434   7.147   1.254   4.048
 8831TIP3    H226435   7.085   1.315   4.172
 8832TIP3   OH226436   5.332   4.868   4.488
 8832TIP3    H126437   5.266   4.823   4.434
 8832TIP3    H226438   5.396   4.902   4.424
 8833TIP3   OH226439   0.872   4.852   5.048
 8833TIP3    H126440   0.886   4.921   4.983
 8833TIP3    H226441   0.860   4.772   4.996
 8834TIP3   OH226442   3.573   4.699   6.646
 8834TIP3    H126443   3.483   4.668   6.653
 8834TIP3    H226444   3.604   4.662   6.563
 8835TIP3   OH226445   3.837   5.973   1.422
 8835TIP3    H126446   3.896   5.898   1.430
 8835TIP3    H226447   3.786   5.972   1.504
 8836TIP3   OH226448   6.665   2.364   0.165
 8836TIP3    H126449   6.604   2.334   0.233
 8836TIP3    H226450   6.705   2.443   0.202
 8837TIP3   OH226451   8.047   0.274   2.739
 8837TIP3    H126452   8.123   0.216   2.744
 8837TIP3    H226453   8.070   0.348   2.796
 8838TIP3   OH226454   4.043   1.235   4.892
 8838TIP3    H126455   4.118   1.252   4.835
 8838TIP3    H226456   4.071   1.162   4.948
 8839TIP3   OH226457   4.452   1.670   5.109
 8839TIP3    H126458   4.422   1.761   5.105
 8839TIP3    H226459   4.378   1.619   5.076
 8840TIP3   OH226460   8.250   1.637   6.557
 8840TIP3    H126461   8.296   1.705   6.507
 8840TIP3    H226462   8.260   1.664   6.648
 8841TIP3   OH226463   2.023   5.986   0.462
 8841TIP3    H126464   2.032   6.067   0.512
 8841TIP3    H226465   1.994   5.921   0.526
 8842TIP3   OH226466   1.422   5.529   4.868
 8842TIP3    H126467   1.398   5.479   4.946
 8842TIP3    H226468   1.340   5.537   4.820
 8843TIP3   OH226469   0.414   5.143   5.709
 8843TIP3    H126470   0.338   5.087   5.725
 8843TIP3    H226471   0.460   5.147   5.793
 8844TIP3   OH226472   0.793   2.623   6.393
 8844TIP3    H126473   0.751   2.692   6.443
 8844TIP3    H226474   0.768   2.542   6.438
 8845TIP3   OH226475   1.074   1.177   0.709
 8845TIP3    H126476   1.116   1.118   0.772
 8845TIP3    H226477   1.064   1.125   0.630
 8846TIP3   OH226478   8.023   4.855   1.449
 8846TIP3    H126479   7.938   4.898   1.442
 8846TIP3    H226480   8.017   4.803   1.529
 8847TIP3   OH226481   5.642   0.292   4.702
 8847TIP3    H126482   5.664   0.316   4.612
 8847TIP3    H226483   5.617   0.374   4.743
 8848TIP3   OH226484   3.974   5.892   2.900
 8848TIP3    H126485   3.917   5.861   2.829
 8848TIP3    H226486   4.024   5.963   2.860
 8849TIP3   OH226487   1.706   7.609   4.587
 8849TIP3    H126488   1.644   7.659   4.641
 8849TIP3    H226489   1.764   7.674   4.549
 8850TIP3   OH226490   0.367   3.732   5.130
 8850TIP3    H126491   0.290   3.700   5.082
 8850TIP3    H226492   0.388   3.663   5.192
 8851TIP3   OH226493   2.509   0.107   5.796
 8851TIP3    H126494   2.440   0.044   5.818
 8851TIP3    H226495   2.465   0.172   5.741
 8852TIP3   OH226496   3.445   0.535   2.159
 8852TIP3    H126497   3.524   0.588   2.171
 8852TIP3    H226498   3.473   0.463   2.102
 8853TIP3   OH226499   8.094   0.431   5.604
 8853TIP3    H126500   8.144   0.481   5.540
 8853TIP3    H226501   8.090   0.488   5.681
 8854TIP3   OH226502   0.259   3.024   1.286
 8854TIP3    H126503   0.266   2.995   1.195
 8854TIP3    H226504   0.165   3.035   1.301
 8855TIP3   OH226505   6.063   6.815   0.771
 8855TIP3    H126506   6.056   6.796   0.865
 8855TIP3    H226507   6.100   6.903   0.767
 8856TIP3   OH226508   0.761   6.951   1.397
 8856TIP3    H126509   0.749   6.857   1.412
 8856TIP3    H226510   0.708   6.969   1.320
 8857TIP3   OH226511   0.334   1.351   6.488
 8857TIP3    H126512   0.308   1.347   6.396
 8857TIP3    H226513   0.305   1.268   6.526
 8858TIP3   OH226514   4.915   6.406   0.918
 8858TIP3    H126515   4.947   6.316   0.911
 8858TIP3    H226516   4.950   6.450   0.840
 8859TIP3   OH226517   8.178   0.600   1.857
 8859TIP3    H126518   8.159   0.585   1.764
 8859TIP3    H226519   8.272   0.584   1.866
 8860TIP3   OH226520   7.064   3.719   1.881
 8860TIP3    H126521   7.007   3.701   1.956
 8860TIP3    H226522   7.137   3.768   1.918
 8861TIP3   OH226523   4.639   4.753   6.211
 8861TIP3    H126524   4.697   4.746   6.287
 8861TIP3    H226525   4.675   4.826   6.160
 8862TIP3   OH226526   4.416   5.429   1.606
 8862TIP3    H126527   4.510   5.434   1.591
 8862TIP3    H226528   4.407   5.421   1.701
 8863TIP3   OH226529   1.154   5.390   4.776
 8863TIP3    H126530   1.189   5.363   4.861
 8863TIP3    H226531   1.090   5.458   4.798
 8864TIP3   OH226532   3.153   3.411   5.338
 8864TIP3    H126533   3.122   3.334   5.385
 8864TIP3    H226534   3.248   3.403   5.339
 8865TIP3   OH226535   7.960   6.694   5.862
 8865TIP3    H126536   7.894   6.734   5.805
 8865TIP3    H226537   7.938   6.601   5.863
 8866TIP3   OH226538   0.038   1.930   5.434
 8866TIP3    H126539  -0.031   1.867   5.456
 8866TIP3    H226540   0.074   1.956   5.519
 8867TIP3   OH226541   5.214   3.666   5.614
 8867TIP3    H126542   5.172   3.647   5.698
 8867TIP3    H226543   5.151   3.720   5.567
 8868TIP3   OH226544   6.912   3.100   3.956
 8868TIP3    H126545   6.904   3.143   4.041
 8868TIP3    H226546   6.948   3.167   3.898
 8869TIP3   OH226547   1.816   3.856   3.956
 8869TIP3    H126548   1.902   3.892   3.935
 8869TIP3    H226549   1.802   3.788   3.891
 8870TIP3   OH226550   7.875   1.194   6.232
 8870TIP3    H126551   7.886   1.259   6.163
 8870TIP3    H226552   7.929   1.227   6.304
 8871TIP3   OH226553   3.904   2.091   1.878
 8871TIP3    H126554   3.886   2.138   1.959
 8871TIP3    H226555   3.989   2.050   1.892
 8872TIP3   OH226556   1.446   6.138   3.855
 8872TIP3    H126557   1.419   6.047   3.843
 8872TIP3    H226558   1.365   6.185   3.872
 8873TIP3   OH226559   3.048   1.445   0.708
 8873TIP3    H126560   2.996   1.444   0.788
 8873TIP3    H226561   2.985   1.465   0.638
 8874TIP3   OH226562   1.395   7.051   5.697
 8874TIP3    H126563   1.405   7.139   5.660
 8874TIP3    H226564   1.360   6.999   5.624
 8875TIP3   OH226565   3.792   0.634   2.728
 8875TIP3    H126566   3.867   0.613   2.783
 8875TIP3    H226567   3.748   0.706   2.774
 8876TIP3   OH226568   6.738   0.326   3.333
 8876TIP3    H126569   6.648   0.351   3.312
 8876TIP3    H226570   6.739   0.317   3.428
 8877TIP3   OH226571   6.759   7.747   4.684
 8877TIP3    H126572   6.689   7.805   4.714
 8877TIP3    H226573   6.832   7.806   4.665
 8878TIP3   OH226574   7.886   4.833   3.987
 8878TIP3    H126575   7.839   4.761   3.944
 8878TIP3    H226576   7.903   4.801   4.075
 8879TIP3   OH226577   4.921   2.105   1.760
 8879TIP3    H126578   4.843   2.082   1.811
 8879TIP3    H226579   4.964   2.022   1.743
 8880TIP3   OH226580   8.054   0.239   4.556
 8880TIP3    H126581   8.127   0.179   4.567
 8880TIP3    H226582   7.979   0.183   4.534
 8881TIP3   OH226583   5.729   0.874   0.449
 8881TIP3    H126584   5.654   0.933   0.443
 8881TIP3    H226585   5.691   0.788   0.468
 8882TIP3   OH226586   8.409   3.105   4.724
 8882TIP3    H126587   8.331   3.084   4.774
 8882TIP3    H226588   8.382   3.176   4.666
 8883TIP3   OH226589   4.974   1.636   1.408
 8883TIP3    H126590   5.046   1.694   1.432
 8883TIP3    H226591   4.989   1.615   1.316
 8884TIP3   OH226592   1.950   4.426   4.627
 8884TIP3    H126593   1.877   4.483   4.603
 8884TIP3    H226594   1.917   4.337   4.611
 8885TIP3   OH226595   6.708   5.003   2.904
 8885TIP3    H126596   6.663   5.085   2.928
 8885TIP3    H226597   6.759   5.026   2.826
 8886TIP3   OH226598   8.197   2.311   3.939
 8886TIP3    H126599   8.183   2.362   4.019
 8886TIP3    H226600   8.220   2.377   3.873
 8887TIP3   OH226601   1.308   4.750   6.231
 8887TIP3    H126602   1.383   4.764   6.289
 8887TIP3    H226603   1.340   4.690   6.164
 8888TIP3   OH226604   3.657   7.206   0.500
 8888TIP3    H126605   3.719   7.198   0.573
 8888TIP3    H226606   3.573   7.220   0.543
 8889TIP3   OH226607   8.233   2.399   2.595
 8889TIP3    H126608   8.232   2.482   2.642
 8889TIP3    H226609   8.261   2.334   2.660
 8890TIP3   OH226610   4.180   3.320   6.589
 8890TIP3    H126611   4.119   3.381   6.631
 8890TIP3    H226612   4.250   3.377   6.555
 8891TIP3   OH226613   7.389   6.977   2.099
 8891TIP3    H126614   7.448   7.052   2.111
 8891TIP3    H226615   7.438   6.902   2.134
 8892TIP3   OH226616   4.678   2.948   6.741
 8892TIP3    H126617   4.670   2.862   6.781
 8892TIP3    H226618   4.645   3.008   6.807
 8893TIP3   OH226619   5.151   0.892   2.554
 8893TIP3    H126620   5.207   0.951   2.503
 8893TIP3    H226621   5.076   0.876   2.496
 8894TIP3   OH226622   5.558   4.051   4.391
 8894TIP3    H126623   5.498   4.078   4.462
 8894TIP3    H226624   5.512   4.076   4.311
 8895TIP3   OH226625   3.463   7.504   1.444
 8895TIP3    H126626   3.530   7.437   1.458
 8895TIP3    H226627   3.406   7.498   1.522
 8896TIP3   OH226628   5.234   6.764   3.432
 8896TIP3    H126629   5.203   6.704   3.500
 8896TIP3    H226630   5.231   6.850   3.474
 8897TIP3   OH226631   7.482   7.803   3.176
 8897TIP3    H126632   7.445   7.889   3.191
 8897TIP3    H226633   7.449   7.777   3.090
 8898TIP3   OH226634   1.681   6.181   2.129
 8898TIP3    H126635   1.703   6.205   2.039
 8898TIP3    H226636   1.753   6.123   2.157
 8899TIP3   OH226637   7.756   3.185   5.011
 8899TIP3    H126638   7.664   3.193   4.985
 8899TIP3    H226639   7.752   3.166   5.105
 8900TIP3   OH226640   5.290   5.475   4.059
 8900TIP3    H126641   5.272   5.407   3.995
 8900TIP3    H226642   5.295   5.556   4.008
 8901TIP3   OH226643   5.970   4.586   6.463
 8901TIP3    H126644   5.979   4.531   6.385
 8901TIP3    H226645   6.023   4.664   6.443
 8902TIP3   OH226646   6.793   1.873   2.647
 8902TIP3    H126647   6.709   1.918   2.651
 8902TIP3    H226648   6.844   1.923   2.583
 8903TIP3   OH226649   4.653   6.397   6.193
 8903TIP3    H126650   4.637   6.447   6.113
 8903TIP3    H226651   4.655   6.463   6.262
 8904TIP3   OH226652   4.071   1.327   3.218
 8904TIP3    H126653   4.138   1.271   3.255
 8904TIP3    H226654   4.081   1.317   3.123
 8905TIP3   OH226655   4.853   5.210   3.907
 8905TIP3    H126656   4.856   5.183   3.815
 8905TIP3    H226657   4.892   5.297   3.908
 8906TIP3   OH226658   6.253   5.090   6.056
 8906TIP3    H126659   6.164   5.053   6.060
 8906TIP3    H226660   6.267   5.129   6.142
 8907TIP3   OH226661   1.475   1.750   4.375
 8907TIP3    H126662   1.536   1.739   4.448
 8907TIP3    H226663   1.421   1.826   4.399
 8908TIP3   OH226664   5.682   5.906   2.944
 8908TIP3    H126665   5.640   5.923   3.029
 8908TIP3    H226666   5.660   5.983   2.892
 8909TIP3   OH226667   2.179   3.921   3.544
 8909TIP3    H126668   2.215   4.002   3.509
 8909TIP3    H226669   2.192   3.926   3.638
 8910TIP3   OH226670   7.306   5.523   0.392
 8910TIP3    H126671   7.383   5.472   0.367
 8910TIP3    H226672   7.279   5.566   0.310
 8911TIP3   OH226673   3.221   3.667   6.001
 8911TIP3    H126674   3.233   3.728   6.073
 8911TIP3    H226675   3.215   3.722   5.923
 8912TIP3   OH226676   1.836   6.015   0.051
 8912TIP3    H126677   1.888   5.990  -0.026
 8912TIP3    H226678   1.849   5.944   0.114
 8913TIP3   OH226679   8.095   5.495   6.158
 8913TIP3    H126680   8.181   5.453   6.160
 8913TIP3    H226681   8.034   5.422   6.149
 8914TIP3   OH226682   3.800   6.895   0.217
 8914TIP3    H126683   3.771   6.891   0.308
 8914TIP3    H226684   3.748   6.965   0.178
 8915TIP3   OH226685   7.951   6.770   6.393
 8915TIP3    H126686   8.004   6.830   6.445
 8915TIP3    H226687   8.014   6.706   6.360
 8916TIP3   OH226688   1.651   2.608   3.608
 8916TIP3    H126689   1.600   2.530   3.629
 8916TIP3    H226690   1.716   2.614   3.678
 8917TIP3   OH226691   3.149   2.834   4.997
 8917TIP3    H126692   3.204   2.893   5.048
 8917TIP3    H226693   3.154   2.751   5.045
 8918TIP3   OH226694   7.134   5.804   1.490
 8918TIP3    H126695   7.189   5.870   1.531
 8918TIP3    H226696   7.174   5.789   1.405
 8919TIP3   OH226697   2.535   5.078   0.840
 8919TIP3    H126698   2.539   5.110   0.930
 8919TIP3    H226699   2.468   5.131   0.798
 8920TIP3   OH226700   1.558   5.357   0.109
 8920TIP3    H126701   1.515   5.411   0.043
 8920TIP3    H226702   1.489   5.301   0.144
 8921TIP3   OH226703   7.469   7.415   6.658
 8921TIP3    H126704   7.425   7.453   6.734
 8921TIP3    H226705   7.561   7.412   6.683
 8922TIP3   OH226706   4.179   6.779   5.576
 8922TIP3    H126707   4.160   6.849   5.640
 8922TIP3    H226708   4.272   6.788   5.558
 8923TIP3   OH226709   5.929   6.226   3.895
 8923TIP3    H126710   5.914   6.299   3.955
 8923TIP3    H226711   5.985   6.166   3.943
 8924TIP3   OH226712   3.779   2.786   1.302
 8924TIP3    H126713   3.850   2.795   1.238
 8924TIP3    H226714   3.814   2.826   1.381
 8925TIP3   OH226715   5.092   7.120   4.050
 8925TIP3    H126716   5.060   7.032   4.073
 8925TIP3    H226717   5.012   7.169   4.030
 8926TIP3   OH226718   0.692   3.510   2.371
 8926TIP3    H126719   0.739   3.573   2.426
 8926TIP3    H226720   0.757   3.442   2.352
 8927TIP3   OH226721   2.278   3.024   6.653
 8927TIP3    H126722   2.234   3.014   6.737
 8927TIP3    H226723   2.242   3.105   6.616
 8928TIP3   OH226724   7.256   1.873   3.029
 8928TIP3    H126725   7.297   1.955   3.003
 8928TIP3    H226726   7.173   1.899   3.069
 8929TIP3   OH226727   2.117   3.180   6.240
 8929TIP3    H126728   2.130   3.085   6.233
 8929TIP3    H226729   2.085   3.193   6.329
 8930TIP3   OH226730   1.934   5.236   5.590
 8930TIP3    H126731   1.892   5.305   5.539
 8930TIP3    H226732   2.022   5.269   5.607
 8931TIP3   OH226733   3.861   7.924   0.790
 8931TIP3    H126734   3.911   7.854   0.833
 8931TIP3    H226735   3.832   7.886   0.708
 8932TIP3   OH226736   4.955   6.316   5.466
 8932TIP3    H126737   4.996   6.286   5.385
 8932TIP3    H226738   4.896   6.245   5.491
 8933TIP3   OH226739   4.396   0.179   5.662
 8933TIP3    H126740   4.456   0.121   5.710
 8933TIP3    H226741   4.356   0.122   5.596
 8934TIP3   OH226742   2.306   2.766   3.318
 8934TIP3    H126743   2.254   2.805   3.388
 8934TIP3    H226744   2.371   2.833   3.296
 8935TIP3   OH226745   0.483   1.029   3.136
 8935TIP3    H126746   0.455   1.024   3.228
 8935TIP3    H226747   0.416   0.979   3.089
 8936TIP3   OH226748   3.784   4.113   0.429
 8936TIP3    H126749   3.707   4.091   0.483
 8936TIP3    H226750   3.755   4.097   0.339
 8937TIP3   OH226751   6.715   0.206   2.853
 8937TIP3    H126752   6.694   0.120   2.891
 8937TIP3    H226753   6.642   0.225   2.795
 8938TIP3   OH226754   3.686   1.010   4.312
 8938TIP3    H126755   3.757   1.043   4.366
 8938TIP3    H226756   3.723   1.001   4.225
 8939TIP3   OH226757   8.030   2.812   3.826
 8939TIP3    H126758   7.951   2.778   3.868
 8939TIP3    H226759   8.007   2.900   3.798
 8940TIP3   OH226760   3.189   7.357   2.765
 8940TIP3    H126761   3.267   7.412   2.757
 8940TIP3    H226762   3.211   7.276   2.720
 8941TIP3   OH226763   8.257   5.515   6.728
 8941TIP3    H126764   8.281   5.598   6.769
 8941TIP3    H226765   8.302   5.516   6.643
 8942TIP3   OH226766   4.771   5.139   4.679
 8942TIP3    H126767   4.758   5.212   4.618
 8942TIP3    H226768   4.822   5.175   4.751
 8943TIP3   OH226769   2.961   6.518   1.097
 8943TIP3    H126770   2.934   6.434   1.133
 8943TIP3    H226771   2.950   6.579   1.170
 8944TIP3   OH226772   6.770   5.927   6.794
 8944TIP3    H126773   6.828   6.003   6.788
 8944TIP3    H226774   6.756   5.901   6.702
 8945TIP3   OH226775   6.915   3.032   3.172
 8945TIP3    H126776   6.828   3.016   3.209
 8945TIP3    H226777   6.967   3.062   3.246
 8946TIP3   OH226778   8.264   6.872   3.952
 8946TIP3    H126779   8.314   6.792   3.940
 8946TIP3    H226780   8.284   6.901   4.041
 8947TIP3   OH226781   5.202   7.710   0.345
 8947TIP3    H126782   5.272   7.653   0.376
 8947TIP3    H226783   5.130   7.650   0.324
 8948TIP3   OH226784   0.091   2.928   4.478
 8948TIP3    H126785   0.076   3.010   4.524
 8948TIP3    H226786   0.084   2.951   4.385
 8949TIP3   OH226787   2.822   1.880   2.337
 8949TIP3    H126788   2.855   1.790   2.344
 8949TIP3    H226789   2.875   1.920   2.268
 8950TIP3   OH226790   6.897   3.372   4.975
 8950TIP3    H126791   6.884   3.446   4.917
 8950TIP3    H226792   6.988   3.345   4.959
 8951TIP3   OH226793   4.612   0.577   1.461
 8951TIP3    H126794   4.624   0.621   1.377
 8951TIP3    H226795   4.694   0.529   1.475
 8952TIP3   OH226796   2.816   3.213   0.119
 8952TIP3    H126797   2.881   3.148   0.146
 8952TIP3    H226798   2.836   3.290   0.171
 8953TIP3   OH226799   3.942   6.636   1.609
 8953TIP3    H126800   3.927   6.555   1.561
 8953TIP3    H226801   3.924   6.705   1.547
 8954TIP3   OH226802   5.212   6.934   1.181
 8954TIP3    H126803   5.198   6.943   1.087
 8954TIP3    H226804   5.287   6.990   1.200
 8955TIP3   OH226805   5.042   2.689   5.473
 8955TIP3    H126806   4.987   2.764   5.493
 8955TIP3    H226807   5.127   2.710   5.513
 8956TIP3   OH226808   2.811   0.220   1.565
 8956TIP3    H126809   2.841   0.251   1.651
 8956TIP3    H226810   2.855   0.277   1.502
 8957TIP3   OH226811   2.995   5.700   5.616
 8957TIP3    H126812   2.938   5.755   5.670
 8957TIP3    H226813   2.937   5.631   5.583
 8958TIP3   OH226814   3.860   2.923   1.533
 8958TIP3    H126815   3.949   2.945   1.561
 8958TIP3    H226816   3.811   2.913   1.616
 8959TIP3   OH226817   6.562   0.888   1.384
 8959TIP3    H126818   6.647   0.890   1.342
 8959TIP3    H226819   6.538   0.980   1.395
 8960TIP3   OH226820   2.881   7.720   3.369
 8960TIP3    H126821   2.936   7.653   3.408
 8960TIP3    H226822   2.848   7.680   3.288
 8961TIP3   OH226823   8.150   5.925   5.106
 8961TIP3    H126824   8.236   5.883   5.109
 8961TIP3    H226825   8.088   5.853   5.114
 8962TIP3   OH226826   0.251   0.205   1.015
 8962TIP3    H126827   0.294   0.120   1.007
 8962TIP3    H226828   0.160   0.184   1.035
 8963TIP3   OH226829   6.043   7.164   1.138
 8963TIP3    H126830   5.986   7.128   1.070
 8963TIP3    H226831   5.987   7.171   1.216
 8964TIP3   OH226832   5.261   1.919   1.185
 8964TIP3    H126833   5.207   1.942   1.110
 8964TIP3    H226834   5.343   1.967   1.172
 8965TIP3   OH226835   6.161   2.288   6.409
 8965TIP3    H126836   6.237   2.337   6.442
 8965TIP3    H226837   6.085   2.336   6.443
 8966TIP3   OH226838   0.083   4.737   3.213
 8966TIP3    H126839   0.122   4.693   3.288
 8966TIP3    H226840   0.092   4.830   3.232
 8967TIP3   OH226841   1.982   7.316   0.514
 8967TIP3    H126842   1.895   7.289   0.483
 8967TIP3    H226843   2.012   7.380   0.449
 8968TIP3   OH226844   0.708   3.177   2.547
 8968TIP3    H126845   0.756   3.201   2.467
 8968TIP3    H226846   0.664   3.257   2.574
 8969TIP3   OH226847   1.374   1.909   1.996
 8969TIP3    H126848   1.357   1.857   1.917
 8969TIP3    H226849   1.440   1.857   2.044
 8970TIP3   OH226850   4.604   2.132   6.540
 8970TIP3    H126851   4.667   2.086   6.595
 8970TIP3    H226852   4.622   2.102   6.451
 8971TIP3   OH226853   6.647   0.348   0.296
 8971TIP3    H126854   6.637   0.431   0.343
 8971TIP3    H226855   6.730   0.357   0.250
 8972TIP3   OH226856   3.586   6.962   4.370
 8972TIP3    H126857   3.641   7.028   4.328
 8972TIP3    H226858   3.548   7.007   4.445
 8973TIP3   OH226859   2.691   2.676   3.940
 8973TIP3    H126860   2.631   2.729   3.992
 8973TIP3    H226861   2.750   2.636   4.004
 8974TIP3   OH226862   2.931   4.832   5.042
 8974TIP3    H126863   2.942   4.738   5.048
 8974TIP3    H226864   2.936   4.851   4.948
 8975TIP3   OH226865   0.889   0.424   0.085
 8975TIP3    H126866   0.895   0.329   0.083
 8975TIP3    H226867   0.922   0.453   0.000
 8976TIP3   OH226868   0.317   1.785   0.893
 8976TIP3    H126869   0.326   1.878   0.911
 8976TIP3    H226870   0.276   1.749   0.972
 8977TIP3   OH226871   2.584   0.966   3.130
 8977TIP3    H126872   2.523   1.040   3.135
 8977TIP3    H226873   2.649   0.993   3.066
 8978TIP3   OH226874   1.163   4.438   1.903
 8978TIP3    H126875   1.205   4.357   1.930
 8978TIP3    H226876   1.073   4.412   1.881
 8979TIP3   OH226877   7.119   5.200   2.419
 8979TIP3    H126878   7.036   5.172   2.380
 8979TIP3    H226879   7.151   5.269   2.361
 8980TIP3   OH226880   0.287   3.246   5.355
 8980TIP3    H126881   0.262   3.339   5.356
 8980TIP3    H226882   0.235   3.208   5.285
 8981TIP3   OH226883   0.771   2.677   1.751
 8981TIP3    H126884   0.710   2.605   1.739
 8981TIP3    H226885   0.727   2.736   1.813
 8982TIP3   OH226886   3.627   5.842   5.173
 8982TIP3    H126887   3.606   5.885   5.090
 8982TIP3    H226888   3.676   5.764   5.148
 8983TIP3   OH226889   7.015   4.448   2.181
 8983TIP3    H126890   7.109   4.448   2.199
 8983TIP3    H226891   7.006   4.494   2.097
 8984TIP3   OH226892   0.779   5.675   1.128
 8984TIP3    H126893   0.853   5.733   1.146
 8984TIP3    H226894   0.758   5.637   1.213
 8985TIP3   OH226895   1.242   0.500   4.979
 8985TIP3    H126896   1.255   0.409   5.005
 8985TIP3    H226897   1.192   0.494   4.897
 8986TIP3   OH226898   0.377   4.868   5.547
 8986TIP3    H126899   0.306   4.902   5.600
 8986TIP3    H226900   0.413   4.795   5.598
 8987TIP3   OH226901   4.429   7.596   1.565
 8987TIP3    H126902   4.347   7.608   1.612
 8987TIP3    H226903   4.497   7.615   1.629
 8988TIP3   OH226904   4.544   1.603   3.878
 8988TIP3    H126905   4.470   1.653   3.842
 8988TIP3    H226906   4.529   1.605   3.973
 8989TIP3   OH226907   1.550   2.018   4.237
 8989TIP3    H126908   1.488   1.986   4.302
 8989TIP3    H226909   1.584   1.938   4.196
 8990TIP3   OH226910   5.491   3.312   6.598
 8990TIP3    H126911   5.507   3.402   6.628
 8990TIP3    H226912   5.457   3.322   6.509
 8991TIP3   OH226913   1.857   2.278   4.939
 8991TIP3    H126914   1.831   2.319   5.021
 8991TIP3    H226915   1.796   2.314   4.874
 8992TIP3   OH226916   6.357   1.044   4.969
 8992TIP3    H126917   6.438   1.021   4.924
 8992TIP3    H226918   6.333   1.130   4.932
 8993TIP3   OH226919   5.734   1.760   1.101
 8993TIP3    H126920   5.685   1.747   1.020
 8993TIP3    H226921   5.673   1.805   1.159
 8994TIP3   OH226922   7.356   2.653   2.328
 8994TIP3    H126923   7.363   2.715   2.401
 8994TIP3    H226924   7.443   2.614   2.322
 8995TIP3   OH226925   0.470   0.041   0.283
 8995TIP3    H126926   0.442   0.057   0.193
 8995TIP3    H226927   0.442   0.118   0.331
 8996TIP3   OH226928   1.132   0.953   2.911
 8996TIP3    H126929   1.073   1.017   2.873
 8996TIP3    H226930   1.217   0.969   2.868
 8997TIP3   OH226931   6.219   4.245   5.063
 8997TIP3    H126932   6.277   4.241   4.987
 8997TIP3    H226933   6.148   4.183   5.042
 8998TIP3   OH226934   3.684   7.235   6.493
 8998TIP3    H126935   3.688   7.324   6.458
 8998TIP3    H226936   3.739   7.238   6.571
 8999TIP3   OH226937   1.824   3.502   5.630
 8999TIP3    H126938   1.795   3.552   5.553
 8999TIP3    H226939   1.851   3.569   5.693
 9000TIP3   OH226940   4.584   6.234   1.947
 9000TIP3    H126941   4.671   6.193   1.944
 9000TIP3    H226942   4.525   6.163   1.973
 9001TIP3   OH226943   5.881   7.320   4.533
 9001TIP3    H126944   5.858   7.332   4.625
 9001TIP3    H226945   5.945   7.249   4.533
 9002TIP3   OH226946   1.756   4.925   0.939
 9002TIP3    H126947   1.723   4.841   0.907
 9002TIP3    H226948   1.833   4.943   0.884
 9003TIP3   OH226949   1.246   0.227   3.673
 9003TIP3    H126950   1.310   0.172   3.718
 9003TIP3    H226951   1.295   0.264   3.600
 9004TIP3   OH226952   0.404   2.839   5.869
 9004TIP3    H126953   0.430   2.908   5.930
 9004TIP3    H226954   0.355   2.777   5.922
 9005TIP3   OH226955   8.090   2.302   5.963
 9005TIP3    H126956   8.066   2.235   5.898
 9005TIP3    H226957   8.181   2.324   5.942
 9006TIP3   OH226958   5.422   6.718   1.070
 9006TIP3    H126959   5.475   6.752   1.142
 9006TIP3    H226960   5.481   6.657   1.024
 9007TIP3   OH226961   4.824   5.507   0.583
 9007TIP3    H126962   4.820   5.421   0.626
 9007TIP3    H226963   4.900   5.549   0.622
 9008TIP3   OH226964   4.788   3.896   2.708
 9008TIP3    H126965   4.829   3.977   2.736
 9008TIP3    H226966   4.763   3.853   2.790
 9009TIP3   OH226967   4.991   7.882   0.434
 9009TIP3    H126968   5.023   7.884   0.344
 9009TIP3    H226969   4.916   7.823   0.432
 9010TIP3   OH226970   3.928   0.324   6.127
 9010TIP3    H126971   4.012   0.360   6.156
 9010TIP3    H226972   3.883   0.398   6.086
 9011TIP3   OH226973   6.773   2.067   4.040
 9011TIP3    H126974   6.787   2.161   4.047
 9011TIP3    H226975   6.852   2.028   4.080
 9012TIP3   OH226976   6.932   6.626   6.675
 9012TIP3    H126977   6.863   6.692   6.668
 9012TIP3    H226978   7.000   6.667   6.729
 9013TIP3   OH226979   0.973   6.581   0.682
 9013TIP3    H126980   0.943   6.654   0.737
 9013TIP3    H226981   0.896   6.558   0.630
 9014TIP3   OH226982   1.128   4.068   3.934
 9014TIP3    H126983   1.134   4.039   4.025
 9014TIP3    H226984   1.208   4.116   3.918
 9015TIP3   OH226985   5.199   2.560   3.556
 9015TIP3    H126986   5.109   2.539   3.531
 9015TIP3    H226987   5.247   2.478   3.541
 9016TIP3   OH226988   2.425   6.701   0.645
 9016TIP3    H126989   2.429   6.795   0.627
 9016TIP3    H226990   2.517   6.674   0.649
 9017TIP3   OH226991   5.719   4.388   1.009
 9017TIP3    H126992   5.742   4.312   0.957
 9017TIP3    H226993   5.802   4.422   1.041
 9018TIP3   OH226994   8.169   7.699   5.893
 9018TIP3    H126995   8.098   7.744   5.849
 9018TIP3    H226996   8.200   7.760   5.960
 9019TIP3   OH226997   8.214   6.472   4.135
 9019TIP3    H126998   8.170   6.533   4.076
 9019TIP3    H226999   8.297   6.514   4.156
 9020TIP3   OH227000   3.995   0.338   2.473
 9020TIP3    H127001   4.009   0.430   2.449
 9020TIP3    H227002   3.959   0.342   2.561
 9021TIP3   OH227003   3.785   4.386   2.317
 9021TIP3    H127004   3.771   4.344   2.401
 9021TIP3    H227005   3.700   4.383   2.274
 9022TIP3   OH227006   2.458   7.146   5.044
 9022TIP3    H127007   2.416   7.068   5.080
 9022TIP3    H227008   2.481   7.122   4.954
 9023TIP3   OH227009   2.390   2.096   4.486
 9023TIP3    H127010   2.381   2.183   4.447
 9023TIP3    H227011   2.481   2.071   4.469
 9024TIP3   OH227012   2.669   2.999   0.073
 9024TIP3    H127013   2.604   3.027   0.137
 9024TIP3    H227014   2.715   3.080   0.050
 9025TIP3   OH227015   1.360   7.610   0.787
 9025TIP3    H127016   1.431   7.606   0.850
 9025TIP3    H227017   1.399   7.582   0.704
 9026TIP3   OH227018   8.339   7.229   5.547
 9026TIP3    H127019   8.411   7.182   5.587
 9026TIP3    H227020   8.260   7.187   5.581
 9027TIP3   OH227021   5.427   3.228   2.701
 9027TIP3    H127022   5.391   3.299   2.755
 9027TIP3    H227023   5.436   3.266   2.614
 9028TIP3   OH227024   0.958   5.222   4.025
 9028TIP3    H127025   0.898   5.148   4.035
 9028TIP3    H227026   1.013   5.219   4.103
 9029TIP3   OH227027   0.468   3.773   3.399
 9029TIP3    H127028   0.391   3.822   3.369
 9029TIP3    H227029   0.504   3.734   3.319
 9030TIP3   OH227030   7.378   3.904   4.839
 9030TIP3    H127031   7.469   3.930   4.857
 9030TIP3    H227032   7.363   3.829   4.895
 9031TIP3   OH227033   6.148   6.864   0.510
 9031TIP3    H127034   6.093   6.908   0.575
 9031TIP3    H227035   6.157   6.774   0.542
 9032TIP3   OH227036   7.767   1.402   1.252
 9032TIP3    H127037   7.845   1.367   1.208
 9032TIP3    H227038   7.792   1.491   1.278
 9033TIP3   OH227039   5.599   1.969   2.620
 9033TIP3    H127040   5.665   1.940   2.558
 9033TIP3    H227041   5.518   1.927   2.590
 9034TIP3   OH227042   3.136   2.731   0.699
 9034TIP3    H127043   3.137   2.819   0.663
 9034TIP3    H227044   3.206   2.730   0.764
 9035TIP3   OH227045   5.845   2.590   0.862
 9035TIP3    H127046   5.787   2.562   0.932
 9035TIP3    H227047   5.915   2.638   0.907
 9036TIP3   OH227048   4.599   6.717   2.936
 9036TIP3    H127049   4.611   6.771   3.014
 9036TIP3    H227050   4.533   6.763   2.885
 9037TIP3   OH227051   0.176   2.530   1.544
 9037TIP3    H127052   0.122   2.563   1.472
 9037TIP3    H227053   0.235   2.467   1.503
 9038TIP3   OH227054   3.205   2.189   3.078
 9038TIP3    H127055   3.248   2.108   3.052
 9038TIP3    H227056   3.207   2.188   3.173
 9039TIP3   OH227057   4.183   7.378   6.192
 9039TIP3    H127058   4.200   7.298   6.143
 9039TIP3    H227059   4.117   7.353   6.257
 9040TIP3   OH227060   3.933   7.811   6.606
 9040TIP3    H127061   3.861   7.748   6.607
 9040TIP3    H227062   3.980   7.791   6.525
 9041TIP3   OH227063   3.808   5.236   5.920
 9041TIP3    H127064   3.815   5.261   6.012
 9041TIP3    H227065   3.722   5.268   5.893
 9042TIP3   OH227066   4.090   1.696   1.584
 9042TIP3    H127067   4.122   1.782   1.609
 9042TIP3    H227068   4.168   1.640   1.585
 9043TIP3   OH227069   5.662   4.495   5.507
 9043TIP3    H127070   5.701   4.419   5.464
 9043TIP3    H227071   5.675   4.567   5.445
 9044TIP3   OH227072   0.421   0.179   3.488
 9044TIP3    H127073   0.434   0.235   3.565
 9044TIP3    H227074   0.331   0.196   3.462
 9045TIP3   OH227075   7.451   6.117   4.515
 9045TIP3    H127076   7.501   6.086   4.591
 9045TIP3    H227077   7.485   6.205   4.499
 9046TIP3   OH227078   8.008   1.710   0.707
 9046TIP3    H127079   7.916   1.688   0.718
 9046TIP3    H227080   8.037   1.737   0.795
 9047TIP3   OH227081   2.788   4.129   5.796
 9047TIP3    H127082   2.876   4.151   5.828
 9047TIP3    H227083   2.741   4.213   5.795
 9048TIP3   OH227084   6.434   0.234   2.475
 9048TIP3    H127085   6.450   0.239   2.570
 9048TIP3    H227086   6.454   0.321   2.442
 9049TIP3   OH227087   6.178   4.006   6.199
 9049TIP3    H127088   6.106   4.009   6.135
 9049TIP3    H227089   6.254   3.978   6.148
 9050TIP3   OH227090   4.825   5.811   3.157
 9050TIP3    H127091   4.783   5.799   3.242
 9050TIP3    H227092   4.915   5.838   3.179
 9051TIP3   OH227093   5.425   3.798   1.614
 9051TIP3    H127094   5.445   3.754   1.697
 9051TIP3    H227095   5.508   3.802   1.568
 9052TIP3   OH227096   0.161   7.057   5.663
 9052TIP3    H127097   0.249   7.070   5.628
 9052TIP3    H227098   0.174   7.001   5.740
 9053TIP3   OH227099   3.746   6.955   5.251
 9053TIP3    H127100   3.678   6.974   5.186
 9053TIP3    H227101   3.726   6.867   5.282
 9054TIP3   OH227102   5.916   0.612   1.966
 9054TIP3    H127103   5.979   0.608   1.894
 9054TIP3    H227104   5.836   0.575   1.930
 9055TIP3   OH227105   3.195   1.869   0.855
 9055TIP3    H127106   3.286   1.842   0.842
 9055TIP3    H227107   3.187   1.882   0.949
 9056TIP3   OH227108   6.391   3.747   3.093
 9056TIP3    H127109   6.468   3.726   3.040
 9056TIP3    H227110   6.410   3.710   3.179
 9057TIP3   OH227111   5.222   7.819   1.933
 9057TIP3    H127112   5.141   7.830   1.983
 9057TIP3    H227113   5.202   7.752   1.868
 9058TIP3   OH227114   4.886   4.584   1.767
 9058TIP3    H127115   4.835   4.630   1.701
 9058TIP3    H227116   4.838   4.598   1.849
 9059TIP3   OH227117   4.020   6.458   5.094
 9059TIP3    H127118   3.957   6.503   5.150
 9059TIP3    H227119   3.973   6.381   5.063
 9060TIP3   OH227120   0.862   1.687   5.318
 9060TIP3    H127121   0.822   1.611   5.274
 9060TIP3    H227122   0.799   1.758   5.305
 9061TIP3   OH227123   6.070   6.297   5.375
 9061TIP3    H127124   6.130   6.226   5.396
 9061TIP3    H227125   6.126   6.373   5.359
 9062TIP3   OH227126   7.494   3.314   3.971
 9062TIP3    H127127   7.485   3.300   3.877
 9062TIP3    H227128   7.502   3.225   4.008
 9063TIP3   OH227129   6.351   2.946   2.189
 9063TIP3    H127130   6.427   2.992   2.222
 9063TIP3    H227131   6.344   2.868   2.245
 9064TIP3   OH227132   7.130   5.577   3.445
 9064TIP3    H127133   7.148   5.624   3.526
 9064TIP3    H227134   7.037   5.558   3.448
 9065TIP3   OH227135   6.700   4.025   1.387
 9065TIP3    H127136   6.638   4.053   1.455
 9065TIP3    H227137   6.708   4.100   1.329
 9066TIP3   OH227138   4.681   4.896   4.727
 9066TIP3    H127139   4.760   4.860   4.767
 9066TIP3    H227140   4.705   4.986   4.704
 9067TIP3   OH227141   5.608   6.344   1.690
 9067TIP3    H127142   5.523   6.387   1.685
 9067TIP3    H227143   5.672   6.414   1.680
 9068TIP3   OH227144   4.019   6.781   4.101
 9068TIP3    H127145   4.034   6.837   4.024
 9068TIP3    H227146   4.048   6.833   4.175
 9069TIP3   OH227147   1.314   1.547   0.639
 9069TIP3    H127148   1.357   1.540   0.553
 9069TIP3    H227149   1.384   1.569   0.699
 9070TIP3   OH227150   1.492   3.576   1.155
 9070TIP3    H127151   1.431   3.511   1.121
 9070TIP3    H227152   1.569   3.526   1.181
 9071TIP3   OH227153   2.237   7.812   3.556
 9071TIP3    H127154   2.190   7.770   3.483
 9071TIP3    H227155   2.178   7.801   3.631
 9072TIP3   OH227156   4.709   1.242   0.368
 9072TIP3    H127157   4.663   1.320   0.336
 9072TIP3    H227158   4.645   1.197   0.423
 9073TIP3   OH227159   3.011   2.477   6.206
 9073TIP3    H127160   2.993   2.470   6.300
 9073TIP3    H227161   2.957   2.551   6.177
 9074TIP3   OH227162   5.743   3.424   5.380
 9074TIP3    H127163   5.684   3.351   5.362
 9074TIP3    H227164   5.817   3.410   5.321
 9075TIP3   OH227165   2.588   5.434   2.062
 9075TIP3    H127166   2.579   5.513   2.115
 9075TIP3    H227167   2.634   5.462   1.983
 9076TIP3   OH227168   8.223   0.809   5.773
 9076TIP3    H127169   8.187   0.880   5.826
 9076TIP3    H227170   8.177   0.731   5.803
 9077TIP3   OH227171   0.704   1.560   6.682
 9077TIP3    H127172   0.668   1.555   6.771
 9077TIP3    H227173   0.792   1.597   6.694
 9078TIP3   OH227174   7.494   2.867   5.362
 9078TIP3    H127175   7.544   2.790   5.389
 9078TIP3    H227176   7.405   2.850   5.394
 9079TIP3   OH227177   1.589   3.153   1.602
 9079TIP3    H127178   1.677   3.178   1.630
 9079TIP3    H227179   1.530   3.200   1.660
 9080TIP3   OH227180   4.145   3.520   0.712
 9080TIP3    H127181   4.187   3.600   0.743
 9080TIP3    H227182   4.216   3.469   0.672
 9081TIP3   OH227183   6.802   2.361   3.303
 9081TIP3    H127184   6.872   2.307   3.341
 9081TIP3    H227185   6.742   2.298   3.263
 9082TIP3   OH227186   7.561   4.131   6.705
 9082TIP3    H127187   7.501   4.170   6.640
 9082TIP3    H227188   7.636   4.102   6.653
 9083TIP3   OH227189   0.602   5.069   4.562
 9083TIP3    H127190   0.605   5.165   4.562
 9083TIP3    H227191   0.692   5.043   4.582
 9084TIP3   OH227192   5.702   7.590   1.450
 9084TIP3    H127193   5.716   7.680   1.423
 9084TIP3    H227194   5.641   7.596   1.524
 9085TIP3   OH227195   0.022   7.788   6.514
 9085TIP3    H127196   0.036   7.707   6.563
 9085TIP3    H227197   0.017   7.856   6.582
 9086TIP3   OH227198   3.403   2.015   5.860
 9086TIP3    H127199   3.438   2.040   5.945
 9086TIP3    H227200   3.310   1.997   5.877
 9087TIP3   OH227201   7.659   6.244   6.028
 9087TIP3    H127202   7.725   6.238   6.098
 9087TIP3    H227203   7.577   6.219   6.070
 9088TIP3   OH227204   1.240   6.746   1.104
 9088TIP3    H127205   1.251   6.775   1.014
 9088TIP3    H227206   1.194   6.662   1.097
 9089TIP3   OH227207   6.498   6.881   5.865
 9089TIP3    H127208   6.591   6.904   5.861
 9089TIP3    H227209   6.452   6.963   5.846
 9090TIP3   OH227210   3.901   3.506   6.233
 9090TIP3    H127211   3.972   3.567   6.251
 9090TIP3    H227212   3.917   3.434   6.295
 9091TIP3   OH227213   1.660   6.226   0.888
 9091TIP3    H127214   1.653   6.264   0.800
 9091TIP3    H227215   1.588   6.162   0.891
 9092TIP3   OH227216   2.060   1.801   2.297
 9092TIP3    H127217   2.078   1.722   2.247
 9092TIP3    H227218   2.145   1.845   2.304
 9093TIP3   OH227219   7.226   6.898   5.533
 9093TIP3    H127220   7.263   6.829   5.477
 9093TIP3    H227221   7.200   6.852   5.613
 9094TIP3   OH227222   0.695   0.011   2.397
 9094TIP3    H127223   0.780   0.000   2.354
 9094TIP3    H227224   0.695   0.102   2.428
 9095TIP3   OH227225   1.907   6.215   2.836
 9095TIP3    H127226   1.834   6.271   2.863
 9095TIP3    H227227   1.980   6.245   2.890
 9096TIP3   OH227228   4.306   3.755   0.222
 9096TIP3    H127229   4.345   3.671   0.245
 9096TIP3    H227230   4.323   3.764   0.128
 9097TIP3   OH227231   5.359   4.971   4.923
 9097TIP3    H127232   5.359   5.041   4.989
 9097TIP3    H227233   5.327   5.013   4.844
 9098TIP3   OH227234   7.070   4.010   1.529
 9098TIP3    H127235   7.153   4.052   1.549
 9098TIP3    H227236   7.074   3.990   1.436
 9099TIP3   OH227237   4.221   6.869   1.869
 9099TIP3    H127238   4.275   6.827   1.802
 9099TIP3    H227239   4.218   6.805   1.940
 9100TIP3   OH227240   6.616   7.227   4.264
 9100TIP3    H127241   6.643   7.136   4.250
 9100TIP3    H227242   6.621   7.267   4.178
 9101TIP3   OH227243   2.385   5.720   3.801
 9101TIP3    H127244   2.399   5.814   3.788
 9101TIP3    H227245   2.383   5.708   3.896
 9102TIP3   OH227246   4.167   6.766   6.739
 9102TIP3    H127247   4.192   6.831   6.673
 9102TIP3    H227248   4.132   6.693   6.688
 9103TIP3   OH227249   4.443   2.857   0.522
 9103TIP3    H127250   4.432   2.936   0.575
 9103TIP3    H227251   4.457   2.890   0.433
 9104TIP3   OH227252   6.679   7.719   2.336
 9104TIP3    H127253   6.616   7.670   2.390
 9104TIP3    H227254   6.764   7.684   2.362
 9105TIP3   OH227255   3.496   2.678   6.503
 9105TIP3    H127256   3.531   2.762   6.474
 9105TIP3    H227257   3.558   2.613   6.469
 9106TIP3   OH227258   1.276   3.501   3.136
 9106TIP3    H127259   1.296   3.450   3.215
 9106TIP3    H227260   1.206   3.452   3.093
 9107TIP3   OH227261   8.091   3.981   3.406
 9107TIP3    H127262   8.001   4.013   3.405
 9107TIP3    H227263   8.104   3.947   3.494
 9108TIP3   OH227264   7.221   7.787   6.780
 9108TIP3    H127265   7.305   7.788   6.824
 9108TIP3    H227266   7.234   7.730   6.704
 9109TIP3   OH227267   0.824   1.161   2.575
 9109TIP3    H127268   0.896   1.211   2.613
 9109TIP3    H227269   0.803   1.206   2.494
 9110TIP3   OH227270   0.955   0.747   2.820
 9110TIP3    H127271   0.910   0.791   2.748
 9110TIP3    H227272   0.995   0.818   2.871
 9111TIP3   OH227273   0.528   3.531   0.531
 9111TIP3    H127274   0.516   3.618   0.571
 9111TIP3    H227275   0.623   3.517   0.531
 9112TIP3   OH227276   7.415   6.210   6.166
 9112TIP3    H127277   7.446   6.193   6.255
 9112TIP3    H227278   7.366   6.132   6.142
 9113TIP3   OH227279   2.381   7.732   0.204
 9113TIP3    H127280   2.461   7.734   0.151
 9113TIP3    H227281   2.334   7.654   0.173
 9114TIP3   OH227282   4.232   3.611   5.831
 9114TIP3    H127283   4.299   3.554   5.794
 9114TIP3    H227284   4.276   3.655   5.903
 9115TIP3   OH227285   5.057   5.146   6.651
 9115TIP3    H127286   5.058   5.053   6.675
 9115TIP3    H227287   5.087   5.192   6.730
 9116TIP3   OH227288   2.651   3.181   0.768
 9116TIP3    H127289   2.698   3.199   0.849
 9116TIP3    H227290   2.708   3.215   0.699
 9117TIP3   OH227291   2.111   1.556   3.003
 9117TIP3    H127292   2.016   1.557   3.016
 9117TIP3    H227293   2.122   1.571   2.909
 9118TIP3   OH227294   5.653   4.716   6.111
 9118TIP3    H127295   5.612   4.664   6.042
 9118TIP3    H227296   5.610   4.802   6.106
 9119TIP3   OH227297   0.230   5.436   4.268
 9119TIP3    H127298   0.223   5.517   4.319
 9119TIP3    H227299   0.211   5.462   4.178
 9120TIP3   OH227300   3.621   2.795   3.164
 9120TIP3    H127301   3.641   2.888   3.162
 9120TIP3    H227302   3.703   2.753   3.189
 9121TIP3   OH227303   6.336   1.017   3.444
 9121TIP3    H127304   6.369   0.946   3.500
 9121TIP3    H227305   6.387   1.093   3.469
 9122TIP3   OH227306   1.694   0.112   5.869
 9122TIP3    H127307   1.764   0.109   5.804
 9122TIP3    H227308   1.695   0.025   5.910
 9123TIP3   OH227309   3.460   5.615   4.604
 9123TIP3    H127310   3.394   5.597   4.536
 9123TIP3    H227311   3.464   5.711   4.608
 9124TIP3   OH227312   8.320   3.696   6.448
 9124TIP3    H127313   8.408   3.726   6.470
 9124TIP3    H227314   8.269   3.712   6.527
 9125TIP3   OH227315   3.831   5.225   1.569
 9125TIP3    H127316   3.830   5.199   1.661
 9125TIP3    H227317   3.770   5.164   1.527
 9126TIP3   OH227318   6.569   3.972   5.893
 9126TIP3    H127319   6.545   3.896   5.839
 9126TIP3    H227320   6.594   4.039   5.829
 9127TIP3   OH227321   4.266   1.365   1.924
 9127TIP3    H127322   4.298   1.275   1.930
 9127TIP3    H227323   4.180   1.357   1.883
 9128TIP3   OH227324   5.188   2.194   5.851
 9128TIP3    H127325   5.174   2.286   5.829
 9128TIP3    H227326   5.283   2.183   5.850
 9129TIP3   OH227327   3.938   7.533   6.786
 9129TIP3    H127328   3.868   7.594   6.810
 9129TIP3    H227329   4.016   7.568   6.829
 9130TIP3   OH227330   3.170   2.664   2.948
 9130TIP3    H127331   3.138   2.652   3.037
 9130TIP3    H227332   3.216   2.747   2.950
 9131TIP3   OH227333   1.718   7.159   5.688
 9131TIP3    H127334   1.700   7.115   5.771
 9131TIP3    H227335   1.729   7.088   5.625
 9132TIP3   OH227336   1.382   3.860   4.005
 9132TIP3    H127337   1.390   3.829   4.095
 9132TIP3    H227338   1.315   3.803   3.966
 9133TIP3   OH227339   1.652   4.679   0.853
 9133TIP3    H127340   1.617   4.668   0.764
 9133TIP3    H227341   1.698   4.597   0.870
 9134TIP3   OH227342   0.698   5.754   5.993
 9134TIP3    H127343   0.766   5.796   6.045
 9134TIP3    H227344   0.649   5.827   5.954
 9135TIP3   OH227345   3.551   4.432   3.214
 9135TIP3    H127346   3.519   4.407   3.127
 9135TIP3    H227347   3.609   4.360   3.239
 9136TIP3   OH227348   7.630   1.072   2.083
 9136TIP3    H127349   7.700   1.007   2.087
 9136TIP3    H227350   7.596   1.067   1.994
 9137TIP3   OH227351   0.991   6.935   3.327
 9137TIP3    H127352   1.040   6.980   3.259
 9137TIP3    H227353   0.990   6.997   3.401
 9138TIP3   OH227354   0.078   7.163   4.830
 9138TIP3    H127355   0.070   7.240   4.887
 9138TIP3    H227356   0.061   7.089   4.889
 9139TIP3   OH227357   4.030   1.998   6.868
 9139TIP3    H127358   4.020   1.984   6.774
 9139TIP3    H227359   4.034   2.094   6.877
 9140TIP3   OH227360   8.151   4.177   5.140
 9140TIP3    H127361   8.157   4.084   5.119
 9140TIP3    H227362   8.083   4.211   5.083
 9141TIP3   OH227363   5.754   4.953   2.391
 9141TIP3    H127364   5.672   5.000   2.375
 9141TIP3    H227365   5.758   4.942   2.486
 9142TIP3   OH227366   0.324   0.492   0.579
 9142TIP3    H127367   0.251   0.552   0.596
 9142TIP3    H227368   0.392   0.519   0.641
 9143TIP3   OH227369   5.164   4.958   2.680
 9143TIP3    H127370   5.206   4.949   2.595
 9143TIP3    H227371   5.235   4.980   2.740
 9144TIP3   OH227372   1.938   1.947   6.316
 9144TIP3    H127373   1.979   2.027   6.350
 9144TIP3    H227374   1.959   1.879   6.379
 9145TIP3   OH227375   1.158   2.965   6.357
 9145TIP3    H127376   1.203   3.037   6.401
 9145TIP3    H227377   1.089   2.939   6.418
 9146TIP3   OH227378   1.279   2.168   6.702
 9146TIP3    H127379   1.252   2.256   6.678
 9146TIP3    H227380   1.197   2.124   6.728
 9147TIP3   OH227381   0.782   4.373   2.250
 9147TIP3    H127382   0.764   4.422   2.170
 9147TIP3    H227383   0.765   4.282   2.226
 9148TIP3   OH227384   1.252   5.150   0.926
 9148TIP3    H127385   1.215   5.238   0.915
 9148TIP3    H227386   1.272   5.144   1.019
 9149TIP3   OH227387   2.607   7.329   4.677
 9149TIP3    H127388   2.593   7.416   4.639
 9149TIP3    H227389   2.670   7.287   4.618
 9150TIP3   OH227390   0.014   1.066   4.790
 9150TIP3    H127391   0.002   1.060   4.696
 9150TIP3    H227392  -0.065   1.111   4.822
 9151TIP3   OH227393   0.345   1.277   3.413
 9151TIP3    H127394   0.321   1.353   3.465
 9151TIP3    H227395   0.366   1.312   3.327
 9152TIP3   OH227396   4.011   7.539   5.447
 9152TIP3    H127397   3.915   7.544   5.456
 9152TIP3    H227398   4.027   7.563   5.356
 9153TIP3   OH227399   8.263   1.819   3.662
 9153TIP3    H127400   8.277   1.914   3.663
 9153TIP3    H227401   8.285   1.793   3.573
 9154TIP3   OH227402   0.749   5.490   3.070
 9154TIP3    H127403   0.790   5.414   3.028
 9154TIP3    H227404   0.775   5.483   3.162
 9155TIP3   OH227405   4.320   0.404   6.000
 9155TIP3    H127406   4.397   0.460   6.011
 9155TIP3    H227407   4.261   0.430   6.070
 9156TIP3   OH227408   5.047   2.203   4.281
 9156TIP3    H127409   4.965   2.238   4.245
 9156TIP3    H227410   5.037   2.210   4.376
 9157TIP3   OH227411   0.850   2.629   0.864
 9157TIP3    H127412   0.923   2.568   0.857
 9157TIP3    H227413   0.891   2.715   0.866
 9158TIP3   OH227414   7.970   2.970   5.303
 9158TIP3    H127415   7.929   3.009   5.381
 9158TIP3    H227416   7.955   2.876   5.312
 9159TIP3   OH227417   2.656   3.802   5.158
 9159TIP3    H127418   2.738   3.780   5.203
 9159TIP3    H227419   2.608   3.720   5.154
 9160TIP3   OH227420   0.788   7.369   5.348
 9160TIP3    H127421   0.811   7.435   5.414
 9160TIP3    H227422   0.793   7.286   5.395
 9161TIP3   OH227423   2.356   1.931   3.419
 9161TIP3    H127424   2.423   1.863   3.412
 9161TIP3    H227425   2.404   2.010   3.445
 9162TIP3   OH227426   8.263   0.776   0.478
 9162TIP3    H127427   8.270   0.692   0.523
 9162TIP3    H227428   8.200   0.760   0.408
 9163TIP3   OH227429   4.508   3.277   4.821
 9163TIP3    H127430   4.432   3.334   4.811
 9163TIP3    H227431   4.486   3.218   4.893
 9164TIP3   OH227432   7.928   5.117   6.743
 9164TIP3    H127433   7.975   5.193   6.709
 9164TIP3    H227434   7.836   5.143   6.743
 9165TIP3   OH227435   0.607   5.370   6.473
 9165TIP3    H127436   0.702   5.378   6.466
 9165TIP3    H227437   0.573   5.429   6.405
 9166TIP3   OH227438   2.166   1.912   5.667
 9166TIP3    H127439   2.215   1.988   5.699
 9166TIP3    H227440   2.084   1.915   5.716
 9167TIP3   OH227441   1.001   7.818   4.615
 9167TIP3    H127442   0.945   7.745   4.588
 9167TIP3    H227443   1.062   7.830   4.542
 9168TIP3   OH227444   8.334   5.961   0.573
 9168TIP3    H127445   8.315   5.872   0.601
 9168TIP3    H227446   8.427   5.973   0.591
 9169TIP3   OH227447   3.372   1.293   6.201
 9169TIP3    H127448   3.329   1.270   6.118
 9169TIP3    H227449   3.309   1.350   6.245
 9170TIP3   OH227450   4.946   5.488   5.405
 9170TIP3    H127451   5.019   5.544   5.380
 9170TIP3    H227452   4.968   5.458   5.493
 9171TIP3   OH227453   3.651   4.230   4.937
 9171TIP3    H127454   3.663   4.202   5.028
 9171TIP3    H227455   3.561   4.205   4.916
 9172TIP3   OH227456   4.246   1.472   4.992
 9172TIP3    H127457   4.154   1.497   4.998
 9172TIP3    H227458   4.248   1.405   4.923
 9173TIP3   OH227459   7.535   7.045   1.069
 9173TIP3    H127460   7.516   7.043   0.975
 9173TIP3    H227461   7.626   7.077   1.074
 9174TIP3   OH227462   6.664   6.322   4.327
 9174TIP3    H127463   6.739   6.364   4.284
 9174TIP3    H227464   6.680   6.228   4.317
 9175TIP3   OH227465   0.303   5.579   3.347
 9175TIP3    H127466   0.214   5.586   3.381
 9175TIP3    H227467   0.338   5.668   3.352
 9176TIP3   OH227468   8.325   4.692   3.753
 9176TIP3    H127469   8.343   4.702   3.659
 9176TIP3    H227470   8.401   4.732   3.795
 9177TIP3   OH227471   2.073   1.410   6.242
 9177TIP3    H127472   2.061   1.385   6.151
 9177TIP3    H227473   1.988   1.444   6.269
 9178TIP3   OH227474   4.497   4.454   3.274
 9178TIP3    H127475   4.430   4.406   3.226
 9178TIP3    H227476   4.474   4.546   3.263
 9179TIP3   OH227477   6.321   3.021   6.384
 9179TIP3    H127478   6.289   2.949   6.330
 9179TIP3    H227479   6.378   3.072   6.325
 9180TIP3   OH227480   4.223   0.768   4.177
 9180TIP3    H127481   4.306   0.816   4.180
 9180TIP3    H227482   4.156   0.835   4.191
 9181TIP3   OH227483   5.827   5.182   4.899
 9181TIP3    H127484   5.842   5.256   4.840
 9181TIP3    H227485   5.909   5.173   4.948
 9182TIP3   OH227486   1.991   0.201   4.297
 9182TIP3    H127487   2.044   0.272   4.333
 9182TIP3    H227488   1.953   0.159   4.375
 9183TIP3   OH227489   6.848   1.386   5.412
 9183TIP3    H127490   6.901   1.462   5.385
 9183TIP3    H227491   6.855   1.325   5.338
 9184TIP3   OH227492   8.184   0.941   2.653
 9184TIP3    H127493   8.090   0.950   2.637
 9184TIP3    H227494   8.223   1.015   2.606
 9185TIP3   OH227495   0.958   7.025   3.770
 9185TIP3    H127496   1.010   7.025   3.690
 9185TIP3    H227497   0.934   6.933   3.783
 9186TIP3   OH227498   6.279   0.916   1.638
 9186TIP3    H127499   6.342   0.962   1.583
 9186TIP3    H227500   6.231   0.860   1.577
 9187TIP3   OH227501   3.345   6.346   5.900
 9187TIP3    H127502   3.312   6.399   5.972
 9187TIP3    H227503   3.275   6.347   5.835
 9188TIP3   OH227504   0.329   0.822   1.807
 9188TIP3    H127505   0.392   0.871   1.754
 9188TIP3    H227506   0.292   0.757   1.747
 9189TIP3   OH227507   5.849   7.530   2.422
 9189TIP3    H127508   5.876   7.621   2.405
 9189TIP3    H227509   5.931   7.482   2.427
 9190TIP3   OH227510   2.533   3.936   1.897
 9190TIP3    H127511   2.617   3.956   1.939
 9190TIP3    H227512   2.481   3.895   1.966
 9191TIP3   OH227513   7.538   2.069   5.008
 9191TIP3    H127514   7.555   2.020   4.928
 9191TIP3    H227515   7.625   2.093   5.040
 9192TIP3   OH227516   7.137   1.929   5.357
 9192TIP3    H127517   7.143   1.921   5.452
 9192TIP3    H227518   7.227   1.945   5.329
 9193TIP3   OH227519   6.927   0.923   2.536
 9193TIP3    H127520   6.905   0.831   2.547
 9193TIP3    H227521   7.013   0.933   2.577
 9194TIP3   OH227522   5.778   2.559   4.682
 9194TIP3    H127523   5.792   2.605   4.600
 9194TIP3    H227524   5.744   2.625   4.742
 9195TIP3   OH227525   1.188   7.020   0.054
 9195TIP3    H127526   1.240   6.976  -0.014
 9195TIP3    H227527   1.099   6.986   0.042
 9196TIP3   OH227528   4.524   6.290   2.786
 9196TIP3    H127529   4.489   6.218   2.839
 9196TIP3    H227530   4.618   6.273   2.784
 9197TIP3   OH227531   5.100   7.089   1.398
 9197TIP3    H127532   5.055   7.011   1.430
 9197TIP3    H227533   5.076   7.095   1.306
 9198TIP3   OH227534   5.596   3.252   3.624
 9198TIP3    H127535   5.530   3.218   3.565
 9198TIP3    H227536   5.652   3.306   3.569
 9199TIP3   OH227537   3.393   0.850   2.335
 9199TIP3    H127538   3.333   0.908   2.382
 9199TIP3    H227539   3.352   0.763   2.342
 9200TIP3   OH227540   1.924   3.119   5.817
 9200TIP3    H127541   1.925   3.106   5.912
 9200TIP3    H227542   1.839   3.159   5.799
 9201TIP3   OH227543   7.193   7.523   2.424
 9201TIP3    H127544   7.209   7.555   2.513
 9201TIP3    H227545   7.243   7.442   2.419
 9202TIP3   OH227546   5.755   0.875   2.135
 9202TIP3    H127547   5.810   0.799   2.155
 9202TIP3    H227548   5.802   0.950   2.172
 9203TIP3   OH227549   5.553   2.069   0.370
 9203TIP3    H127550   5.541   1.983   0.410
 9203TIP3    H227551   5.489   2.125   0.413
 9204TIP3   OH227552   2.847   0.063   0.951
 9204TIP3    H127553   2.893   0.074   1.034
 9204TIP3    H227554   2.916   0.072   0.885
 9205TIP3   OH227555   1.354   1.829   0.569
 9205TIP3    H127556   1.335   1.736   0.570
 9205TIP3    H227557   1.335   1.859   0.658
 9206TIP3   OH227558   1.550   4.496   6.630
 9206TIP3    H127559   1.459   4.478   6.605
 9206TIP3    H227560   1.547   4.586   6.663
 9207TIP3   OH227561   7.872   4.427   0.456
 9207TIP3    H127562   7.919   4.376   0.390
 9207TIP3    H227563   7.937   4.487   0.491
 9208TIP3   OH227564   0.297   6.149   0.822
 9208TIP3    H127565   0.305   6.071   0.767
 9208TIP3    H227566   0.245   6.120   0.897
 9209TIP3   OH227567   0.950   4.994   2.760
 9209TIP3    H127568   0.935   4.939   2.683
 9209TIP3    H227569   0.936   5.083   2.730
 9210TIP3   OH227570   7.601   0.222   5.789
 9210TIP3    H127571   7.640   0.306   5.814
 9210TIP3    H227572   7.631   0.161   5.857
 9211TIP3   OH227573   0.085   5.497   3.065
 9211TIP3    H127574   0.043   5.418   3.031
 9211TIP3    H227575   0.176   5.471   3.081
 9212TIP3   OH227576   8.370   7.063   3.483
 9212TIP3    H127577   8.446   7.043   3.428
 9212TIP3    H227578   8.316   7.121   3.429
 9213TIP3   OH227579   1.350   6.780   3.899
 9213TIP3    H127580   1.296   6.796   3.976
 9213TIP3    H227581   1.369   6.686   3.901
 9214TIP3   OH227582   6.046   2.072   1.969
 9214TIP3    H127583   6.120   2.054   2.027
 9214TIP3    H227584   5.998   1.989   1.966
 9215TIP3   OH227585   7.860   7.016   5.575
 9215TIP3    H127586   7.776   6.994   5.534
 9215TIP3    H227587   7.849   6.991   5.666
 9216TIP3   OH227588   1.136   4.523   0.656
 9216TIP3    H127589   1.202   4.459   0.683
 9216TIP3    H227590   1.056   4.495   0.700
 9217TIP3   OH227591   8.194   2.763   1.410
 9217TIP3    H127592   8.125   2.761   1.344
 9217TIP3    H227593   8.166   2.831   1.472
 9218TIP3   OH227594   0.867   3.117   3.859
 9218TIP3    H127595   0.939   3.070   3.903
 9218TIP3    H227596   0.899   3.206   3.848
 9219TIP3   OH227597   6.746   1.920   5.402
 9219TIP3    H127598   6.717   1.971   5.477
 9219TIP3    H227599   6.672   1.922   5.341
 9220TIP3   OH227600   0.853   7.462   0.449
 9220TIP3    H127601   0.889   7.441   0.535
 9220TIP3    H227602   0.829   7.377   0.412
 9221TIP3   OH227603   6.278   4.969   0.378
 9221TIP3    H127604   6.248   4.883   0.349
 9221TIP3    H227605   6.325   4.952   0.460
 9222TIP3   OH227606   6.839   5.298   5.227
 9222TIP3    H127607   6.844   5.220   5.171
 9222TIP3    H227608   6.900   5.360   5.187
 9223TIP3   OH227609   8.091   4.486   0.073
 9223TIP3    H127610   8.185   4.500   0.075
 9223TIP3    H227611   8.056   4.551   0.135
 9224TIP3   OH227612   1.176   6.184   2.086
 9224TIP3    H127613   1.213   6.238   2.017
 9224TIP3    H227614   1.171   6.242   2.162
 9225TIP3   OH227615   3.524   5.958   2.710
 9225TIP3    H127616   3.537   5.953   2.805
 9225TIP3    H227617   3.611   5.981   2.675
 9226TIP3   OH227618   5.158   7.170   2.527
 9226TIP3    H127619   5.147   7.076   2.517
 9226TIP3    H227620   5.207   7.180   2.608
 9227TIP3   OH227621   0.842   6.991   1.859
 9227TIP3    H127622   0.774   6.988   1.926
 9227TIP3    H227623   0.890   6.909   1.869
 9228TIP3   OH227624   4.786   7.018   6.065
 9228TIP3    H127625   4.701   6.988   6.096
 9228TIP3    H227626   4.845   7.007   6.140
 9229TIP3   OH227627   7.062   1.754   0.233
 9229TIP3    H127628   7.026   1.809   0.303
 9229TIP3    H227629   7.050   1.664   0.263
 9230TIP3   OH227630   6.201   5.227   2.286
 9230TIP3    H127631   6.164   5.313   2.306
 9230TIP3    H227632   6.136   5.164   2.318
 9231TIP3   OH227633   7.150   3.146   4.128
 9231TIP3    H127634   7.210   3.218   4.109
 9231TIP3    H227635   7.077   3.186   4.175
 9232TIP3   OH227636   8.046   1.613   5.974
 9232TIP3    H127637   8.116   1.596   6.037
 9232TIP3    H227638   7.977   1.552   5.998
 9233TIP3   OH227639   1.137   4.155   2.666
 9233TIP3    H127640   1.042   4.148   2.668
 9233TIP3    H227641   1.158   4.223   2.730
 9234TIP3   OH227642   0.537   5.196   3.479
 9234TIP3    H127643   0.492   5.115   3.454
 9234TIP3    H227644   0.537   5.195   3.575
 9235TIP3   OH227645   1.409   4.300   4.289
 9235TIP3    H127646   1.384   4.209   4.307
 9235TIP3    H227647   1.462   4.326   4.364
 9236TIP3   OH227648   3.362   0.075   5.538
 9236TIP3    H127649   3.382   0.085   5.445
 9236TIP3    H227650   3.281   0.025   5.540
 9237TIP3   OH227651   0.345   4.133   0.947
 9237TIP3    H127652   0.437   4.130   0.971
 9237TIP3    H227653   0.340   4.196   0.875
 9238TIP3   OH227654   8.067   6.111   4.474
 9238TIP3    H127655   8.004   6.170   4.514
 9238TIP3    H227656   8.062   6.031   4.526
 9239TIP3   OH227657   7.913   6.748   1.237
 9239TIP3    H127658   7.943   6.839   1.238
 9239TIP3    H227659   7.868   6.738   1.154
 9240TIP3   OH227660   4.333   5.829   4.707
 9240TIP3    H127661   4.368   5.907   4.664
 9240TIP3    H227662   4.367   5.833   4.796
 9241TIP3   OH227663   6.566   5.772   0.887
 9241TIP3    H127664   6.579   5.770   0.792
 9241TIP3    H227665   6.477   5.739   0.900
 9242TIP3   OH227666   7.790   1.492   6.756
 9242TIP3    H127667   7.759   1.574   6.794
 9242TIP3    H227668   7.723   1.428   6.778
 9243TIP3   OH227669   2.152   5.394   5.646
 9243TIP3    H127670   2.181   5.389   5.555
 9243TIP3    H227671   2.116   5.482   5.655
 9244TIP3   OH227672   3.967   1.019   3.232
 9244TIP3    H127673   3.872   1.032   3.229
 9244TIP3    H227674   3.993   1.022   3.140
 9245TIP3   OH227675   6.876   6.321   5.768
 9245TIP3    H127676   6.854   6.348   5.679
 9245TIP3    H227677   6.901   6.229   5.759
 9246TIP3   OH227678   7.697   6.623   4.425
 9246TIP3    H127679   7.790   6.602   4.415
 9246TIP3    H227680   7.659   6.546   4.466
 9247TIP3   OH227681   3.114   1.117   4.711
 9247TIP3    H127682   3.133   1.115   4.805
 9247TIP3    H227683   3.179   1.058   4.672
 9248TIP3   OH227684   4.227   1.356   0.732
 9248TIP3    H127685   4.143   1.402   0.728
 9248TIP3    H227686   4.215   1.289   0.799
 9249TIP3   OH227687   0.447   5.250   1.015
 9249TIP3    H127688   0.355   5.266   0.994
 9249TIP3    H227689   0.490   5.335   1.003
 9250TIP3   OH227690   3.876   4.195   6.309
 9250TIP3    H127691   3.843   4.277   6.344
 9250TIP3    H227692   3.896   4.214   6.217
 9251TIP3   OH227693   3.319   6.641   6.415
 9251TIP3    H127694   3.229   6.628   6.445
 9251TIP3    H227695   3.364   6.561   6.440
 9252TIP3   OH227696   3.252   5.613   5.308
 9252TIP3    H127697   3.278   5.650   5.224
 9252TIP3    H227698   3.205   5.533   5.285
 9253TIP3   OH227699   0.038   5.782   4.999
 9253TIP3    H127700   0.049   5.870   5.035
 9253TIP3    H227701   0.061   5.723   5.071
 9254TIP3   OH227702   6.926   2.536   4.585
 9254TIP3    H127703   6.910   2.544   4.490
 9254TIP3    H227704   6.942   2.443   4.599
 9255TIP3   OH227705   0.761   1.173   4.627
 9255TIP3    H127706   0.683   1.153   4.576
 9255TIP3    H227707   0.804   1.089   4.640
 9256TIP3   OH227708   1.881   2.794   3.552
 9256TIP3    H127709   1.883   2.814   3.458
 9256TIP3    H227710   1.803   2.741   3.564
 9257TIP3   OH227711   5.047   3.760   1.434
 9257TIP3    H127712   5.120   3.728   1.379
 9257TIP3    H227713   4.984   3.688   1.433
 9258TIP3   OH227714   6.894   7.869   5.338
 9258TIP3    H127715   6.932   7.858   5.425
 9258TIP3    H227716   6.801   7.885   5.354
 9259TIP3   OH227717   6.896   6.970   4.330
 9259TIP3    H127718   6.805   6.963   4.302
 9259TIP3    H227719   6.924   7.056   4.298
 9260TIP3   OH227720   5.139   0.046   5.825
 9260TIP3    H127721   5.171   0.005   5.745
 9260TIP3    H227722   5.132  -0.025   5.889
 9261TIP3   OH227723   0.868   0.439   4.988
 9261TIP3    H127724   0.782   0.402   5.008
 9261TIP3    H227725   0.849   0.514   4.931
 9262TIP3   OH227726   3.865   0.564   1.019
 9262TIP3    H127727   3.847   0.599   0.931
 9262TIP3    H227728   3.932   0.497   1.005
 9263TIP3   OH227729   2.767   3.689   1.945
 9263TIP3    H127730   2.711   3.631   1.893
 9263TIP3    H227731   2.786   3.639   2.025
 9264TIP3   OH227732   4.083   4.360   4.824
 9264TIP3    H127733   4.048   4.359   4.735
 9264TIP3    H227734   4.130   4.444   4.831
 9265TIP3   OH227735   2.469   6.384   3.554
 9265TIP3    H127736   2.380   6.406   3.525
 9265TIP3    H227737   2.507   6.336   3.480
 9266TIP3   OH227738   7.042   1.674   1.503
 9266TIP3    H127739   6.967   1.620   1.526
 9266TIP3    H227740   7.059   1.653   1.411
 9267TIP3   OH227741   0.610   1.856   3.526
 9267TIP3    H127742   0.680   1.797   3.496
 9267TIP3    H227743   0.612   1.928   3.464
 9268TIP3   OH227744   5.621   2.023   6.557
 9268TIP3    H127745   5.627   1.982   6.643
 9268TIP3    H227746   5.560   2.095   6.568
 9269TIP3   OH227747   3.396   7.701   4.711
 9269TIP3    H127748   3.426   7.773   4.767
 9269TIP3    H227749   3.308   7.680   4.743
 9270TIP3   OH227750   2.524   6.956   0.226
 9270TIP3    H127751   2.544   6.974   0.318
 9270TIP3    H227752   2.428   6.955   0.222
 9271TIP3   OH227753   6.385   5.283   2.600
 9271TIP3    H127754   6.316   5.330   2.648
 9271TIP3    H227755   6.446   5.351   2.573
 9272TIP3   OH227756   2.309   6.316   4.795
 9272TIP3    H127757   2.388   6.312   4.849
 9272TIP3    H227758   2.247   6.256   4.837
 9273TIP3   OH227759   3.401   1.693   6.539
 9273TIP3    H127760   3.395   1.759   6.609
 9273TIP3    H227761   3.495   1.680   6.527
 9274TIP3   OH227762   7.374   3.483   2.526
 9274TIP3    H127763   7.297   3.517   2.571
 9274TIP3    H227764   7.426   3.442   2.596
 9275TIP3   OH227765   5.365   0.135   5.530
 9275TIP3    H127766   5.396   0.195   5.598
 9275TIP3    H227767   5.326   0.062   5.578
 9276TIP3   OH227768   1.870   3.719   1.717
 9276TIP3    H127769   1.932   3.791   1.714
 9276TIP3    H227770   1.793   3.752   1.671
 9277TIP3   OH227771   3.374   4.746   3.683
 9277TIP3    H127772   3.400   4.785   3.767
 9277TIP3    H227773   3.443   4.774   3.622
 9278TIP3   OH227774   2.686   0.622   1.969
 9278TIP3    H127775   2.703   0.715   1.989
 9278TIP3    H227776   2.660   0.584   2.052
 9279TIP3   OH227777   1.760   7.713   3.976
 9279TIP3    H127778   1.774   7.632   4.025
 9279TIP3    H227779   1.811   7.702   3.896
 9280TIP3   OH227780   2.448   7.084   2.741
 9280TIP3    H127781   2.521   7.048   2.792
 9280TIP3    H227782   2.444   7.030   2.662
 9281TIP3   OH227783   6.260   0.255   0.521
 9281TIP3    H127784   6.251   0.290   0.432
 9281TIP3    H227785   6.307   0.324   0.569
 9282TIP3   OH227786   3.655   0.831   0.150
 9282TIP3    H127787   3.624   0.894   0.215
 9282TIP3    H227788   3.650   0.746   0.195
 9283TIP3   OH227789   4.440   1.854   0.374
 9283TIP3    H127790   4.425   1.938   0.417
 9283TIP3    H227791   4.534   1.839   0.383
 9284TIP3   OH227792   2.753   6.441   2.029
 9284TIP3    H127793   2.828   6.500   2.037
 9284TIP3    H227794   2.792   6.354   2.022
 9285TIP3   OH227795   4.712   4.245   5.082
 9285TIP3    H127796   4.777   4.314   5.096
 9285TIP3    H227797   4.764   4.168   5.060
 9286TIP3   OH227798   7.721   1.932   0.374
 9286TIP3    H127799   7.655   1.976   0.321
 9286TIP3    H227800   7.692   1.840   0.376
 9287TIP3   OH227801   1.670   5.683   0.772
 9287TIP3    H127802   1.636   5.603   0.812
 9287TIP3    H227803   1.652   5.752   0.836
 9288TIP3   OH227804   5.982   1.393   2.435
 9288TIP3    H127805   5.952   1.402   2.345
 9288TIP3    H227806   5.929   1.455   2.484
 9289TIP3   OH227807   2.148   7.317   6.513
 9289TIP3    H127808   2.222   7.378   6.522
 9289TIP3    H227809   2.112   7.310   6.602
 9290TIP3   OH227810   1.223   7.286   0.817
 9290TIP3    H127811   1.238   7.206   0.766
 9290TIP3    H227812   1.310   7.311   0.849
 9291TIP3   OH227813   2.061   1.045   5.857
 9291TIP3    H127814   2.043   1.111   5.925
 9291TIP3    H227815   2.102   1.094   5.786
 9292TIP3   OH227816   5.172   0.501   2.988
 9292TIP3    H127817   5.191   0.589   2.956
 9292TIP3    H227818   5.076   0.499   2.995
 9293TIP3   OH227819   0.124   7.420   3.591
 9293TIP3    H127820   0.212   7.405   3.557
 9293TIP3    H227821   0.133   7.412   3.686
 9294TIP3   OH227822   5.539   7.048   2.356
 9294TIP3    H127823   5.591   7.116   2.400
 9294TIP3    H227824   5.496   7.001   2.428
 9295TIP3   OH227825   4.066  -0.018   3.816
 9295TIP3    H127826   4.153  -0.054   3.830
 9295TIP3    H227827   4.078   0.048   3.748
 9296TIP3   OH227828   5.293   5.687   0.921
 9296TIP3    H127829   5.257   5.759   0.869
 9296TIP3    H227830   5.297   5.722   1.010
 9297TIP3   OH227831   2.942   5.990   1.554
 9297TIP3    H127832   2.882   5.915   1.553
 9297TIP3    H227833   3.025   5.954   1.585
 9298TIP3   OH227834   0.058   0.098   2.149
 9298TIP3    H127835  -0.017   0.039   2.141
 9298TIP3    H227836   0.045   0.163   2.080
 9299TIP3   OH227837   0.492   4.460   5.877
 9299TIP3    H127838   0.464   4.449   5.968
 9299TIP3    H227839   0.562   4.396   5.865
 9300TIP3   OH227840   3.892   1.076   1.697
 9300TIP3    H127841   3.864   1.017   1.767
 9300TIP3    H227842   3.930   1.018   1.631
 9301TIP3   OH227843   4.223   7.481   2.427
 9301TIP3    H127844   4.257   7.571   2.420
 9301TIP3    H227845   4.219   7.464   2.521
 9302TIP3   OH227846   6.081   3.246   2.632
 9302TIP3    H127847   6.150   3.196   2.589
 9302TIP3    H227848   6.120   3.274   2.715
 9303TIP3   OH227849   0.279   4.440   6.349
 9303TIP3    H127850   0.216   4.381   6.389
 9303TIP3    H227851   0.341   4.461   6.418
 9304TIP3   OH227852   1.550   7.885   3.924
 9304TIP3    H127853   1.624   7.825   3.929
 9304TIP3    H227854   1.526   7.901   4.015
 9305TIP3   OH227855   8.207   3.158   5.725
 9305TIP3    H127856   8.136   3.200   5.676
 9305TIP3    H227857   8.256   3.230   5.764
 9306TIP3   OH227858   1.547   0.035   5.219
 9306TIP3    H127859   1.472  -0.015   5.252
 9306TIP3    H227860   1.512   0.123   5.204
 9307TIP3   OH227861   2.033   7.558   0.989
 9307TIP3    H127862   2.000   7.526   0.905
 9307TIP3    H227863   1.999   7.648   0.995
 9308TIP3   OH227864   0.191   4.304   5.359
 9308TIP3    H127865   0.204   4.390   5.398
 9308TIP3    H227866   0.096   4.291   5.361
 9309TIP3   OH227867   6.669   2.744   2.652
 9309TIP3    H127868   6.736   2.676   2.661
 9309TIP3    H227869   6.716   2.820   2.620
 9310TIP3   OH227870   2.875   5.499   3.860
 9310TIP3    H127871   2.906   5.438   3.794
 9310TIP3    H227872   2.806   5.549   3.817
 9311TIP3   OH227873   6.514   2.165   3.771
 9311TIP3    H127874   6.551   2.243   3.728
 9311TIP3    H227875   6.430   2.196   3.806
 9312TIP3   OH227876   2.962   6.905   5.445
 9312TIP3    H127877   2.944   6.927   5.354
 9312TIP3    H227878   3.000   6.817   5.441
 9313TIP3   OH227879   5.841   7.845   5.692
 9313TIP3    H127880   5.819   7.938   5.692
 9313TIP3    H227881   5.757   7.800   5.698
 9314TIP3   OH227882   5.250   4.487   0.107
 9314TIP3    H127883   5.269   4.395   0.088
 9314TIP3    H227884   5.329   4.534   0.083
 9315TIP3   OH227885   5.818   6.039   6.017
 9315TIP3    H127886   5.870   6.096   6.073
 9315TIP3    H227887   5.874   6.022   5.941
 9316TIP3   OH227888   3.598   6.575   1.564
 9316TIP3    H127889   3.599   6.660   1.520
 9316TIP3    H227890   3.520   6.578   1.620
 9317TIP3   OH227891   1.015   7.322   1.715
 9317TIP3    H127892   1.086   7.285   1.663
 9317TIP3    H227893   1.038   7.301   1.805
 9318TIP3   OH227894   0.130   6.706   0.062
 9318TIP3    H127895   0.067   6.772   0.090
 9318TIP3    H227896   0.091   6.667  -0.017
 9319TIP3   OH227897   0.984   7.200   4.072
 9319TIP3    H127898   1.055   7.246   4.026
 9319TIP3    H227899   0.950   7.138   4.008
 9320TIP3   OH227900   0.360   1.413   3.175
 9320TIP3    H127901   0.433   1.474   3.181
 9320TIP3    H227902   0.366   1.379   3.085
 9321TIP3   OH227903   6.558   2.890   6.135
 9321TIP3    H127904   6.574   2.899   6.229
 9321TIP3    H227905   6.618   2.952   6.094
 9322TIP3   OH227906   1.465   2.459   5.810
 9322TIP3    H127907   1.491   2.381   5.859
 9322TIP3    H227908   1.515   2.530   5.851
 9323TIP3   OH227909   1.547   4.362   0.806
 9323TIP3    H127910   1.630   4.336   0.766
 9323TIP3    H227911   1.560   4.347   0.900
 9324TIP3   OH227912   3.009   0.553   0.089
 9324TIP3    H127913   2.988   0.536   0.181
 9324TIP3    H227914   3.061   0.478   0.062
 9325TIP3   OH227915   5.947   3.649   0.945
 9325TIP3    H127916   6.037   3.654   0.912
 9325TIP3    H227917   5.902   3.592   0.882
 9326TIP3   OH227918   6.823   0.190   6.378
 9326TIP3    H127919   6.844   0.216   6.468
 9326TIP3    H227920   6.728   0.183   6.377
 9327TIP3   OH227921   7.210   0.739   5.647
 9327TIP3    H127922   7.156   0.687   5.707
 9327TIP3    H227923   7.206   0.693   5.564
 9328TIP3   OH227924   0.191   4.428   1.287
 9328TIP3    H127925   0.118   4.474   1.326
 9328TIP3    H227926   0.188   4.452   1.194
 9329TIP3   OH227927   6.548   6.751   2.745
 9329TIP3    H127928   6.472   6.695   2.759
 9329TIP3    H227929   6.622   6.701   2.782
 9330TIP3   OH227930   7.588   7.068   3.773
 9330TIP3    H127931   7.567   7.127   3.846
 9330TIP3    H227932   7.683   7.069   3.767
 9331TIP3   OH227933   0.628   2.780   1.961
 9331TIP3    H127934   0.669   2.752   2.044
 9331TIP3    H227935   0.534   2.773   1.977
 9332TIP3   OH227936   5.387   3.219   1.032
 9332TIP3    H127937   5.414   3.288   1.093
 9332TIP3    H227938   5.469   3.175   1.008
 9333TIP3   OH227939   1.534   7.620   3.739
 9333TIP3    H127940   1.587   7.696   3.761
 9333TIP3    H227941   1.588   7.545   3.765
 9334TIP3   OH227942   2.026   0.981   3.550
 9334TIP3    H127943   2.033   1.002   3.457
 9334TIP3    H227944   1.932   0.972   3.565
 9335TIP3   OH227945   0.565   5.132   2.992
 9335TIP3    H127946   0.637   5.070   2.984
 9335TIP3    H227947   0.489   5.079   3.016
 9336TIP3   OH227948   3.228   6.565   2.773
 9336TIP3    H127949   3.187   6.568   2.860
 9336TIP3    H227950   3.177   6.627   2.720
 9337TIP3   OH227951   3.738   1.791   0.257
 9337TIP3    H127952   3.752   1.698   0.274
 9337TIP3    H227953   3.824   1.824   0.230
 9338TIP3   OH227954   3.085   2.332   1.956
 9338TIP3    H127955   3.052   2.359   1.870
 9338TIP3    H227956   3.026   2.376   2.018
 9339TIP3   OH227957   2.211   4.315   5.908
 9339TIP3    H127958   2.245   4.381   5.969
 9339TIP3    H227959   2.272   4.317   5.834
 9340TIP3   OH227960   2.477   3.169   4.543
 9340TIP3    H127961   2.525   3.232   4.490
 9340TIP3    H227962   2.544   3.123   4.593
 9341TIP3   OH227963   7.336   2.978   5.887
 9341TIP3    H127964   7.341   2.892   5.928
 9341TIP3    H227965   7.376   3.037   5.951
 9342TIP3   OH227966   1.246   5.649   6.569
 9342TIP3    H127967   1.282   5.582   6.511
 9342TIP3    H227968   1.207   5.599   6.641
 9343TIP3   OH227969   2.986   6.152   2.476
 9343TIP3    H127970   2.938   6.225   2.438
 9343TIP3    H227971   3.064   6.192   2.515
 9344TIP3   OH227972   6.473   4.364   6.867
 9344TIP3    H127973   6.526   4.411   6.802
 9344TIP3    H227974   6.466   4.275   6.834
 9345TIP3   OH227975   6.985   5.292   5.739
 9345TIP3    H127976   6.976   5.205   5.777
 9345TIP3    H227977   6.953   5.282   5.649
 9346TIP3   OH227978   4.690   7.303   5.877
 9346TIP3    H127979   4.630   7.320   5.950
 9346TIP3    H227980   4.774   7.284   5.920
 9347TIP3   OH227981   5.075   7.871   2.383
 9347TIP3    H127982   5.097   7.964   2.389
 9347TIP3    H227983   5.148   7.827   2.426
 9348TIP3   OH227984   8.142   0.632   5.236
 9348TIP3    H127985   8.058   0.677   5.220
 9348TIP3    H227986   8.184   0.629   5.150
 9349TIP3   OH227987   2.838   3.068   2.343
 9349TIP3    H127988   2.773   3.083   2.274
 9349TIP3    H227989   2.863   2.976   2.332
 9350TIP3   OH227990   6.251   3.943   1.662
 9350TIP3    H127991   6.208   3.988   1.734
 9350TIP3    H227992   6.260   4.009   1.594
 9351TIP3   OH227993   5.922   2.704   5.718
 9351TIP3    H127994   6.013   2.677   5.722
 9351TIP3    H227995   5.911   2.765   5.792
 9352TIP3   OH227996   1.535   1.362   4.113
 9352TIP3    H127997   1.478   1.361   4.036
 9352TIP3    H227998   1.477   1.388   4.185
 9353TIP3   OH227999   0.785   6.497   2.820
 9353TIP3    H128000   0.792   6.409   2.783
 9353TIP3    H228001   0.775   6.554   2.743
 9354TIP3   OH228002   5.571   7.776   3.895
 9354TIP3    H128003   5.632   7.812   3.958
 9354TIP3    H228004   5.518   7.851   3.866
 9355TIP3   OH228005   3.132   1.496   0.029
 9355TIP3    H128006   3.080   1.441   0.088
 9355TIP3    H228007   3.078   1.505  -0.050
 9356TIP3   OH228008   7.856   6.324   5.269
 9356TIP3    H128009   7.879   6.374   5.347
 9356TIP3    H228010   7.939   6.315   5.221
 9357TIP3   OH228011   1.769   5.949   4.468
 9357TIP3    H128012   1.864   5.943   4.473
 9357TIP3    H228013   1.738   5.891   4.537
 9358TIP3   OH228014   7.269   2.059   5.997
 9358TIP3    H128015   7.331   2.131   5.984
 9358TIP3    H228016   7.222   2.054   5.914
 9359TIP3   OH228017   3.731   7.696   3.237
 9359TIP3    H128018   3.646   7.708   3.281
 9359TIP3    H228019   3.767   7.784   3.229
 9360TIP3   OH228020   4.731   4.820   3.402
 9360TIP3    H128021   4.819   4.837   3.437
 9360TIP3    H228022   4.738   4.735   3.360
 9361TIP3   OH228023   6.763   3.428   6.488
 9361TIP3    H128024   6.831   3.465   6.432
 9361TIP3    H228025   6.753   3.492   6.559
 9362TIP3   OH228026   2.893   3.859   2.584
 9362TIP3    H128027   2.984   3.844   2.560
 9362TIP3    H228028   2.893   3.944   2.628
 9363TIP3   OH228029   2.851   4.991   0.750
 9363TIP3    H128030   2.845   4.991   0.845
 9363TIP3    H228031   2.768   4.954   0.720
 9364TIP3   OH228032   4.302   3.378   0.134
 9364TIP3    H128033   4.232   3.318   0.110
 9364TIP3    H228034   4.318   3.430   0.056
 9365TIP3   OH228035   3.497   7.676   2.440
 9365TIP3    H128036   3.538   7.666   2.525
 9365TIP3    H228037   3.570   7.685   2.378
 9366TIP3   OH228038   1.831   1.447   3.394
 9366TIP3    H128039   1.875   1.372   3.355
 9366TIP3    H228040   1.870   1.523   3.350
 9367TIP3   OH228041   3.756   4.276   1.065
 9367TIP3    H128042   3.721   4.201   1.017
 9367TIP3    H228043   3.851   4.263   1.063
 9368TIP3   OH228044   0.654   4.592   3.699
 9368TIP3    H128045   0.690   4.580   3.611
 9368TIP3    H228046   0.670   4.508   3.743
 9369TIP3   OH228047   8.074   3.843   3.657
 9369TIP3    H128048   8.123   3.848   3.739
 9369TIP3    H228049   8.037   3.755   3.657
 9370TIP3   OH228050   1.662   3.152   4.055
 9370TIP3    H128051   1.671   3.068   4.008
 9370TIP3    H228052   1.748   3.192   4.050
 9371TIP3   OH228053   6.618   6.075   5.315
 9371TIP3    H128054   6.664   6.093   5.233
 9371TIP3    H228055   6.686   6.046   5.375
 9372TIP3   OH228056   7.438   7.065   4.591
 9372TIP3    H128057   7.372   7.130   4.567
 9372TIP3    H228058   7.458   7.084   4.683
 9373TIP3   OH228059   8.192   3.419   4.093
 9373TIP3    H128060   8.282   3.442   4.071
 9373TIP3    H228061   8.164   3.360   4.023
 9374TIP3   OH228062   6.181   4.736   1.604
 9374TIP3    H128063   6.251   4.797   1.582
 9374TIP3    H228064   6.110   4.756   1.542
 9375TIP3   OH228065   6.010   5.046   2.377
 9375TIP3    H128066   5.919   5.017   2.380
 9375TIP3    H228067   6.057   4.972   2.341
 9376TIP3   OH228068   2.301   2.140   5.950
 9376TIP3    H128069   2.355   2.174   6.021
 9376TIP3    H228070   2.363   2.098   5.891
 9377TIP3   OH228071   3.834   4.719   5.985
 9377TIP3    H128072   3.789   4.802   6.003
 9377TIP3    H228073   3.807   4.696   5.896
 9378TIP3   OH228074   2.389   6.653   4.697
 9378TIP3    H128075   2.481   6.626   4.692
 9378TIP3    H228076   2.389   6.745   4.672
 9379TIP3   OH228077   7.664   0.399   1.960
 9379TIP3    H128078   7.663   0.494   1.973
 9379TIP3    H228079   7.692   0.363   2.044
 9380TIP3   OH228080  -0.001   1.156   2.571
 9380TIP3    H128081   0.063   1.224   2.590
 9380TIP3    H228082   0.021   1.125   2.483
 9381TIP3   OH228083   3.143   1.999   6.626
 9381TIP3    H128084   3.128   2.093   6.624
 9381TIP3    H228085   3.143   1.976   6.719
 9382TIP3   OH228086   2.138   7.755   4.998
 9382TIP3    H128087   2.219   7.791   5.034
 9382TIP3    H228088   2.083   7.738   5.075
 9383TIP3   OH228089   8.055   0.259   4.214
 9383TIP3    H128090   8.120   0.288   4.151
 9383TIP3    H228091   8.097   0.184   4.257
 9384TIP3   OH228092   8.113   6.462   5.374
 9384TIP3    H128093   8.202   6.433   5.394
 9384TIP3    H228094   8.060   6.429   5.446
 9385TIP3   OH228095   1.341   4.022   4.358
 9385TIP3    H128096   1.363   3.932   4.381
 9385TIP3    H228097   1.280   4.014   4.285
 9386TIP3   OH228098   5.583   3.066   1.757
 9386TIP3    H128099   5.623   2.989   1.796
 9386TIP3    H228100   5.547   3.115   1.831
 9387TIP3   OH228101   4.832   1.070   4.173
 9387TIP3    H128102   4.927   1.081   4.177
 9387TIP3    H228103   4.816   0.984   4.213
 9388TIP3   OH228104   1.659   6.864   2.915
 9388TIP3    H128105   1.727   6.824   2.970
 9388TIP3    H228106   1.658   6.811   2.836
 9389TIP3   OH228107   2.931   1.500   3.121
 9389TIP3    H128108   2.969   1.419   3.086
 9389TIP3    H228109   2.901   1.547   3.044
 9390TIP3   OH228110   2.271   0.017   1.277
 9390TIP3    H128111   2.291   0.104   1.312
 9390TIP3    H228112   2.238  -0.032   1.352
 9391TIP3   OH228113   5.975   2.944   1.880
 9391TIP3    H128114   5.991   2.872   1.819
 9391TIP3    H228115   5.989   3.023   1.827
 9392TIP3   OH228116   4.333   2.314   4.153
 9392TIP3    H128117   4.399   2.369   4.110
 9392TIP3    H228118   4.252   2.334   4.106
 9393TIP3   OH228119   3.486   6.689   5.665
 9393TIP3    H128120   3.571   6.710   5.625
 9393TIP3    H228121   3.500   6.605   5.708
 9394TIP3   OH228122   4.891   4.444   6.099
 9394TIP3    H128123   4.836   4.378   6.141
 9394TIP3    H228124   4.836   4.480   6.029
 9395TIP3   OH228125   1.139   2.668   0.296
 9395TIP3    H128126   1.170   2.646   0.383
 9395TIP3    H228127   1.153   2.763   0.288
 9396TIP3   OH228128   1.028   5.184   4.639
 9396TIP3    H128129   1.103   5.165   4.583
 9396TIP3    H228130   1.057   5.258   4.693
 9397TIP3   OH228131   6.244   4.900   4.852
 9397TIP3    H128132   6.178   4.834   4.830
 9397TIP3    H228133   6.308   4.852   4.905
 9398TIP3   OH228134   6.233   4.265   0.220
 9398TIP3    H128135   6.152   4.309   0.246
 9398TIP3    H228136   6.299   4.334   0.216
 9399TIP3   OH228137   7.278   2.712   6.353
 9399TIP3    H128138   7.294   2.759   6.435
 9399TIP3    H228139   7.359   2.664   6.336
 9400TIP3   OH228140   3.355   0.661   3.502
 9400TIP3    H128141   3.311   0.679   3.585
 9400TIP3    H228142   3.287   0.673   3.436
 9401TIP3   OH228143   4.863   5.897   6.558
 9401TIP3    H128144   4.834   5.910   6.648
 9401TIP3    H228145   4.958   5.894   6.564
 9402TIP3   OH228146   4.560   6.687   4.143
 9402TIP3    H128147   4.577   6.639   4.062
 9402TIP3    H228148   4.551   6.778   4.115
 9403TIP3   OH228149   2.209   2.561   2.864
 9403TIP3    H128150   2.199   2.514   2.781
 9403TIP3    H228151   2.228   2.493   2.929
 9404TIP3   OH228152   1.352   3.585   0.802
 9404TIP3    H128153   1.378   3.658   0.858
 9404TIP3    H228154   1.328   3.515   0.863
 9405TIP3   OH228155   1.569   5.535   5.265
 9405TIP3    H128156   1.539   5.475   5.197
 9405TIP3    H228157   1.503   5.603   5.268
 9406TIP3   OH228158   6.471   1.430   6.496
 9406TIP3    H128159   6.494   1.358   6.437
 9406TIP3    H228160   6.428   1.387   6.569
 9407TIP3   OH228161   7.485   7.507   5.356
 9407TIP3    H128162   7.437   7.561   5.293
 9407TIP3    H228163   7.525   7.570   5.416
 9408TIP3   OH228164   5.062   5.483   4.575
 9408TIP3    H128165   4.983   5.495   4.628
 9408TIP3    H228166   5.133   5.473   4.638
 9409TIP3   OH228167   5.741   0.849   3.046
 9409TIP3    H128168   5.699   0.900   3.115
 9409TIP3    H228169   5.813   0.805   3.090
 9410TIP3   OH228170   4.785   7.779   0.724
 9410TIP3    H128171   4.790   7.715   0.653
 9410TIP3    H228172   4.762   7.861   0.680
 9411TIP3   OH228173   4.453   6.900   5.114
 9411TIP3    H128174   4.452   6.978   5.170
 9411TIP3    H228175   4.435   6.828   5.175
 9412TIP3   OH228176   7.217   3.577   1.294
 9412TIP3    H128177   7.130   3.616   1.302
 9412TIP3    H228178   7.255   3.619   1.217
 9413TIP3   OH228179   8.154   0.253   5.118
 9413TIP3    H128180   8.060   0.237   5.105
 9413TIP3    H228181   8.157   0.333   5.172
 9414TIP3   OH228182   6.245   6.435   3.276
 9414TIP3    H128183   6.269   6.485   3.354
 9414TIP3    H228184   6.279   6.347   3.293
 9415TIP3   OH228185   2.428   1.778   0.395
 9415TIP3    H128186   2.506   1.798   0.447
 9415TIP3    H228187   2.463   1.744   0.312
 9416TIP3   OH228188   3.586   0.790   5.775
 9416TIP3    H128189   3.570   0.853   5.846
 9416TIP3    H228190   3.510   0.733   5.776
 9417TIP3   OH228191   0.743   2.852   2.204
 9417TIP3    H128192   0.687   2.833   2.278
 9417TIP3    H228193   0.718   2.940   2.177
 9418TIP3   OH228194   2.581   2.078   3.505
 9418TIP3    H128195   2.564   2.112   3.592
 9418TIP3    H228196   2.640   2.004   3.519
 9419TIP3   OH228197   5.740   4.776   3.557
 9419TIP3    H128198   5.811   4.800   3.616
 9419TIP3    H228199   5.704   4.695   3.594
 9420TIP3   OH228200   7.123   0.852   6.424
 9420TIP3    H128201   7.209   0.893   6.418
 9420TIP3    H228202   7.118   0.818   6.513
 9421TIP3   OH228203   7.200   7.874   1.472
 9421TIP3    H128204   7.228   7.802   1.416
 9421TIP3    H228205   7.125   7.839   1.521
 9422TIP3   OH228206   1.638   6.945   5.876
 9422TIP3    H128207   1.598   6.858   5.874
 9422TIP3    H228208   1.572   7.000   5.919
 9423TIP3   OH228209   7.252   6.348   5.195
 9423TIP3    H128210   7.266   6.384   5.283
 9423TIP3    H228211   7.332   6.370   5.148
 9424TIP3   OH228212   7.339   5.395   3.342
 9424TIP3    H128213   7.279   5.327   3.311
 9424TIP3    H228214   7.285   5.453   3.394
 9425TIP3   OH228215   2.749   4.643   0.734
 9425TIP3    H128216   2.776   4.614   0.647
 9425TIP3    H228217   2.706   4.728   0.718
 9426TIP3   OH228218   2.769   0.133   5.724
 9426TIP3    H128219   2.691   0.130   5.780
 9426TIP3    H228220   2.738   0.101   5.639
 9427TIP3   OH228221   8.063   5.392   3.980
 9427TIP3    H128222   8.142   5.394   3.926
 9427TIP3    H228223   7.991   5.391   3.917
 9428TIP3   OH228224   0.216   4.427   5.034
 9428TIP3    H128225   0.283   4.382   5.086
 9428TIP3    H228226   0.140   4.369   5.036
 9429TIP3   OH228227   6.958   0.111   0.691
 9429TIP3    H128228   6.886   0.125   0.630
 9429TIP3    H228229   6.933   0.161   0.769
 9430TIP3   OH228230   7.809   6.146   6.603
 9430TIP3    H128231   7.859   6.090   6.543
 9430TIP3    H228232   7.857   6.229   6.604
 9431TIP3   OH228233   5.804   6.702   4.291
 9431TIP3    H128234   5.725   6.702   4.237
 9431TIP3    H228235   5.803   6.787   4.335
 9432TIP3   OH228236   2.731   1.889   6.576
 9432TIP3    H128237   2.729   1.883   6.672
 9432TIP3    H228238   2.750   1.800   6.547
 9433TIP3   OH228239   2.784   6.413   6.462
 9433TIP3    H128240   2.738   6.402   6.378
 9433TIP3    H228241   2.748   6.345   6.518
 9434TIP3   OH228242   6.075   5.872   3.446
 9434TIP3    H128243   6.159   5.826   3.444
 9434TIP3    H228244   6.074   5.923   3.365
 9435TIP3   OH228245   1.012   1.774   5.024
 9435TIP3    H128246   0.922   1.750   5.045
 9435TIP3    H228247   1.025   1.743   4.934
 9436TIP3   OH228248   6.565   1.916   2.307
 9436TIP3    H128249   6.557   1.973   2.230
 9436TIP3    H228250   6.550   1.828   2.274
 9437TIP3   OH228251   4.405   3.532   0.651
 9437TIP3    H128252   4.446   3.455   0.691
 9437TIP3    H228253   4.450   3.606   0.692
 9438TIP3   OH228254   4.270   3.418   4.794
 9438TIP3    H128255   4.255   3.479   4.722
 9438TIP3    H228256   4.201   3.353   4.786
 9439TIP3   OH228257   5.882   7.563   3.401
 9439TIP3    H128258   5.915   7.648   3.430
 9439TIP3    H228259   5.958   7.505   3.408
 9440TIP3   OH228260   1.745   6.064   6.059
 9440TIP3    H128261   1.683   6.040   5.990
 9440TIP3    H228262   1.795   6.136   6.022
 9441TIP3   OH228263   8.424   5.634   3.424
 9441TIP3    H128264   8.397   5.544   3.407
 9441TIP3    H228265   8.341   5.680   3.439
 9442TIP3   OH228266   0.680   6.018   2.145
 9442TIP3    H128267   0.589   5.991   2.134
 9442TIP3    H228268   0.682   6.059   2.231
 9443TIP3   OH228269   3.886   0.640   5.352
 9443TIP3    H128270   3.791   0.647   5.351
 9443TIP3    H228271   3.916   0.726   5.382
 9444TIP3   OH228272   6.815   0.136   1.738
 9444TIP3    H128273   6.760   0.212   1.717
 9444TIP3    H228274   6.789   0.069   1.674
 9445TIP3   OH228275   7.146   1.734   2.277
 9445TIP3    H128276   7.233   1.774   2.278
 9445TIP3    H228277   7.150   1.672   2.204
 9446TIP3   OH228278   8.368   0.319   3.120
 9446TIP3    H128279   8.334   0.402   3.086
 9446TIP3    H228280   8.462   0.325   3.106
 9447TIP3   OH228281   5.510   6.682   5.327
 9447TIP3    H128282   5.436   6.743   5.319
 9447TIP3    H228283   5.472   6.606   5.371
 9448TIP3   OH228284   4.998   4.640   2.789
 9448TIP3    H128285   4.932   4.693   2.744
 9448TIP3    H228286   4.977   4.649   2.882
 9449TIP3   OH228287   4.116   5.655   5.553
 9449TIP3    H128288   4.044   5.634   5.612
 9449TIP3    H228289   4.139   5.745   5.574
 9450TIP3   OH228290   1.613   3.361   3.529
 9450TIP3    H128291   1.530   3.316   3.517
 9450TIP3    H228292   1.679   3.297   3.502
 9451TIP3   OH228293   1.078   4.572   1.302
 9451TIP3    H128294   1.141   4.621   1.249
 9451TIP3    H228295   1.045   4.636   1.365
 9452TIP3   OH228296   1.275   0.903   3.644
 9452TIP3    H128297   1.288   0.822   3.594
 9452TIP3    H228298   1.182   0.922   3.634
 9453TIP3   OH228299   2.947   6.614   2.066
 9453TIP3    H128300   3.028   6.651   2.032
 9453TIP3    H228301   2.921   6.673   2.137
 9454TIP3   OH228302   5.133   0.045   6.198
 9454TIP3    H128303   5.205  -0.009   6.229
 9454TIP3    H228304   5.086  -0.012   6.136
 9455TIP3   OH228305   6.838   1.203   0.419
 9455TIP3    H128306   6.801   1.205   0.508
 9455TIP3    H228307   6.930   1.223   0.432
 9456TIP3   OH228308   4.134   2.612   3.739
 9456TIP3    H128309   4.171   2.639   3.654
 9456TIP3    H228310   4.188   2.656   3.804
 9457TIP3   OH228311   1.382   6.426   0.538
 9457TIP3    H128312   1.467   6.411   0.581
 9457TIP3    H228313   1.403   6.430   0.445
 9458TIP3   OH228314   7.421   2.206   0.842
 9458TIP3    H128315   7.339   2.158   0.830
 9458TIP3    H228316   7.412   2.249   0.927
 9459TIP3   OH228317   7.535   3.655   5.683
 9459TIP3    H128318   7.583   3.573   5.678
 9459TIP3    H228319   7.448   3.634   5.650
 9460TIP3   OH228320   0.177   2.900   3.360
 9460TIP3    H128321   0.126   2.830   3.320
 9460TIP3    H228322   0.267   2.867   3.360
 9461TIP3   OH228323   1.059   7.017   4.666
 9461TIP3    H128324   1.128   7.083   4.676
 9461TIP3    H228325   1.018   7.011   4.752
 9462TIP3   OH228326   2.366   6.505   2.400
 9462TIP3    H128327   2.423   6.507   2.322
 9462TIP3    H228328   2.426   6.496   2.473
 9463TIP3   OH228329   0.641   0.522   4.457
 9463TIP3    H128330   0.575   0.490   4.519
 9463TIP3    H228331   0.590   0.569   4.391
 9464TIP3   OH228332   5.015   0.823   1.838
 9464TIP3    H128333   4.948   0.883   1.870
 9464TIP3    H228334   4.977   0.736   1.846
 9465TIP3   OH228335   4.408   5.870   0.541
 9465TIP3    H128336   4.482   5.842   0.595
 9465TIP3    H228337   4.418   5.964   0.533
 9466TIP3   OH228338   2.141   2.774   2.582
 9466TIP3    H128339   2.120   2.753   2.490
 9466TIP3    H228340   2.230   2.741   2.594
 9467TIP3   OH228341   3.809   3.288   0.497
 9467TIP3    H128342   3.832   3.323   0.583
 9467TIP3    H228343   3.835   3.355   0.435
 9468TIP3   OH228344   3.204   6.917   0.171
 9468TIP3    H128345   3.247   7.001   0.154
 9468TIP3    H228346   3.142   6.936   0.242
 9469TIP3   OH228347   1.826   7.404   3.276
 9469TIP3    H128348   1.799   7.496   3.270
 9469TIP3    H228349   1.802   7.378   3.365
 9470TIP3   OH228350   6.312   7.724   6.810
 9470TIP3    H128351   6.238   7.773   6.848
 9470TIP3    H228352   6.275   7.638   6.790
 9471TIP3   OH228353   2.052   3.892   0.712
 9471TIP3    H128354   2.142   3.862   0.700
 9471TIP3    H228355   2.046   3.914   0.805
 9472TIP3   OH228356   2.541   2.010   1.032
 9472TIP3    H128357   2.578   1.954   0.964
 9472TIP3    H228358   2.523   2.093   0.988
 9473TIP3   OH228359   7.207   6.007   4.192
 9473TIP3    H128360   7.291   6.042   4.162
 9473TIP3    H228361   7.197   5.924   4.144
 9474TIP3   OH228362   4.938   2.587   2.793
 9474TIP3    H128363   4.982   2.503   2.777
 9474TIP3    H228364   4.934   2.628   2.707
 9475TIP3   OH228365   3.721   2.510   1.273
 9475TIP3    H128366   3.803   2.466   1.251
 9475TIP3    H228367   3.747   2.599   1.299
 9476TIP3   OH228368   0.652   5.800   6.767
 9476TIP3    H128369   0.606   5.827   6.688
 9476TIP3    H228370   0.586   5.801   6.835
 9477TIP3   OH228371   0.923   0.869   4.611
 9477TIP3    H128372   0.932   0.899   4.520
 9477TIP3    H228373   0.993   0.804   4.622
 9478TIP3   OH228374   0.715   0.780   6.610
 9478TIP3    H128375   0.689   0.790   6.701
 9478TIP3    H228376   0.696   0.688   6.589
 9479TIP3   OH228377   1.750   7.026   1.265
 9479TIP3    H128378   1.801   6.946   1.258
 9479TIP3    H228379   1.812   7.097   1.246
 9480TIP3   OH228380   5.456   1.506   0.353
 9480TIP3    H128381   5.421   1.461   0.276
 9480TIP3    H228382   5.384   1.504   0.417
 9481TIP3   OH228383   0.249   5.104   0.792
 9481TIP3    H128384   0.192   5.112   0.716
 9481TIP3    H228385   0.329   5.151   0.767
 9482TIP3   OH228386   1.959   3.316   3.732
 9482TIP3    H128387   1.901   3.241   3.719
 9482TIP3    H228388   2.047   3.279   3.730
 9483TIP3   OH228389   0.902   4.735   4.424
 9483TIP3    H128390   0.875   4.656   4.377
 9483TIP3    H228391   0.825   4.791   4.424
 9484TIP3   OH228392   4.765   6.561   0.092
 9484TIP3    H128393   4.837   6.612   0.130
 9484TIP3    H228394   4.688   6.618   0.103
 9485TIP3   OH228395   8.338   7.416   5.301
 9485TIP3    H128396   8.315   7.509   5.295
 9485TIP3    H228397   8.358   7.403   5.394
 9486TIP3   OH228398   5.259   2.789   5.148
 9486TIP3    H128399   5.303   2.779   5.233
 9486TIP3    H228400   5.176   2.833   5.170
 9487TIP3   OH228401   3.843   2.203   2.128
 9487TIP3    H128402   3.762   2.170   2.167
 9487TIP3    H228403   3.828   2.297   2.118
 9488TIP3   OH228404   3.152   0.438   5.900
 9488TIP3    H128405   3.099   0.517   5.917
 9488TIP3    H228406   3.120   0.406   5.816
 9489TIP3   OH228407   2.249   7.426   3.512
 9489TIP3    H128408   2.307   7.454   3.440
 9489TIP3    H228409   2.302   7.363   3.561
 9490TIP3   OH228410   1.583   7.606   0.293
 9490TIP3    H128411   1.610   7.696   0.273
 9490TIP3    H228412   1.624   7.553   0.225
 9491TIP3   OH228413   3.275   4.851   2.123
 9491TIP3    H128414   3.363   4.872   2.153
 9491TIP3    H228415   3.288   4.811   2.037
 9492TIP3   OH228416   1.675   0.761   2.154
 9492TIP3    H128417   1.583   0.779   2.132
 9492TIP3    H228418   1.678   0.665   2.163
 9493TIP3   OH228419   5.176   5.992   6.392
 9493TIP3    H128420   5.157   6.017   6.482
 9493TIP3    H228421   5.216   6.070   6.353
 9494TIP3   OH228422   3.820   5.486   3.952
 9494TIP3    H128423   3.883   5.537   4.002
 9494TIP3    H228424   3.771   5.552   3.901
 9495TIP3   OH228425   2.491   3.238   2.034
 9495TIP3    H128426   2.428   3.188   1.981
 9495TIP3    H228427   2.436   3.291   2.092
 9496TIP3   OH228428   4.702   1.986   5.161
 9496TIP3    H128429   4.738   1.943   5.083
 9496TIP3    H228430   4.729   2.077   5.152
 9497TIP3   OH228431   4.472   7.137   4.492
 9497TIP3    H128432   4.550   7.160   4.441
 9497TIP3    H228433   4.492   7.164   4.581
 9498TIP3   OH228434   1.369   3.567   0.334
 9498TIP3    H128435   1.429   3.605   0.399
 9498TIP3    H228436   1.335   3.489   0.377
 9499TIP3   OH228437   3.361   2.916   1.987
 9499TIP3    H128438   3.332   2.840   1.937
 9499TIP3    H228439   3.308   2.913   2.067
 9500TIP3   OH228440   3.981   2.299   5.069
 9500TIP3    H128441   3.963   2.287   5.162
 9500TIP3    H228442   4.072   2.271   5.058
 9501TIP3   OH228443   3.323   4.709   1.907
 9501TIP3    H128444   3.418   4.713   1.904
 9501TIP3    H228445   3.302   4.616   1.914
 9502TIP3   OH228446   4.019   4.978   6.251
 9502TIP3    H128447   4.064   4.906   6.295
 9502TIP3    H228448   3.936   4.985   6.297
 9503TIP3   OH228449   1.714   2.511   1.812
 9503TIP3    H128450   1.802   2.548   1.803
 9503TIP3    H228451   1.709   2.445   1.743
 9504TIP3   OH228452   2.998   3.293   5.078
 9504TIP3    H128453   3.018   3.335   4.995
 9504TIP3    H228454   3.026   3.356   5.144
 9505TIP3   OH228455   0.338   1.784   5.128
 9505TIP3    H128456   0.402   1.778   5.199
 9505TIP3    H228457   0.274   1.715   5.148
 9506TIP3   OH228458   7.556   6.639   5.983
 9506TIP3    H128459   7.536   6.690   5.905
 9506TIP3    H228460   7.477   6.587   5.999
 9507TIP3   OH228461   2.397   5.189   4.691
 9507TIP3    H128462   2.390   5.120   4.625
 9507TIP3    H228463   2.402   5.270   4.640
 9508TIP3   OH228464   6.195   1.552   0.111
 9508TIP3    H128465   6.177   1.511   0.195
 9508TIP3    H228466   6.226   1.639   0.133
 9509TIP3   OH228467   8.063   0.748   3.876
 9509TIP3    H128468   8.018   0.717   3.797
 9509TIP3    H228469   8.075   0.842   3.861
 9510TIP3   OH228470   3.614   0.962   3.343
 9510TIP3    H128471   3.630   1.023   3.271
 9510TIP3    H228472   3.598   1.018   3.419
 9511TIP3   OH228473   1.843   5.162   2.593
 9511TIP3    H128474   1.787   5.183   2.518
 9511TIP3    H228475   1.831   5.236   2.653
 9512TIP3   OH228476   4.168   3.494   1.029
 9512TIP3    H128477   4.093   3.508   1.086
 9512TIP3    H228478   4.130   3.480   0.942
 9513TIP3   OH228479   2.227   1.362   5.241
 9513TIP3    H128480   2.274   1.288   5.278
 9513TIP3    H228481   2.228   1.428   5.311
 9514TIP3   OH228482   4.791   5.934   1.692
 9514TIP3    H128483   4.864   5.896   1.644
 9514TIP3    H228484   4.754   5.998   1.631
 9515TIP3   OH228485   7.559   5.938   6.617
 9515TIP3    H128486   7.530   5.852   6.647
 9515TIP3    H228487   7.655   5.933   6.622
 9516TIP3   OH228488   6.857   3.322   4.631
 9516TIP3    H128489   6.797   3.270   4.684
 9516TIP3    H228490   6.910   3.369   4.696
 9517TIP3   OH228491   3.765   5.683   1.905
 9517TIP3    H128492   3.784   5.752   1.841
 9517TIP3    H228493   3.736   5.608   1.852
 9518TIP3   OH228494   7.093   0.917   5.922
 9518TIP3    H128495   7.015   0.932   5.869
 9518TIP3    H228496   7.166   0.931   5.862
 9519TIP3   OH228497   0.185   0.187   0.150
 9519TIP3    H128498   0.177   0.202   0.245
 9519TIP3    H228499   0.280   0.181   0.135
 9520TIP3   OH228500   3.206   4.025   1.797
 9520TIP3    H128501   3.168   3.971   1.866
 9520TIP3    H228502   3.282   4.066   1.838
 9521TIP3   OH228503   5.758   6.136   4.770
 9521TIP3    H128504   5.851   6.145   4.789
 9521TIP3    H228505   5.728   6.066   4.828
 9522TIP3   OH228506   4.140   2.593   4.681
 9522TIP3    H128507   4.169   2.588   4.773
 9522TIP3    H228508   4.049   2.622   4.687
 9523TIP3   OH228509   2.663   1.467   1.638
 9523TIP3    H128510   2.664   1.470   1.734
 9523TIP3    H228511   2.639   1.377   1.618
 9524TIP3   OH228512   4.549   6.693   1.026
 9524TIP3    H128513   4.596   6.729   0.951
 9524TIP3    H228514   4.616   6.644   1.074
 9525TIP3   OH228515   1.441   6.847   4.437
 9525TIP3    H128516   1.417   6.935   4.410
 9525TIP3    H228517   1.521   6.858   4.489
 9526TIP3   OH228518   2.920   4.650   2.245
 9526TIP3    H128519   2.924   4.657   2.150
 9526TIP3    H228520   2.827   4.641   2.265
 9527TIP3   OH228521   3.992   3.087   1.054
 9527TIP3    H128522   3.935   3.082   0.978
 9527TIP3    H228523   4.055   3.156   1.034
 9528TIP3   OH228524   2.710   1.150   2.797
 9528TIP3    H128525   2.625   1.194   2.795
 9528TIP3    H228526   2.773   1.222   2.810
 9529TIP3   OH228527   6.789   5.513   4.760
 9529TIP3    H128528   6.804   5.470   4.676
 9529TIP3    H228529   6.871   5.557   4.780
 9530TIP3   OH228530   7.896   5.248   2.844
 9530TIP3    H128531   7.827   5.205   2.894
 9530TIP3    H228532   7.899   5.200   2.761
 9531TIP3   OH228533   3.472   7.401   3.068
 9531TIP3    H128534   3.468   7.343   2.992
 9531TIP3    H228535   3.413   7.473   3.047
 9532TIP3   OH228536   2.252   1.733   4.868
 9532TIP3    H128537   2.256   1.808   4.927
 9532TIP3    H228538   2.215   1.663   4.923
 9533TIP3   OH228539   0.413   4.404   6.588
 9533TIP3    H128540   0.482   4.337   6.582
 9533TIP3    H228541   0.396   4.413   6.682
 9534TIP3   OH228542   0.051   6.944   4.232
 9534TIP3    H128543   0.131   6.891   4.238
 9534TIP3    H228544   0.077   7.022   4.182
 9535TIP3   OH228545   0.357   0.505   2.377
 9535TIP3    H128546   0.380   0.418   2.409
 9535TIP3    H228547   0.440   0.544   2.349
 9536TIP3   OH228548   0.059   7.038   5.279
 9536TIP3    H128549   0.069   6.951   5.319
 9536TIP3    H228550   0.020   7.091   5.348
 9537TIP3   OH228551   6.087   3.096   1.672
 9537TIP3    H128552   6.116   3.185   1.653
 9537TIP3    H228553   5.996   3.093   1.641
 9538TIP3   OH228554   4.570   5.753   0.316
 9538TIP3    H128555   4.489   5.788   0.279
 9538TIP3    H228556   4.561   5.763   0.410
 9539TIP3   OH228557   3.585   5.965   4.226
 9539TIP3    H128558   3.649   5.972   4.297
 9539TIP3    H228559   3.595   5.876   4.194
 9540TIP3   OH228560   1.751   7.545   2.923
 9540TIP3    H128561   1.683   7.593   2.970
 9540TIP3    H228562   1.763   7.465   2.973
 9541TIP3   OH228563   0.309   1.692   4.207
 9541TIP3    H128564   0.242   1.731   4.151
 9541TIP3    H228565   0.342   1.617   4.158
 9542TIP3   OH228566   6.154   1.331   4.766
 9542TIP3    H128567   6.138   1.415   4.723
 9542TIP3    H228568   6.227   1.293   4.717
 9543TIP3   OH228569   6.029   4.009   0.161
 9543TIP3    H128570   6.056   4.079   0.102
 9543TIP3    H228571   5.948   4.042   0.200
 9544TIP3   OH228572   2.954   0.089   3.395
 9544TIP3    H128573   2.935   0.119   3.306
 9544TIP3    H228574   2.992   0.002   3.383
 9545TIP3   OH228575   2.693   7.298   1.790
 9545TIP3    H128576   2.633   7.302   1.865
 9545TIP3    H228577   2.721   7.389   1.777
 9546TIP3   OH228578   3.609   0.452   1.487
 9546TIP3    H128579   3.647   0.438   1.400
 9546TIP3    H228580   3.642   0.537   1.515
 9547TIP3   OH228581   5.414   6.814   4.325
 9547TIP3    H128582   5.436   6.744   4.388
 9547TIP3    H228583   5.355   6.871   4.374
 9548TIP3   OH228584   6.339   1.456   6.754
 9548TIP3    H128585   6.367   1.460   6.846
 9548TIP3    H228586   6.345   1.547   6.724
 9549TIP3   OH228587   1.308   1.418   3.026
 9549TIP3    H128588   1.256   1.357   3.078
 9549TIP3    H228589   1.379   1.445   3.084
 9550TIP3   OH228590   0.491   6.202   6.329
 9550TIP3    H128591   0.397   6.187   6.333
 9550TIP3    H228592   0.511   6.205   6.235
 9551TIP3   OH228593   2.708   0.437   3.190
 9551TIP3    H128594   2.664   0.357   3.160
 9551TIP3    H228595   2.663   0.461   3.271
 9552TIP3   OH228596   2.725   3.632   6.802
 9552TIP3    H128597   2.764   3.605   6.719
 9552TIP3    H228598   2.643   3.583   6.807
 9553TIP3   OH228599   6.993   2.139   5.002
 9553TIP3    H128600   6.996   2.105   5.091
 9553TIP3    H228601   7.080   2.176   4.987
 9554TIP3   OH228602   5.599   2.872   1.097
 9554TIP3    H128603   5.521   2.899   1.048
 9554TIP3    H228604   5.573   2.790   1.140
 9555TIP3   OH228605   2.995   7.413   4.897
 9555TIP3    H128606   2.962   7.335   4.853
 9555TIP3    H228607   3.005   7.478   4.827
 9556TIP3   OH228608   7.242   6.088   1.204
 9556TIP3    H128609   7.329   6.056   1.227
 9556TIP3    H228610   7.247   6.183   1.219
 9557TIP3   OH228611   3.334   1.113   2.113
 9557TIP3    H128612   3.368   1.108   2.024
 9557TIP3    H228613   3.377   1.041   2.159
 9558TIP3   OH228614   3.340   4.741   4.191
 9558TIP3    H128615   3.427   4.710   4.215
 9558TIP3    H228616   3.280   4.680   4.233
 9559TIP3   OH228617   4.215   3.353   6.127
 9559TIP3    H128618   4.179   3.423   6.181
 9559TIP3    H228619   4.164   3.276   6.151
 9560TIP3   OH228620   0.383   4.418   3.121
 9560TIP3    H128621   0.392   4.384   3.032
 9560TIP3    H228622   0.293   4.397   3.146
 9561TIP3   OH228623   8.159   5.266   5.312
 9561TIP3    H128624   8.174   5.214   5.233
 9561TIP3    H228625   8.149   5.201   5.381
 9562TIP3   OH228626   5.054   5.153   0.369
 9562TIP3    H128627   5.074   5.159   0.275
 9562TIP3    H228628   5.070   5.241   0.403
 9563TIP3   OH228629   2.580   2.735   3.678
 9563TIP3    H128630   2.612   2.729   3.767
 9563TIP3    H228631   2.524   2.813   3.677
 9564TIP3   OH228632   1.766   0.836   3.413
 9564TIP3    H128633   1.834   0.820   3.347
 9564TIP3    H228634   1.689   0.859   3.363
 9565TIP3   OH228635   1.368   2.612   2.546
 9565TIP3    H128636   1.353   2.626   2.640
 9565TIP3    H228637   1.311   2.676   2.503
 9566TIP3   OH228638   3.540   3.693   2.747
 9566TIP3    H128639   3.585   3.716   2.829
 9566TIP3    H228640   3.599   3.631   2.704
 9567TIP3   OH228641   0.277   4.954   4.483
 9567TIP3    H128642   0.288   5.005   4.402
 9567TIP3    H228643   0.285   5.019   4.553
 9568TIP3   OH228644   5.744   4.773   0.170
 9568TIP3    H128645   5.736   4.823   0.088
 9568TIP3    H228646   5.707   4.831   0.237
 9569TIP3   OH228647   2.317   2.824   1.778
 9569TIP3    H128648   2.358   2.863   1.701
 9569TIP3    H228649   2.299   2.898   1.836
 9570TIP3   OH228650   7.294   4.148   3.779
 9570TIP3    H128651   7.310   4.091   3.704
 9570TIP3    H228652   7.377   4.193   3.794
 9571TIP3   OH228653   0.410   6.153   5.495
 9571TIP3    H128654   0.431   6.186   5.582
 9571TIP3    H228655   0.488   6.170   5.443
 9572TIP3   OH228656   3.153   5.260   3.887
 9572TIP3    H128657   3.221   5.239   3.950
 9572TIP3    H228658   3.077   5.210   3.915
 9573TIP3   OH228659   3.119   2.850   5.883
 9573TIP3    H128660   3.044   2.893   5.843
 9573TIP3    H228661   3.125   2.889   5.971
 9574TIP3   OH228662   2.017   2.367   4.600
 9574TIP3    H128663   2.037   2.287   4.649
 9574TIP3    H228664   1.962   2.418   4.661
 9575TIP3   OH228665   5.138   5.229   1.944
 9575TIP3    H128666   5.223   5.188   1.926
 9575TIP3    H228667   5.074   5.170   1.903
 9576TIP3   OH228668   0.065   5.298   2.861
 9576TIP3    H128669   0.074   5.373   2.803
 9576TIP3    H228670  -0.028   5.279   2.863
 9577TIP3   OH228671   4.434   2.457   6.173
 9577TIP3    H128672   4.394   2.508   6.243
 9577TIP3    H228673   4.483   2.522   6.122
 9578TIP3   OH228674   2.212   5.625   6.189
 9578TIP3    H128675   2.187   5.623   6.097
 9578TIP3    H228676   2.168   5.549   6.227
 9579TIP3   OH228677   6.488   2.739   3.700
 9579TIP3    H128678   6.411   2.684   3.683
 9579TIP3    H228679   6.543   2.727   3.623
 9580TIP3   OH228680   1.691   5.637   4.065
 9580TIP3    H128681   1.748   5.680   4.001
 9580TIP3    H228682   1.723   5.547   4.068
 9581TIP3   OH228683   8.077   2.224   2.460
 9581TIP3    H128684   8.122   2.294   2.508
 9581TIP3    H228685   8.010   2.193   2.521
 9582TIP3   OH228686   0.991   0.879   0.207
 9582TIP3    H128687   0.995   0.784   0.194
 9582TIP3    H228688   1.025   0.915   0.125
 9583TIP3   OH228689   4.076   4.252   3.949
 9583TIP3    H128690   4.094   4.255   3.855
 9583TIP3    H228691   4.148   4.301   3.988
 9584TIP3   OH228692   3.122   0.729   3.659
 9584TIP3    H128693   3.076   0.652   3.624
 9584TIP3    H228694   3.077   0.804   3.619
 9585TIP3   OH228695   0.370   7.814   0.961
 9585TIP3    H128696   0.374   7.734   1.013
 9585TIP3    H228697   0.343   7.882   1.023
 9586TIP3   OH228698   4.320   5.837   0.173
 9586TIP3    H128699   4.337   5.927   0.200
 9586TIP3    H228700   4.284   5.845   0.084
 9587TIP3   OH228701   3.342   5.685   4.367
 9587TIP3    H128702   3.265   5.701   4.421
 9587TIP3    H228703   3.310   5.688   4.277
 9588TIP3   OH228704   7.436   3.472   4.222
 9588TIP3    H128705   7.430   3.408   4.151
 9588TIP3    H228706   7.482   3.546   4.184
 9589TIP3   OH228707   2.739   2.664   1.285
 9589TIP3    H128708   2.766   2.749   1.248
 9589TIP3    H228709   2.726   2.682   1.378
 9590TIP3   OH228710   3.165   0.747   1.473
 9590TIP3    H128711   3.249   0.737   1.428
 9590TIP3    H228712   3.123   0.822   1.429
 9591TIP3   OH228713   2.725   1.581   5.591
 9591TIP3    H128714   2.736   1.550   5.502
 9591TIP3    H228715   2.632   1.600   5.599
 9592TIP3   OH228716   0.544   1.438   1.542
 9592TIP3    H128717   0.606   1.386   1.593
 9592TIP3    H228718   0.578   1.528   1.547
 9593TIP3   OH228719   1.443   3.147   3.521
 9593TIP3    H128720   1.356   3.108   3.533
 9593TIP3    H228721   1.502   3.089   3.569
 9594TIP3   OH228722   1.343   3.876   3.307
 9594TIP3    H128723   1.409   3.807   3.313
 9594TIP3    H228724   1.394   3.956   3.294
 9595TIP3   OH228725   5.658   6.865   0.815
 9595TIP3    H128726   5.687   6.863   0.724
 9595TIP3    H228727   5.599   6.940   0.820
 9596TIP3   OH228728   7.570   4.230   1.220
 9596TIP3    H128729   7.625   4.304   1.246
 9596TIP3    H228730   7.602   4.205   1.133
 9597TIP3   OH228731   2.991   0.663   1.669
 9597TIP3    H128732   3.067   0.684   1.615
 9597TIP3    H228733   2.923   0.724   1.640
 9598TIP3   OH228734   3.314   2.699   1.829
 9598TIP3    H128735   3.342   2.624   1.882
 9598TIP3    H228736   3.335   2.674   1.739
 9599TIP3   OH228737   7.870   0.998   5.594
 9599TIP3    H128738   7.936   1.003   5.524
 9599TIP3    H228739   7.918   0.963   5.669
 9600TIP3   OH228740   6.838   1.754   2.252
 9600TIP3    H128741   6.918   1.761   2.304
 9600TIP3    H228742   6.847   1.672   2.203
 9601TIP3   OH228743   6.332   1.224   4.078
 9601TIP3    H128744   6.254   1.177   4.107
 9601TIP3    H228745   6.404   1.165   4.099
 9602TIP3   OH228746   3.300   4.476   0.520
 9602TIP3    H128747   3.237   4.405   0.529
 9602TIP3    H228748   3.358   4.467   0.596
 9603TIP3   OH228749   4.593   3.357   0.788
 9603TIP3    H128750   4.554   3.351   0.875
 9603TIP3    H228751   4.688   3.353   0.804
 9604TIP3   OH228752   7.999   4.705   5.418
 9604TIP3    H128753   8.000   4.734   5.326
 9604TIP3    H228754   8.068   4.639   5.423
 9605TIP3   OH228755   8.352   6.864   3.261
 9605TIP3    H128756   8.285   6.915   3.216
 9605TIP3    H228757   8.429   6.921   3.264
 9606TIP3   OH228758   8.180   0.053   3.837
 9606TIP3    H128759   8.088   0.042   3.811
 9606TIP3    H228760   8.178   0.124   3.901
 9607TIP3   OH228761   2.080   5.403   4.376
 9607TIP3    H128762   1.985   5.410   4.365
 9607TIP3    H228763   2.098   5.441   4.462
 9608TIP3   OH228764   7.028   4.504   4.332
 9608TIP3    H128765   6.999   4.580   4.382
 9608TIP3    H228766   7.082   4.453   4.393
 9609TIP3   OH228767   6.925   2.956   0.324
 9609TIP3    H128768   6.860   3.026   0.317
 9609TIP3    H228769   6.902   2.910   0.405
 9610TIP3   OH228770   2.817   5.062   4.677
 9610TIP3    H128771   2.794   5.153   4.695
 9610TIP3    H228772   2.744   5.011   4.711
 9611TIP3   OH228773   3.737   7.374   1.457
 9611TIP3    H128774   3.814   7.321   1.438
 9611TIP3    H228775   3.666   7.311   1.467
 9612TIP3   OH228776   7.197   6.561   4.064
 9612TIP3    H128777   7.233   6.598   3.984
 9612TIP3    H228778   7.237   6.612   4.135
 9613TIP3   OH228779   1.994   0.795   3.195
 9613TIP3    H128780   2.042   0.749   3.264
 9613TIP3    H228781   2.020   0.750   3.115
 9614TIP3   OH228782   4.835   1.135   3.505
 9614TIP3    H128783   4.880   1.218   3.494
 9614TIP3    H228784   4.893   1.071   3.462
 9615TIP3   OH228785   4.514   2.943   0.293
 9615TIP3    H128786   4.511   3.038   0.282
 9615TIP3    H228787   4.607   2.922   0.298
 9616TIP3   OH228788   0.979   2.888   0.594
 9616TIP3    H128789   0.912   2.825   0.568
 9616TIP3    H228790   1.022   2.848   0.669
 9617TIP3   OH228791   1.600   2.909   0.074
 9617TIP3    H128792   1.571   2.999   0.054
 9617TIP3    H228793   1.536   2.854   0.029
 9618TIP3   OH228794   8.220   5.621   1.887
 9618TIP3    H128795   8.209   5.701   1.939
 9618TIP3    H228796   8.257   5.558   1.949
 9619TIP3   OH228797   2.217   7.174   0.601
 9619TIP3    H128798   2.280   7.212   0.539
 9619TIP3    H228799   2.149   7.240   0.610
 9620TIP3   OH228800   1.425   1.008   5.561
 9620TIP3    H128801   1.480   0.970   5.492
 9620TIP3    H228802   1.362   0.939   5.582
 9621TIP3   OH228803   0.444   7.140   2.246
 9621TIP3    H128804   0.412   7.077   2.311
 9621TIP3    H228805   0.537   7.150   2.267
 9622TIP3   OH228806   4.343   6.805   5.816
 9622TIP3    H128807   4.415   6.854   5.856
 9622TIP3    H228808   4.364   6.805   5.722
 9623TIP3   OH228809   5.048   6.663   6.193
 9623TIP3    H128810   5.029   6.622   6.278
 9623TIP3    H228811   5.138   6.636   6.174
 9624TIP3   OH228812   2.241   3.323   2.141
 9624TIP3    H128813   2.200   3.288   2.062
 9624TIP3    H228814   2.176   3.382   2.177
 9625TIP3   OH228815   0.376   7.075   4.102
 9625TIP3    H128816   0.469   7.054   4.096
 9625TIP3    H228817   0.345   7.026   4.178
 9626TIP3   OH228818   7.965   2.453   2.299
 9626TIP3    H128819   8.024   2.378   2.294
 9626TIP3    H228820   7.898   2.426   2.363
 9627TIP3   OH228821   5.581   1.954   1.364
 9627TIP3    H128822   5.527   1.930   1.439
 9627TIP3    H228823   5.556   2.045   1.345
 9628TIP3   OH228824   5.089   1.713   6.599
 9628TIP3    H128825   5.142   1.792   6.612
 9628TIP3    H228826   5.087   1.671   6.685
 9629TIP3   OH228827   5.984   5.834   5.198
 9629TIP3    H128828   5.906   5.782   5.219
 9629TIP3    H228829   6.057   5.782   5.232
 9630TIP3   OH228830   0.286   4.013   2.047
 9630TIP3    H128831   0.301   4.055   2.131
 9630TIP3    H228832   0.367   3.964   2.030
 9631TIP3   OH228833   3.058   5.294   1.617
 9631TIP3    H128834   3.114   5.243   1.558
 9631TIP3    H228835   3.013   5.228   1.670
 9632TIP3   OH228836   3.185   0.351   1.259
 9632TIP3    H128837   3.127   0.422   1.230
 9632TIP3    H228838   3.270   0.373   1.220
 9633TIP3   OH228839   2.816   5.357   4.746
 9633TIP3    H128840   2.728   5.389   4.768
 9633TIP3    H228841   2.853   5.426   4.691
 9634TIP3   OH228842   6.909   5.110   2.283
 9634TIP3    H128843   6.819   5.139   2.270
 9634TIP3    H228844   6.902   5.019   2.311
 9635TIP3   OH228845   2.822   3.027   0.608
 9635TIP3    H128846   2.904   3.069   0.632
 9635TIP3    H228847   2.842   2.979   0.528
 9636TIP3   OH228848   2.119   6.821   5.107
 9636TIP3    H128849   2.077   6.769   5.175
 9636TIP3    H228850   2.135   6.759   5.035
 9637TIP3   OH228851   6.907   7.238   6.245
 9637TIP3    H128852   6.823   7.255   6.288
 9637TIP3    H228853   6.891   7.161   6.190
 9638TIP3   OH228854   3.288   6.008   3.228
 9638TIP3    H128855   3.304   5.913   3.234
 9638TIP3    H228856   3.331   6.044   3.305
 9639TIP3   OH228857   5.254   2.959   4.201
 9639TIP3    H128858   5.230   2.946   4.110
 9639TIP3    H228859   5.309   2.883   4.222
 9640TIP3   OH228860   8.361   3.425   3.653
 9640TIP3    H128861   8.415   3.479   3.711
 9640TIP3    H228862   8.345   3.480   3.576
 9641TIP3   OH228863   2.968   2.182   6.416
 9641TIP3    H128864   2.887   2.134   6.399
 9641TIP3    H228865   2.944   2.251   6.478
 9642TIP3   OH228866   2.437   2.231   1.496
 9642TIP3    H128867   2.504   2.272   1.551
 9642TIP3    H228868   2.355   2.270   1.525
 9643TIP3   OH228869   1.113   7.227   3.294
 9643TIP3    H128870   1.187   7.252   3.350
 9643TIP3    H228871   1.152   7.177   3.223
 9644TIP3   OH228872   4.383   0.734   1.554
 9644TIP3    H128873   4.381   0.714   1.647
 9644TIP3    H228874   4.443   0.669   1.517
 9645TIP3   OH228875   5.643   6.139   2.823
 9645TIP3    H128876   5.547   6.144   2.816
 9645TIP3    H228877   5.675   6.174   2.740
 9646TIP3   OH228878   8.006   1.291   1.444
 9646TIP3    H128879   8.099   1.280   1.461
 9646TIP3    H228880   7.974   1.346   1.515
 9647TIP3   OH228881   5.996   1.300   3.124
 9647TIP3    H128882   5.995   1.269   3.215
 9647TIP3    H228883   6.051   1.237   3.078
 9648TIP3   OH228884   6.247   7.539   2.221
 9648TIP3    H128885   6.336   7.571   2.238
 9648TIP3    H228886   6.241   7.534   2.125
 9649TIP3   OH228887   5.737   0.191   4.092
 9649TIP3    H128888   5.654   0.239   4.087
 9649TIP3    H228889   5.713   0.106   4.128
 9650TIP3   OH228890   8.193   2.061   4.202
 9650TIP3    H128891   8.284   2.045   4.227
 9650TIP3    H228892   8.161   1.976   4.169
 9651TIP3   OH228893   5.545   1.856   5.780
 9651TIP3    H128894   5.568   1.771   5.743
 9651TIP3    H228895   5.598   1.919   5.730
 9652TIP3   OH228896   0.405   0.995   5.982
 9652TIP3    H128897   0.318   1.006   5.945
 9652TIP3    H228898   0.433   0.909   5.953
 9653TIP3   OH228899   7.954   4.423   1.704
 9653TIP3    H128900   7.958   4.357   1.635
 9653TIP3    H228901   8.008   4.388   1.774
 9654TIP3   OH228902   2.843   5.741   5.270
 9654TIP3    H128903   2.757   5.742   5.312
 9654TIP3    H228904   2.851   5.652   5.235
 9655TIP3   OH228905   3.841   5.504   5.456
 9655TIP3    H128906   3.868   5.458   5.536
 9655TIP3    H228907   3.765   5.555   5.482
 9656TIP3   OH228908   5.972   0.005   5.938
 9656TIP3    H128909   5.877   0.008   5.946
 9656TIP3    H228910   6.001   0.094   5.957
 9657TIP3   OH228911   8.215   5.179   3.545
 9657TIP3    H128912   8.149   5.132   3.594
 9657TIP3    H228913   8.263   5.230   3.611
 9658TIP3   OH228914   7.433   0.678   6.027
 9658TIP3    H128915   7.383   0.748   6.069
 9658TIP3    H228916   7.520   0.684   6.067
 9659TIP3   OH228917   4.373   1.003   5.228
 9659TIP3    H128918   4.378   0.916   5.267
 9659TIP3    H228919   4.321   1.054   5.289
 9660TIP3   OH228920   2.604   1.444   6.281
 9660TIP3    H128921   2.590   1.352   6.302
 9660TIP3    H228922   2.691   1.447   6.240
 9661TIP3   OH228923   5.171   3.847   6.773
 9661TIP3    H128924   5.256   3.855   6.818
 9661TIP3    H228925   5.193   3.856   6.680
 9662TIP3   OH228926   8.381   1.388   3.345
 9662TIP3    H128927   8.389   1.320   3.413
 9662TIP3    H228928   8.289   1.414   3.348
 9663TIP3   OH228929   5.046   3.701   3.763
 9663TIP3    H128930   4.978   3.754   3.722
 9663TIP3    H228931   4.999   3.630   3.807
 9664TIP3   OH228932   5.173   4.625   0.330
 9664TIP3    H128933   5.143   4.555   0.272
 9664TIP3    H228934   5.098   4.686   0.334
 9665TIP3   OH228935   3.098   7.743   5.441
 9665TIP3    H128936   3.140   7.662   5.411
 9665TIP3    H228937   3.006   7.733   5.414
 9666TIP3   OH228938   8.296   6.246   4.320
 9666TIP3    H128939   8.277   6.305   4.246
 9666TIP3    H228940   8.233   6.175   4.310
 9667TIP3   OH228941   6.976   5.453   2.351
 9667TIP3    H128942   7.054   5.405   2.322
 9667TIP3    H228943   7.005   5.544   2.354
 9668TIP3   OH228944   2.316   5.091   2.774
 9668TIP3    H128945   2.220   5.085   2.768
 9668TIP3    H228946   2.347   5.007   2.740
 9669TIP3   OH228947   7.759   2.639   6.303
 9669TIP3    H128948   7.828   2.703   6.285
 9669TIP3    H228949   7.717   2.623   6.219
 9670TIP3   OH228950   7.056   5.002   2.937
 9670TIP3    H128951   7.001   5.051   2.998
 9670TIP3    H228952   7.145   5.030   2.958
 9671TIP3   OH228953   1.552   4.300   1.603
 9671TIP3    H128954   1.468   4.347   1.600
 9671TIP3    H228955   1.538   4.230   1.666
 9672TIP3   OH228956   2.130   4.970   0.212
 9672TIP3    H128957   2.182   5.033   0.261
 9672TIP3    H228958   2.043   4.974   0.252
 9673TIP3   OH228959   6.995  -0.010   4.775
 9673TIP3    H128960   7.024   0.079   4.795
 9673TIP3    H228961   6.994  -0.055   4.859
 9674TIP3   OH228962   0.526   7.321   3.944
 9674TIP3    H128963   0.535   7.246   3.885
 9674TIP3    H228964   0.560   7.395   3.893
 9675TIP3   OH228965   6.426   2.188   6.232
 9675TIP3    H128966   6.390   2.272   6.258
 9675TIP3    H228967   6.382   2.167   6.149
 9676TIP3   OH228968   4.946   3.260   2.811
 9676TIP3    H128969   5.000   3.204   2.755
 9676TIP3    H228970   4.932   3.210   2.891
 9677TIP3   OH228971   6.575   6.682   0.860
 9677TIP3    H128972   6.580   6.683   0.764
 9677TIP3    H228973   6.592   6.773   0.885
 9678TIP3   OH228974   7.873   0.169   2.056
 9678TIP3    H128975   7.942   0.179   2.122
 9678TIP3    H228976   7.879   0.249   2.003
 9679TIP3   OH228977   0.410   3.847   3.662
 9679TIP3    H128978   0.471   3.837   3.589
 9679TIP3    H228979   0.324   3.824   3.625
 9680TIP3   OH228980   0.529   2.830   5.451
 9680TIP3    H128981   0.438   2.802   5.440
 9680TIP3    H228982   0.575   2.789   5.378
 9681TIP3   OH228983   1.104   2.187   3.494
 9681TIP3    H128984   1.155   2.112   3.526
 9681TIP3    H228985   1.133   2.198   3.404
 9682TIP3   OH228986   1.634   5.141   6.116
 9682TIP3    H128987   1.575   5.111   6.047
 9682TIP3    H228988   1.581   5.142   6.195
 9683TIP3   OH228989   4.832   0.477   5.117
 9683TIP3    H128990   4.742   0.488   5.147
 9683TIP3    H228991   4.854   0.386   5.140
 9684TIP3   OH228992   5.124   3.461   0.193
 9684TIP3    H128993   5.030   3.467   0.209
 9684TIP3    H228994   5.156   3.401   0.260
 9685TIP3   OH228995   2.129   4.684   4.281
 9685TIP3    H128996   2.108   4.606   4.333
 9685TIP3    H228997   2.224   4.683   4.272
 9686TIP3   OH228998   7.001   4.431   6.770
 9686TIP3    H128999   6.949   4.478   6.704
 9686TIP3    H229000   6.951   4.351   6.787
 9687TIP3   OH229001   8.303   3.547   6.712
 9687TIP3    H129002   8.379   3.500   6.678
 9687TIP3    H229003   8.229   3.514   6.661
 9688TIP3   OH229004   3.103   7.498   0.325
 9688TIP3    H129005   3.045   7.512   0.250
 9688TIP3    H229006   3.191   7.504   0.287
 9689TIP3   OH229007   0.460   7.003   3.068
 9689TIP3    H129008   0.534   7.022   3.126
 9689TIP3    H229009   0.430   6.916   3.096
 9690TIP3   OH229010   0.097   3.325   6.634
 9690TIP3    H129011   0.172   3.379   6.659
 9690TIP3    H229012   0.096   3.254   6.698
 9691TIP3   OH229013   3.795   6.485   1.808
 9691TIP3    H129014   3.864   6.535   1.765
 9691TIP3    H229015   3.817   6.393   1.791
 9692TIP3   OH229016   7.328   2.785   0.735
 9692TIP3    H129017   7.379   2.844   0.791
 9692TIP3    H229018   7.317   2.706   0.788
 9693TIP3   OH229019   4.204   1.606   2.510
 9693TIP3    H129020   4.153   1.675   2.468
 9693TIP3    H229021   4.267   1.653   2.565
 9694TIP3   OH229022   5.209   1.331   5.550
 9694TIP3    H129023   5.285   1.348   5.605
 9694TIP3    H229024   5.143   1.297   5.610
 9695TIP3   OH229025   5.338   7.376   3.401
 9695TIP3    H129026   5.316   7.375   3.307
 9695TIP3    H229027   5.427   7.410   3.403
 9696TIP3   OH229028   6.462   6.802   6.732
 9696TIP3    H129029   6.451   6.786   6.639
 9696TIP3    H229030   6.427   6.890   6.746
 9697TIP3   OH229031   6.781   1.742   0.403
 9697TIP3    H129032   6.693   1.720   0.371
 9697TIP3    H229033   6.808   1.666   0.453
 9698TIP3   OH229034   5.453   0.134   2.852
 9698TIP3    H129035   5.362   0.140   2.880
 9698TIP3    H229036   5.452   0.073   2.778
 9699TIP3   OH229037   6.261   6.421   5.958
 9699TIP3    H129038   6.262   6.504   5.911
 9699TIP3    H229039   6.288   6.444   6.047
 9700TIP3   OH229040   2.072   2.446   2.649
 9700TIP3    H129041   2.136   2.449   2.578
 9700TIP3    H229042   2.034   2.358   2.643
 9701TIP3   OH229043   2.874   1.284   6.007
 9701TIP3    H129044   2.969   1.279   6.017
 9701TIP3    H229045   2.845   1.342   6.077
 9702TIP3   OH229046   4.054   3.962   2.627
 9702TIP3    H129047   3.967   3.924   2.640
 9702TIP3    H229048   4.063   4.025   2.699
 9703TIP3   OH229049   7.800   7.690   4.786
 9703TIP3    H129050   7.892   7.712   4.805
 9703TIP3    H229051   7.805   7.616   4.726
 9704TIP3   OH229052   8.150   0.576   6.377
 9704TIP3    H129053   8.095   0.535   6.444
 9704TIP3    H229054   8.220   0.619   6.427
 9705TIP3   OH229055   4.526   7.247   6.120
 9705TIP3    H129056   4.509   7.341   6.116
 9705TIP3    H229057   4.605   7.240   6.174
 9706TIP3   OH229058   2.162   6.009   2.148
 9706TIP3    H129059   2.211   5.966   2.077
 9706TIP3    H229060   2.175   6.102   2.132
 9707TIP3   OH229061   0.225   5.950   5.397
 9707TIP3    H129062   0.258   6.028   5.442
 9707TIP3    H229063   0.157   5.915   5.455
 9708TIP3   OH229064   4.820   3.252   6.698
 9708TIP3    H129065   4.872   3.280   6.623
 9708TIP3    H229066   4.768   3.179   6.665
 9709TIP3   OH229067   3.029   1.953   1.786
 9709TIP3    H129068   3.094   1.978   1.852
 9709TIP3    H229069   2.959   2.018   1.795
 9710TIP3   OH229070   6.348   3.264   4.098
 9710TIP3    H129071   6.401   3.258   4.019
 9710TIP3    H229072   6.381   3.342   4.143
 9711TIP3   OH229073   5.939   1.999   5.032
 9711TIP3    H129074   5.976   1.962   5.112
 9711TIP3    H229075   5.887   2.074   5.062
 9712TIP3   OH229076   6.979   7.192   5.617
 9712TIP3    H129077   7.032   7.148   5.552
 9712TIP3    H229078   6.929   7.257   5.568
 9713TIP3   OH229079   7.503   5.694   1.805
 9713TIP3    H129080   7.412   5.707   1.778
 9713TIP3    H229081   7.550   5.768   1.766
 9714TIP3   OH229082   5.038   4.874   6.744
 9714TIP3    H129083   5.003   4.842   6.827
 9714TIP3    H229084   5.120   4.826   6.731
 9715TIP3   OH229085   1.821   3.414   4.358
 9715TIP3    H129086   1.760   3.443   4.289
 9715TIP3    H229087   1.853   3.329   4.327
 9716TIP3   OH229088   1.616   5.436   1.738
 9716TIP3    H129089   1.589   5.344   1.738
 9716TIP3    H229090   1.547   5.480   1.789
 9717TIP3   OH229091   1.738   5.167   3.868
 9717TIP3    H129092   1.677   5.240   3.859
 9717TIP3    H229093   1.805   5.182   3.802
 9718TIP3   OH229094   2.256   3.327   2.811
 9718TIP3    H129095   2.250   3.232   2.809
 9718TIP3    H229096   2.170   3.356   2.842
 9719TIP3   OH229097   2.268   3.016   0.388
 9719TIP3    H129098   2.342   3.035   0.445
 9719TIP3    H229099   2.191   3.036   0.440
 9720TIP3   OH229100   2.854   1.490   1.213
 9720TIP3    H129101   2.773   1.447   1.241
 9720TIP3    H229102   2.833   1.583   1.213
 9721TIP3   OH229103   5.801   3.317   6.821
 9721TIP3    H129104   5.857   3.390   6.791
 9721TIP3    H229105   5.755   3.352   6.897
 9722TIP3   OH229106   6.876   1.919   4.906
 9722TIP3    H129107   6.919   1.846   4.951
 9722TIP3    H229108   6.922   1.997   4.938
 9723TIP3   OH229109   7.385   2.313   2.026
 9723TIP3    H129110   7.448   2.381   2.000
 9723TIP3    H229111   7.300   2.355   2.017
 9724TIP3   OH229112   7.648   4.440   3.670
 9724TIP3    H129113   7.618   4.495   3.597
 9724TIP3    H229114   7.631   4.350   3.641
 9725TIP3   OH229115   0.595   0.485   5.500
 9725TIP3    H129116   0.521   0.424   5.506
 9725TIP3    H229117   0.594   0.532   5.583
 9726TIP3   OH229118   2.566   6.404   0.067
 9726TIP3    H129119   2.491   6.417   0.125
 9726TIP3    H229120   2.607   6.490   0.061
 9727TIP3   OH229121   2.635   7.515   0.499
 9727TIP3    H129122   2.635   7.571   0.577
 9727TIP3    H229123   2.700   7.555   0.441
 9728TIP3   OH229124   3.700   6.238   6.117
 9728TIP3    H129125   3.730   6.192   6.038
 9728TIP3    H229126   3.753   6.201   6.188
 9729TIP3   OH229127   6.335   1.650   3.854
 9729TIP3    H129128   6.417   1.680   3.893
 9729TIP3    H229129   6.298   1.589   3.918
 9730TIP3   OH229130   8.317   5.026   5.911
 9730TIP3    H129131   8.393   5.041   5.966
 9730TIP3    H229132   8.257   5.098   5.931
 9731TIP3   OH229133   7.990   5.521   3.507
 9731TIP3    H129134   8.002   5.431   3.477
 9731TIP3    H229135   7.935   5.561   3.439
 9732TIP3   OH229136   0.370   5.461   3.896
 9732TIP3    H129137   0.340   5.477   3.807
 9732TIP3    H229138   0.430   5.533   3.915
 9733TIP3   OH229139   5.529   4.942   3.396
 9733TIP3    H129140   5.559   4.911   3.481
 9733TIP3    H229141   5.459   5.004   3.416
 9734TIP3   OH229142   0.174   6.171   4.496
 9734TIP3    H129143   0.099   6.167   4.437
 9734TIP3    H229144   0.136   6.192   4.581
 9735TIP3   OH229145   5.016   4.756   3.052
 9735TIP3    H129146   5.078   4.824   3.029
 9735TIP3    H229147   5.050   4.719   3.134
 9736TIP3   OH229148   3.241   7.018   1.292
 9736TIP3    H129149   3.263   7.061   1.374
 9736TIP3    H229150   3.254   6.924   1.310
 9737TIP3   OH229151   1.037   5.184   6.109
 9737TIP3    H129152   1.108   5.122   6.093
 9737TIP3    H229153   0.992   5.192   6.025
 9738TIP3   OH229154   5.872   6.909   1.557
 9738TIP3    H129155   5.892   6.820   1.528
 9738TIP3    H229156   5.865   6.902   1.652
 9739TIP3   OH229157   3.471   4.859   5.523
 9739TIP3    H129158   3.531   4.926   5.556
 9739TIP3    H229159   3.402   4.854   5.590
 9740TIP3   OH229160   1.469   1.886   5.388
 9740TIP3    H129161   1.376   1.899   5.411
 9740TIP3    H229162   1.516   1.942   5.450
 9741TIP3   OH229163   3.952   6.004   0.645
 9741TIP3    H129164   3.872   5.968   0.606
 9741TIP3    H229165   4.022   5.975   0.586
 9742TIP3   OH229166   6.669   7.734   0.818
 9742TIP3    H129167   6.707   7.685   0.891
 9742TIP3    H229168   6.744   7.763   0.767
 9743TIP3   OH229169   6.494   7.288   1.870
 9743TIP3    H129170   6.405   7.305   1.841
 9743TIP3    H229171   6.496   7.317   1.962
 9744TIP3   OH229172   8.268   4.912   5.123
 9744TIP3    H129173   8.346   4.896   5.175
 9744TIP3    H229174   8.276   5.004   5.096
 9745TIP3   OH229175   5.001   0.563   1.963
 9745TIP3    H129176   5.073   0.552   2.024
 9745TIP3    H229177   4.923   0.538   2.013
 9746TIP3   OH229178   1.740   1.840   2.754
 9746TIP3    H129179   1.822   1.869   2.716
 9746TIP3    H229180   1.716   1.909   2.817
 9747TIP3   OH229181   2.695   0.781   2.323
 9747TIP3    H129182   2.790   0.785   2.327
 9747TIP3    H229183   2.666   0.871   2.335
 9748TIP3   OH229184   0.367   6.311   6.074
 9748TIP3    H129185   0.375   6.401   6.045
 9748TIP3    H229186   0.345   6.261   5.995
 9749TIP3   OH229187   7.393   1.884   2.345
 9749TIP3    H129188   7.374   1.974   2.319
 9749TIP3    H229189   7.476   1.863   2.304
 9750TIP3   OH229190   4.666   1.676   5.644
 9750TIP3    H129191   4.741   1.616   5.648
 9750TIP3    H229192   4.628   1.661   5.557
 9751TIP3   OH229193   6.125   1.179   1.297
 9751TIP3    H129194   6.164   1.237   1.362
 9751TIP3    H229195   6.052   1.229   1.260
 9752TIP3   OH229196   0.907   4.646   1.085
 9752TIP3    H129197   0.988   4.654   1.036
 9752TIP3    H229198   0.935   4.634   1.176
 9753TIP3   OH229199   0.796   2.090   3.690
 9753TIP3    H129200   0.772   2.031   3.762
 9753TIP3    H229201   0.712   2.114   3.650
 9754TIP3   OH229202   4.088   4.742   2.957
 9754TIP3    H129203   3.993   4.749   2.949
 9754TIP3    H229204   4.120   4.757   2.868
 9755TIP3   OH229205   1.371   7.238   2.665
 9755TIP3    H129206   1.326   7.154   2.652
 9755TIP3    H229207   1.313   7.302   2.625
 9756TIP3   OH229208   1.476   3.801   5.839
 9756TIP3    H129209   1.398   3.749   5.858
 9756TIP3    H229210   1.517   3.815   5.925
 9757TIP3   OH229211   3.306   0.948   6.557
 9757TIP3    H129212   3.316   0.853   6.547
 9757TIP3    H229213   3.391   0.984   6.532
 9758TIP3   OH229214   1.103   2.020   2.126
 9758TIP3    H129215   1.061   2.082   2.067
 9758TIP3    H229216   1.033   1.994   2.186
 9759TIP3   OH229217   0.155   6.142   6.772
 9759TIP3    H129218   0.122   6.177   6.689
 9759TIP3    H229219   0.079   6.144   6.830
 9760TIP3   OH229220   3.124   2.070   4.747
 9760TIP3    H129221   3.119   2.132   4.674
 9760TIP3    H229222   3.216   2.073   4.774
 9761TIP3   OH229223   7.298   2.835   2.628
 9761TIP3    H129224   7.368   2.849   2.564
 9761TIP3    H229225   7.248   2.917   2.628
 9762TIP3   OH229226   6.326   0.355   6.822
 9762TIP3    H129227   6.376   0.430   6.790
 9762TIP3    H229228   6.246   0.394   6.859
 9763TIP3   OH229229   4.260   6.417   5.569
 9763TIP3    H129230   4.308   6.493   5.601
 9763TIP3    H229231   4.304   6.394   5.487
 9764TIP3   OH229232   8.112   4.668   1.635
 9764TIP3    H129233   8.139   4.741   1.691
 9764TIP3    H229234   8.067   4.608   1.694
 9765TIP3   OH229235   0.977   3.282   0.290
 9765TIP3    H129236   0.913   3.352   0.275
 9765TIP3    H229237   0.966   3.259   0.382
 9766TIP3   OH229238   2.030   3.687   5.999
 9766TIP3    H129239   2.114   3.715   5.964
 9766TIP3    H229240   2.016   3.742   6.076
 9767TIP3   OH229241   3.200   7.525   5.308
 9767TIP3    H129242   3.259   7.495   5.239
 9767TIP3    H229243   3.216   7.466   5.381
 9768TIP3   OH229244   7.874   1.810   6.009
 9768TIP3    H129245   7.952   1.765   5.978
 9768TIP3    H229246   7.804   1.746   5.999
 9769TIP3   OH229247   2.490   5.567   6.131
 9769TIP3    H129248   2.404   5.609   6.131
 9769TIP3    H229249   2.517   5.568   6.040
 9770TIP3   OH229250   6.445   2.774   3.102
 9770TIP3    H129251   6.512   2.707   3.087
 9770TIP3    H229252   6.449   2.829   3.024
 9771TIP3   OH229253   5.344   7.832   5.900
 9771TIP3    H129254   5.297   7.894   5.956
 9771TIP3    H229255   5.276   7.778   5.861
 9772TIP3   OH229256   3.751   5.615   6.126
 9772TIP3    H129257   3.713   5.692   6.169
 9772TIP3    H229258   3.677   5.574   6.081
 9773TIP3   OH229259   2.639   5.702   0.446
 9773TIP3    H129260   2.627   5.720   0.539
 9773TIP3    H229261   2.659   5.609   0.443
 9774TIP3   OH229262   2.301   2.086   0.161
 9774TIP3    H129263   2.358   2.162   0.149
 9774TIP3    H229264   2.298   2.073   0.256
 9775TIP3   OH229265   0.901   0.488   1.678
 9775TIP3    H129266   0.972   0.424   1.676
 9775TIP3    H229267   0.837   0.451   1.739
 9776TIP3   OH229268   7.277   2.612   1.193
 9776TIP3    H129269   7.264   2.631   1.285
 9776TIP3    H229270   7.204   2.655   1.149
 9777TIP3   OH229271   8.129   7.836   6.667
 9777TIP3    H129272   8.218   7.860   6.694
 9777TIP3    H229273   8.072   7.887   6.725
 9778TIP3   OH229274   4.432   0.674   3.319
 9778TIP3    H129275   4.502   0.704   3.376
 9778TIP3    H229276   4.387   0.754   3.291
 9779TIP3   OH229277   2.017   5.053   2.755
 9779TIP3    H129278   1.949   5.098   2.705
 9779TIP3    H229279   1.981   4.966   2.772
 9780TIP3   OH229280   1.678   0.813   4.313
 9780TIP3    H129281   1.675   0.907   4.295
 9780TIP3    H229282   1.769   0.788   4.298
 9781TIP3   OH229283   6.388   7.622   4.836
 9781TIP3    H129284   6.450   7.632   4.907
 9781TIP3    H229285   6.392   7.529   4.813
 9782TIP3   OH229286   7.623   2.944   4.291
 9782TIP3    H129287   7.628   3.040   4.293
 9782TIP3    H229288   7.575   2.924   4.211
 9783TIP3   OH229289   4.560   6.877   4.399
 9783TIP3    H129290   4.521   6.962   4.416
 9783TIP3    H229291   4.598   6.884   4.312
 9784TIP3   OH229292   7.810   5.951   3.680
 9784TIP3    H129293   7.724   5.918   3.655
 9784TIP3    H229294   7.834   5.901   3.758
 9785TIP3   OH229295   0.239   6.246   2.855
 9785TIP3    H129296   0.171   6.277   2.796
 9785TIP3    H229297   0.210   6.159   2.883
 9786TIP3   OH229298   6.904   3.401   2.562
 9786TIP3    H129299   6.863   3.400   2.475
 9786TIP3    H229300   6.843   3.353   2.617
 9787TIP3   OH229301   0.563   0.595   1.824
 9787TIP3    H129302   0.513   0.610   1.905
 9787TIP3    H229303   0.498   0.563   1.762
 9788TIP3   OH229304   0.021   5.881   4.606
 9788TIP3    H129305   0.011   5.793   4.642
 9788TIP3    H229306  -0.046   5.933   4.650
 9789TIP3   OH229307   5.175   5.988   0.803
 9789TIP3    H129308   5.087   6.022   0.820
 9789TIP3    H229309   5.186   5.996   0.708
 9790TIP3   OH229310   6.604   1.661   4.129
 9790TIP3    H129311   6.585   1.700   4.044
 9790TIP3    H229312   6.562   1.719   4.192
 9791TIP3   OH229313   3.644   2.463   0.976
 9791TIP3    H129314   3.682   2.442   0.891
 9791TIP3    H229315   3.662   2.386   1.030
 9792TIP3   OH229316   4.363   4.065   0.862
 9792TIP3    H129317   4.432   4.129   0.879
 9792TIP3    H229318   4.349   4.070   0.767
 9793TIP3   OH229319   5.288   1.614   5.917
 9793TIP3    H129320   5.317   1.534   5.875
 9793TIP3    H229321   5.192   1.607   5.918
 9794TIP3   OH229322   7.633   7.351   1.840
 9794TIP3    H129323   7.641   7.447   1.841
 9794TIP3    H229324   7.638   7.328   1.747
 9795TIP3   OH229325   6.281   2.019   2.126
 9795TIP3    H129326   6.372   2.037   2.103
 9795TIP3    H229327   6.278   1.924   2.138
 9796TIP3   OH229328   4.000   1.632   6.751
 9796TIP3    H129329   4.045   1.562   6.798
 9796TIP3    H229330   3.910   1.627   6.783
 9797TIP3   OH229331   7.800   7.847   5.081
 9797TIP3    H129332   7.884   7.802   5.077
 9797TIP3    H229333   7.816   7.932   5.038
 9798TIP3   OH229334   0.251   6.648   6.126
 9798TIP3    H129335   0.308   6.653   6.203
 9798TIP3    H229336   0.308   6.615   6.056
 9799TIP3   OH229337   8.027   0.748   3.389
 9799TIP3    H129338   7.961   0.770   3.455
 9799TIP3    H229339   8.072   0.831   3.372
 9800TIP3   OH229340   0.362   2.317   6.525
 9800TIP3    H129341   0.352   2.409   6.500
 9800TIP3    H229342   0.456   2.300   6.520
 9801TIP3   OH229343   1.637   6.558   4.061
 9801TIP3    H129344   1.671   6.588   4.145
 9801TIP3    H229345   1.543   6.579   4.064
 9802TIP3   OH229346   0.720   4.868   1.043
 9802TIP3    H129347   0.654   4.853   0.975
 9802TIP3    H229348   0.783   4.797   1.031
 9803TIP3   OH229349   3.038   3.388   4.827
 9803TIP3    H129350   3.119   3.377   4.777
 9803TIP3    H229351   2.984   3.445   4.772
 9804TIP3   OH229352   6.356   1.829   6.584
 9804TIP3    H129353   6.316   1.880   6.514
 9804TIP3    H229354   6.305   1.748   6.588
 9805TIP3   OH229355   2.668   7.940   0.191
 9805TIP3    H129356   2.664   7.849   0.161
 9805TIP3    H229357   2.761   7.958   0.201
 9806TIP3   OH229358   1.072   6.290   2.346
 9806TIP3    H129359   0.985   6.290   2.306
 9806TIP3    H229360   1.093   6.382   2.358
 9807TIP3   OH229361   0.578   2.149   0.677
 9807TIP3    H129362   0.532   2.166   0.595
 9807TIP3    H229363   0.628   2.229   0.694
 9808TIP3   OH229364   5.639   1.381   4.696
 9808TIP3    H129365   5.624   1.463   4.743
 9808TIP3    H229366   5.560   1.330   4.711
 9809TIP3   OH229367   1.481   2.242   5.155
 9809TIP3    H129368   1.483   2.235   5.251
 9809TIP3    H229369   1.532   2.320   5.135
 9810TIP3   OH229370   8.365   4.784   6.386
 9810TIP3    H129371   8.333   4.771   6.297
 9810TIP3    H229372   8.339   4.704   6.433
 9811TIP3   OH229373   4.731   3.993   3.983
 9811TIP3    H129374   4.710   3.993   4.077
 9811TIP3    H229375   4.646   3.999   3.940
 9812TIP3   OH229376   5.072   5.943   1.588
 9812TIP3    H129377   5.153   5.921   1.633
 9812TIP3    H229378   5.060   6.037   1.605
 9813TIP3   OH229379   3.071   4.217   0.083
 9813TIP3    H129380   2.996   4.160   0.099
 9813TIP3    H229381   3.121   4.213   0.165
 9814TIP3   OH229382   1.220   7.890   6.349
 9814TIP3    H129383   1.294   7.949   6.335
 9814TIP3    H229384   1.215   7.838   6.269
 9815TIP3   OH229385   2.146   5.424   6.697
 9815TIP3    H129386   2.118   5.515   6.682
 9815TIP3    H229387   2.126   5.380   6.615
 9816TIP3   OH229388   8.106   1.021   3.848
 9816TIP3    H129389   8.024   1.069   3.839
 9816TIP3    H229390   8.157   1.073   3.911
 9817TIP3   OH229391   3.137   4.092   2.689
 9817TIP3    H129392   3.209   4.085   2.625
 9817TIP3    H229393   3.158   4.028   2.756
 9818TIP3   OH229394   7.485   3.332   3.702
 9818TIP3    H129395   7.400   3.368   3.678
 9818TIP3    H229396   7.483   3.242   3.669
 9819TIP3   OH229397   4.640   6.179   5.818
 9819TIP3    H129398   4.562   6.140   5.857
 9819TIP3    H229399   4.709   6.114   5.833
 9820TIP3   OH229400   5.707   6.827   5.002
 9820TIP3    H129401   5.679   6.792   4.917
 9820TIP3    H229402   5.737   6.916   4.983
 9821TIP3   OH229403   5.696   5.424   3.565
 9821TIP3    H129404   5.677   5.401   3.656
 9821TIP3    H229405   5.779   5.381   3.546
 9822TIP3   OH229406   3.822   1.666   1.675
 9822TIP3    H129407   3.916   1.679   1.665
 9822TIP3    H229408   3.785   1.754   1.665
 9823TIP3   OH229409   4.760   6.974   2.836
 9823TIP3    H129410   4.785   6.992   2.746
 9823TIP3    H229411   4.693   7.039   2.856
 9824TIP3   OH229412   0.416   1.837   6.795
 9824TIP3    H129413   0.388   1.747   6.776
 9824TIP3    H229414   0.367   1.860   6.874
 9825TIP3   OH229415   0.809   7.228   6.163
 9825TIP3    H129416   0.828   7.157   6.101
 9825TIP3    H229417   0.856   7.303   6.128
 9826TIP3   OH229418   8.225   7.059   3.746
 9826TIP3    H129419   8.261   6.997   3.808
 9826TIP3    H229420   8.276   7.046   3.666
 9827TIP3   OH229421   2.603   0.786   0.438
 9827TIP3    H129422   2.638   0.808   0.525
 9827TIP3    H229423   2.508   0.781   0.451
 9828TIP3   OH229424   6.540   6.954   1.587
 9828TIP3    H129425   6.571   7.014   1.655
 9828TIP3    H229426   6.589   6.873   1.602
 9829TIP3   OH229427   3.985   2.400   5.697
 9829TIP3    H129428   3.958   2.459   5.627
 9829TIP3    H229429   3.961   2.446   5.777
 9830TIP3   OH229430   7.309   0.415   5.913
 9830TIP3    H129431   7.243   0.456   5.857
 9830TIP3    H229432   7.355   0.488   5.953
 9831TIP3   OH229433   4.073   7.597   1.733
 9831TIP3    H129434   3.980   7.576   1.736
 9831TIP3    H229435   4.111   7.546   1.805
 9832TIP3   OH229436   7.121   3.185   5.982
 9832TIP3    H129437   7.102   3.248   6.052
 9832TIP3    H229438   7.217   3.181   5.980
 9833TIP3   OH229439   0.008   0.219   0.395
 9833TIP3    H129440  -0.015   0.187   0.483
 9833TIP3    H229441  -0.007   0.314   0.400
 9834TIP3   OH229442   7.178   2.804   0.277
 9834TIP3    H129443   7.233   2.738   0.235
 9834TIP3    H229444   7.107   2.820   0.214
 9835TIP3   OH229445   4.604   0.178   0.131
 9835TIP3    H129446   4.531   0.222   0.089
 9835TIP3    H229447   4.671   0.170   0.062
 9836TIP3   OH229448   4.760   2.026   5.435
 9836TIP3    H129449   4.851   2.019   5.463
 9836TIP3    H229450   4.762   2.006   5.341
 9837TIP3   OH229451   7.163   5.453   0.907
 9837TIP3    H129452   7.249   5.455   0.948
 9837TIP3    H229453   7.177   5.408   0.824
 9838TIP3   OH229454   6.279   0.593   1.151
 9838TIP3    H129455   6.349   0.659   1.150
 9838TIP3    H229456   6.305   0.531   1.219
 9839TIP3   OH229457   6.943   1.153   0.767
 9839TIP3    H129458   6.880   1.139   0.838
 9839TIP3    H229459   6.944   1.248   0.754
 9840TIP3   OH229460   7.756   2.124   0.561
 9840TIP3    H129461   7.760   2.053   0.496
 9840TIP3    H229462   7.693   2.093   0.626
 9841TIP3   OH229463   3.708   2.373   2.556
 9841TIP3    H129464   3.656   2.368   2.636
 9841TIP3    H229465   3.703   2.465   2.530
 9842TIP3   OH229466   2.446   5.402   4.508
 9842TIP3    H129467   2.475   5.435   4.594
 9842TIP3    H229468   2.525   5.366   4.468
 9843TIP3   OH229469   4.842   7.555   0.569
 9843TIP3    H129470   4.927   7.526   0.537
 9843TIP3    H229471   4.794   7.582   0.490
 9844TIP3   OH229472   7.421   3.571   3.908
 9844TIP3    H129473   7.458   3.483   3.917
 9844TIP3    H229474   7.455   3.619   3.983
 9845TIP3   OH229475   5.991   1.129   6.489
 9845TIP3    H129476   5.931   1.184   6.439
 9845TIP3    H229477   5.983   1.160   6.579
 9846TIP3   OH229478   6.477   2.037   0.034
 9846TIP3    H129479   6.469   2.080   0.119
 9846TIP3    H229480   6.394   2.055  -0.010
 9847TIP3   OH229481   4.269   2.875   2.652
 9847TIP3    H129482   4.216   2.816   2.704
 9847TIP3    H229483   4.322   2.817   2.597
 9848TIP3   OH229484   0.161   7.448   5.520
 9848TIP3    H129485   0.096   7.386   5.553
 9848TIP3    H229486   0.241   7.398   5.511
 9849TIP3   OH229487   4.158   1.302   6.330
 9849TIP3    H129488   4.218   1.312   6.256
 9849TIP3    H229489   4.132   1.391   6.352
 9850TIP3   OH229490   1.293   2.789   3.280
 9850TIP3    H129491   1.230   2.738   3.228
 9850TIP3    H229492   1.365   2.727   3.297
 9851TIP3   OH229493   6.280   3.839   5.420
 9851TIP3    H129494   6.251   3.913   5.366
 9851TIP3    H229495   6.217   3.770   5.402
 9852TIP3   OH229496   4.000   0.235   4.080
 9852TIP3    H129497   4.075   0.284   4.047
 9852TIP3    H229498   3.924   0.279   4.041
 9853TIP3   OH229499   6.202   4.726   3.678
 9853TIP3    H129500   6.248   4.783   3.616
 9853TIP3    H229501   6.112   4.724   3.646
 9854TIP3   OH229502   2.631   2.038   2.436
 9854TIP3    H129503   2.667   1.961   2.392
 9854TIP3    H229504   2.698   2.065   2.498
 9855TIP3   OH229505   2.888   4.955   2.180
 9855TIP3    H129506   2.914   4.977   2.090
 9855TIP3    H229507   2.948   4.886   2.206
 9856TIP3   OH229508   7.019   2.201   6.660
 9856TIP3    H129509   7.058   2.287   6.679
 9856TIP3    H229510   7.067   2.171   6.583
 9857TIP3   OH229511   1.709   7.397   0.700
 9857TIP3    H129512   1.689   7.304   0.697
 9857TIP3    H229513   1.630   7.440   0.666
 9858TIP3   OH229514   1.282   6.157   3.538
 9858TIP3    H129515   1.278   6.200   3.453
 9858TIP3    H229516   1.197   6.175   3.578
 9859TIP3   OH229517   0.577   1.734   0.848
 9859TIP3    H129518   0.482   1.746   0.852
 9859TIP3    H229519   0.593   1.652   0.894
 9860TIP3   OH229520   1.115   5.886   1.967
 9860TIP3    H129521   1.152   5.974   1.978
 9860TIP3    H229522   1.189   5.827   1.980
 9861TIP3   OH229523   1.594   1.747   2.113
 9861TIP3    H129524   1.672   1.800   2.126
 9861TIP3    H229525   1.573   1.714   2.200
 9862TIP3   OH229526   3.815   2.482   0.166
 9862TIP3    H129527   3.793   2.542   0.095
 9862TIP3    H229528   3.731   2.446   0.194
 9863TIP3   OH229529   3.403   7.096   6.691
 9863TIP3    H129530   3.326   7.052   6.657
 9863TIP3    H229531   3.459   7.111   6.615
 9864TIP3   OH229532   0.693   3.632   0.026
 9864TIP3    H129533   0.689   3.701   0.092
 9864TIP3    H229534   0.625   3.655  -0.037
 9865TIP3   OH229535   0.794   6.317   3.703
 9865TIP3    H129536   0.739   6.270   3.764
 9865TIP3    H229537   0.739   6.389   3.671
 9866TIP3   OH229538   3.914   1.175   4.389
 9866TIP3    H129539   3.843   1.226   4.351
 9866TIP3    H229540   3.925   1.211   4.477
 9867TIP3   OH229541   7.800   1.380   4.601
 9867TIP3    H129542   7.731   1.447   4.596
 9867TIP3    H229543   7.757   1.305   4.642
 9868TIP3   OH229544   2.525   1.899   5.858
 9868TIP3    H129545   2.467   1.943   5.796
 9868TIP3    H229546   2.475   1.823   5.888
 9869TIP3   OH229547   4.125   0.339   3.328
 9869TIP3    H129548   4.114   0.410   3.265
 9869TIP3    H229549   4.036   0.313   3.351
 9870TIP3   OH229550   8.158   3.005   4.106
 9870TIP3    H129551   8.185   3.033   4.019
 9870TIP3    H229552   8.238   3.010   4.159
 9871TIP3   OH229553   4.007   1.287   1.850
 9871TIP3    H129554   3.960   1.221   1.798
 9871TIP3    H229555   4.016   1.248   1.937
 9872TIP3   OH229556   3.064   6.890   3.067
 9872TIP3    H129557   2.975   6.863   3.047
 9872TIP3    H229558   3.104   6.814   3.109
 9873TIP3   OH229559   7.715   0.381   1.038
 9873TIP3    H129560   7.764   0.366   0.957
 9873TIP3    H229561   7.782   0.382   1.107
 9874TIP3   OH229562   5.890   4.138   5.804
 9874TIP3    H129563   5.804   4.119   5.840
 9874TIP3    H229564   5.905   4.230   5.823
 9875TIP3   OH229565   5.126   5.383   2.146
 9875TIP3    H129566   5.120   5.329   2.224
 9875TIP3    H229567   5.122   5.320   2.073
 9876TIP3   OH229568   4.895   5.387   4.255
 9876TIP3    H129569   4.881   5.393   4.349
 9876TIP3    H229570   4.973   5.333   4.245
 9877TIP3   OH229571   1.722   3.524   0.219
 9877TIP3    H129572   1.781   3.466   0.266
 9877TIP3    H229573   1.635   3.485   0.230
 9878TIP3   OH229574   4.145   4.485   1.757
 9878TIP3    H129575   4.144   4.499   1.662
 9878TIP3    H229576   4.092   4.406   1.770
 9879TIP3   OH229577   2.059   4.070   2.105
 9879TIP3    H129578   2.026   4.020   2.031
 9879TIP3    H229579   2.151   4.088   2.084
 9880TIP3   OH229580   5.228   0.425   5.270
 9880TIP3    H129581   5.320   0.438   5.292
 9880TIP3    H229582   5.221   0.452   5.178
 9881TIP3   OH229583   7.171   7.617   0.792
 9881TIP3    H129584   7.106   7.592   0.857
 9881TIP3    H229585   7.236   7.668   0.842
 9882TIP3   OH229586   0.196   1.238   4.181
 9882TIP3    H129587   0.255   1.177   4.138
 9882TIP3    H229588   0.247   1.273   4.255
 9883TIP3   OH229589   1.339   5.202   2.946
 9883TIP3    H129590   1.267   5.213   3.009
 9883TIP3    H229591   1.326   5.272   2.882
 9884TIP3   OH229592   5.808   5.583   5.854
 9884TIP3    H129593   5.813   5.657   5.914
 9884TIP3    H229594   5.895   5.545   5.855
 9885TIP3   OH229595   7.953   2.370   3.846
 9885TIP3    H129596   7.981   2.458   3.820
 9885TIP3    H229597   8.033   2.329   3.879
 9886TIP3   OH229598   4.343   4.563   1.114
 9886TIP3    H129599   4.273   4.547   1.177
 9886TIP3    H229600   4.315   4.640   1.066
 9887TIP3   OH229601   5.203   1.599   5.251
 9887TIP3    H129602   5.244   1.617   5.335
 9887TIP3    H229603   5.109   1.612   5.267
 9888TIP3   OH229604   2.935   6.499   2.408
 9888TIP3    H129605   2.885   6.524   2.485
 9888TIP3    H229606   2.874   6.449   2.355
 9889TIP3   OH229607   6.490   5.394   5.492
 9889TIP3    H129608   6.534   5.443   5.423
 9889TIP3    H229609   6.536   5.419   5.572
 9890TIP3   OH229610   2.129   3.314   5.760
 9890TIP3    H129611   2.074   3.237   5.747
 9890TIP3    H229612   2.152   3.310   5.853
 9891TIP3   OH229613   7.444   3.082   2.262
 9891TIP3    H129614   7.478   3.058   2.176
 9891TIP3    H229615   7.464   3.176   2.270
 9892TIP3   OH229616   3.603   1.953   5.682
 9892TIP3    H129617   3.555   1.974   5.761
 9892TIP3    H229618   3.668   1.888   5.710
 9893TIP3   OH229619   1.862   3.203   1.645
 9893TIP3    H129620   1.922   3.217   1.571
 9893TIP3    H229621   1.903   3.250   1.718
 9894TIP3   OH229622   1.349   7.391   2.889
 9894TIP3    H129623   1.364   7.321   2.825
 9894TIP3    H229624   1.385   7.470   2.847
 9895TIP3   OH229625   5.068   5.217   4.606
 9895TIP3    H129626   5.037   5.304   4.583
 9895TIP3    H229627   5.062   5.167   4.524
 9896TIP3   OH229628   0.466   4.989   3.891
 9896TIP3    H129629   0.510   4.910   3.922
 9896TIP3    H229630   0.411   4.958   3.818
 9897TIP3   OH229631   3.411   5.525   5.062
 9897TIP3    H129632   3.378   5.441   5.093
 9897TIP3    H229633   3.499   5.532   5.100
 9898TIP3   OH229634   7.702   6.359   4.870
 9898TIP3    H129635   7.706   6.392   4.780
 9898TIP3    H229636   7.727   6.267   4.863
 9899TIP3   OH229637   5.841   1.860   1.884
 9899TIP3    H129638   5.783   1.881   1.958
 9899TIP3    H229639   5.803   1.782   1.845
 9900TIP3   OH229640   3.241   5.861   6.245
 9900TIP3    H129641   3.248   5.772   6.213
 9900TIP3    H229642   3.247   5.916   6.166
 9901TIP3   OH229643   3.312   4.467   2.405
 9901TIP3    H129644   3.227   4.448   2.445
 9901TIP3    H229645   3.305   4.558   2.377
 9902TIP3   OH229646   8.198   6.649   5.164
 9902TIP3    H129647   8.270   6.677   5.221
 9902TIP3    H229648   8.137   6.605   5.223
 9903TIP3   OH229649   1.403   3.613   6.110
 9903TIP3    H129650   1.341   3.632   6.040
 9903TIP3    H229651   1.383   3.523   6.136
 9904TIP3   OH229652   2.383   0.088   0.625
 9904TIP3    H129653   2.407   0.053   0.539
 9904TIP3    H229654   2.401   0.182   0.618
 9905TIP3   OH229655   2.252   1.426   4.135
 9905TIP3    H129656   2.217   1.426   4.224
 9905TIP3    H229657   2.241   1.336   4.105
 9906TIP3   OH229658   2.304   5.929   6.637
 9906TIP3    H129659   2.268   5.842   6.618
 9906TIP3    H229660   2.390   5.928   6.597
 9907TIP3   OH229661   3.420   4.768   1.003
 9907TIP3    H129662   3.434   4.754   1.097
 9907TIP3    H229663   3.498   4.731   0.962
 9908TIP3   OH229664   2.428   6.611   6.072
 9908TIP3    H129665   2.393   6.523   6.057
 9908TIP3    H229666   2.520   6.604   6.048
 9909TIP3   OH229667   3.413   5.900   6.541
 9909TIP3    H129668   3.379   5.880   6.629
 9909TIP3    H229669   3.379   5.830   6.486
 9910TIP3   OH229670   3.158   4.798   1.071
 9910TIP3    H129671   3.114   4.747   1.003
 9910TIP3    H229672   3.251   4.787   1.053
 9911TIP3   OH229673   3.250   0.395   6.558
 9911TIP3    H129674   3.332   0.369   6.516
 9911TIP3    H229675   3.248   0.490   6.551
 9912TIP3   OH229676   7.652   0.486   5.850
 9912TIP3    H129677   7.658   0.527   5.936
 9912TIP3    H229678   7.581   0.533   5.805
 9913TIP3   OH229679   3.249   7.901   3.675
 9913TIP3    H129680   3.220   7.810   3.685
 9913TIP3    H229681   3.219   7.944   3.755
 9914TIP3   OH229682   6.935   1.629   6.463
 9914TIP3    H129683   6.841   1.625   6.481
 9914TIP3    H229684   6.976   1.632   6.549
 9915TIP3   OH229685   4.154   2.892   0.313
 9915TIP3    H129686   4.154   2.979   0.352
 9915TIP3    H229687   4.143   2.833   0.388
 9916TIP3   OH229688   1.112   7.002   5.699
 9916TIP3    H129689   1.206   6.996   5.712
 9916TIP3    H229690   1.098   7.090   5.662
 9917TIP3   OH229691   4.213   2.068   1.011
 9917TIP3    H129692   4.155   2.044   1.083
 9917TIP3    H229693   4.239   2.158   1.030
 9918TIP3   OH229694   2.737   6.460   5.689
 9918TIP3    H129695   2.830   6.439   5.690
 9918TIP3    H229696   2.733   6.555   5.699
 9919TIP3   OH229697   4.386   4.258   2.190
 9919TIP3    H129698   4.300   4.255   2.150
 9919TIP3    H229699   4.444   4.291   2.121
 9920TIP3   OH229700   3.417   1.543   5.011
 9920TIP3    H129701   3.344   1.588   4.969
 9920TIP3    H229702   3.483   1.611   5.026
 9921TIP3   OH229703   2.519   0.411   5.387
 9921TIP3    H129704   2.521   0.498   5.427
 9921TIP3    H229705   2.595   0.410   5.328
 9922TIP3   OH229706   5.478   3.218   3.151
 9922TIP3    H129707   5.499   3.306   3.181
 9922TIP3    H229708   5.562   3.173   3.147
 9923TIP3   OH229709   4.779   1.717   1.597
 9923TIP3    H129710   4.839   1.699   1.524
 9923TIP3    H229711   4.723   1.639   1.601
 9924TIP3   OH229712   6.818   7.009   5.766
 9924TIP3    H129713   6.807   6.947   5.693
 9924TIP3    H229714   6.893   7.063   5.740
 9925TIP3   OH229715   8.354   0.873   5.168
 9925TIP3    H129716   8.419   0.943   5.170
 9925TIP3    H229717   8.317   0.872   5.256
 9926TIP3   OH229718   6.107   0.687   3.482
 9926TIP3    H129719   6.161   0.632   3.426
 9926TIP3    H229720   6.170   0.724   3.545
 9927TIP3   OH229721   4.251   0.331   3.966
 9927TIP3    H129722   4.300   0.400   3.922
 9927TIP3    H229723   4.318   0.278   4.011
 9928TIP3   OH229724   1.851   2.723   5.792
 9928TIP3    H129725   1.792   2.703   5.718
 9928TIP3    H229726   1.809   2.680   5.867
 9929TIP3   OH229727   4.038   1.878   5.806
 9929TIP3    H129728   4.113   1.909   5.855
 9929TIP3    H229729   4.075   1.841   5.726
 9930TIP3   OH229730   6.137   1.249   3.672
 9930TIP3    H129731   6.101   1.338   3.674
 9930TIP3    H229732   6.219   1.255   3.722
 9931TIP3   OH229733   4.428   7.192   1.773
 9931TIP3    H129734   4.416   7.285   1.793
 9931TIP3    H229735   4.351   7.149   1.810
 9932TIP3   OH229736   4.022   7.863   4.552
 9932TIP3    H129737   4.063   7.893   4.633
 9932TIP3    H229738   4.095   7.832   4.498
 9933TIP3   OH229739   1.000   7.422   5.025
 9933TIP3    H129740   1.049   7.458   4.950
 9933TIP3    H229741   1.057   7.440   5.100
 9934TIP3   OH229742   5.266   2.501   4.588
 9934TIP3    H129743   5.279   2.424   4.532
 9934TIP3    H229744   5.350   2.512   4.633
 9935TIP3   OH229745   3.390   6.509   0.848
 9935TIP3    H129746   3.421   6.531   0.936
 9935TIP3    H229747   3.297   6.531   0.849
 9936TIP3   OH229748   0.836   3.855   4.145
 9936TIP3    H129749   0.830   3.941   4.186
 9936TIP3    H229750   0.800   3.868   4.057
 9937TIP3   OH229751   6.398   5.242   3.169
 9937TIP3    H129752   6.427   5.333   3.172
 9937TIP3    H229753   6.359   5.225   3.255
 9938TIP3   OH229754   1.055   6.023   6.538
 9938TIP3    H129755   1.083   6.109   6.570
 9938TIP3    H229756   0.975   6.005   6.587
 9939TIP3   OH229757   1.397   0.297   4.089
 9939TIP3    H129758   1.315   0.278   4.134
 9939TIP3    H229759   1.460   0.313   4.159
 9940TIP3   OH229760   3.842   4.104   6.564
 9940TIP3    H129761   3.855   4.120   6.470
 9940TIP3    H229762   3.926   4.069   6.594
 9941TIP3   OH229763   7.420   6.228   2.418
 9941TIP3    H129764   7.390   6.154   2.471
 9941TIP3    H229765   7.403   6.201   2.328
 9942TIP3   OH229766   1.910   7.828   2.182
 9942TIP3    H129767   1.984   7.828   2.122
 9942TIP3    H229768   1.893   7.735   2.200
 9943TIP3   OH229769   0.102   3.514   6.264
 9943TIP3    H129770   0.049   3.506   6.185
 9943TIP3    H229771   0.041   3.542   6.331
 9944TIP3   OH229772   7.052   1.108   6.726
 9944TIP3    H129773   7.000   1.147   6.656
 9944TIP3    H229774   7.016   1.020   6.736
 9945TIP3   OH229775   0.193   3.772   6.489
 9945TIP3    H129776   0.262   3.730   6.438
 9945TIP3    H229777   0.194   3.863   6.460
 9946TIP3   OH229778   3.395   2.516   3.144
 9946TIP3    H129779   3.386   2.474   3.229
 9946TIP3    H229780   3.310   2.557   3.127
 9947TIP3   OH229781   2.209   5.263   2.215
 9947TIP3    H129782   2.121   5.250   2.179
 9947TIP3    H229783   2.230   5.179   2.257
 9948TIP3   OH229784   3.047   0.206   2.356
 9948TIP3    H129785   3.049   0.264   2.280
 9948TIP3    H229786   3.136   0.171   2.361
 9949TIP3   OH229787   2.322   6.338   6.502
 9949TIP3    H129788   2.393   6.391   6.465
 9949TIP3    H229789   2.314   6.264   6.443
 9950TIP3   OH229790   3.567   6.660   0.683
 9950TIP3    H129791   3.645   6.607   0.668
 9950TIP3    H229792   3.515   6.610   0.745
 9951TIP3   OH229793   5.474   1.117   0.264
 9951TIP3    H129794   5.455   1.024   0.277
 9951TIP3    H229795   5.443   1.136   0.176
 9952TIP3   OH229796   7.382   0.181   0.305
 9952TIP3    H129797   7.319   0.168   0.234
 9952TIP3    H229798   7.446   0.243   0.269
 9953TIP3   OH229799   1.541   2.545   4.154
 9953TIP3    H129800   1.465   2.577   4.106
 9953TIP3    H229801   1.594   2.500   4.087
 9954TIP3   OH229802   6.185   4.369   3.302
 9954TIP3    H129803   6.246   4.315   3.252
 9954TIP3    H229804   6.239   4.442   3.333
 9955TIP3   OH229805   0.245   4.644   3.678
 9955TIP3    H129806   0.218   4.617   3.591
 9955TIP3    H229807   0.290   4.567   3.714
 9956TIP3   OH229808   3.566   0.730   3.246
 9956TIP3    H129809   3.586   0.816   3.281
 9956TIP3    H229810   3.631   0.672   3.287
 9957TIP3   OH229811   7.246   3.432   2.864
 9957TIP3    H129812   7.261   3.348   2.821
 9957TIP3    H229813   7.333   3.469   2.877
 9958TIP3   OH229814   6.092   4.787   0.947
 9958TIP3    H129815   6.021   4.753   0.893
 9958TIP3    H229816   6.159   4.719   0.944
 9959TIP3   OH229817   4.771   4.835   2.935
 9959TIP3    H129818   4.760   4.745   2.904
 9959TIP3    H229819   4.794   4.826   3.028
 9960TIP3   OH229820   0.492   1.942   5.925
 9960TIP3    H129821   0.483   1.912   6.016
 9960TIP3    H229822   0.487   1.862   5.873
 9961TIP3   OH229823   8.153   3.840   6.626
 9961TIP3    H129824   8.180   3.917   6.575
 9961TIP3    H229825   8.069   3.815   6.587
 9962TIP3   OH229826   8.304   5.580   1.055
 9962TIP3    H129827   8.317   5.496   1.099
 9962TIP3    H229828   8.375   5.636   1.087
 9963TIP3   OH229829   2.959   3.132   4.518
 9963TIP3    H129830   2.962   3.152   4.611
 9963TIP3    H229831   3.048   3.148   4.487
 9964TIP3   OH229832   1.309   7.341   3.428
 9964TIP3    H129833   1.315   7.374   3.517
 9964TIP3    H229834   1.399   7.335   3.398
 9965TIP3   OH229835   5.629   6.697   4.758
 9965TIP3    H129836   5.660   6.607   4.743
 9965TIP3    H229837   5.694   6.752   4.715
 9966TIP3   OH229838   3.496   0.561   0.514
 9966TIP3    H129839   3.455   0.596   0.435
 9966TIP3    H229840   3.579   0.524   0.485
 9967TIP3   OH229841   5.426   4.087   1.118
 9967TIP3    H129842   5.445   4.105   1.210
 9967TIP3    H229843   5.346   4.034   1.120
 9968TIP3   OH229844   2.223   5.183   4.425
 9968TIP3    H129845   2.168   5.256   4.398
 9968TIP3    H229846   2.306   5.198   4.380
 9969TIP3   OH229847   3.483   6.120   5.796
 9969TIP3    H129848   3.429   6.198   5.810
 9969TIP3    H229849   3.442   6.075   5.722
 9970TIP3   OH229850   3.229   7.442   5.884
 9970TIP3    H129851   3.192   7.497   5.815
 9970TIP3    H229852   3.209   7.353   5.857
 9971TIP3   OH229853   7.158   0.567   1.811
 9971TIP3    H129854   7.239   0.570   1.862
 9971TIP3    H229855   7.137   0.658   1.793
 9972TIP3   OH229856   4.657   4.793   2.542
 9972TIP3    H129857   4.606   4.768   2.619
 9972TIP3    H229858   4.736   4.740   2.547
 9973TIP3   OH229859   6.980   0.555   4.036
 9973TIP3    H129860   6.921   0.599   4.097
 9973TIP3    H229861   6.935   0.557   3.952
 9974TIP3   OH229862   8.062   3.378   4.347
 9974TIP3    H129863   8.088   3.454   4.399
 9974TIP3    H229864   8.123   3.379   4.273
 9975TIP3   OH229865   0.857   4.342   6.742
 9975TIP3    H129866   0.899   4.275   6.796
 9975TIP3    H229867   0.852   4.419   6.799
 9976TIP3   OH229868   5.928   7.235   0.205
 9976TIP3    H129869   6.000   7.233   0.268
 9976TIP3    H229870   5.909   7.328   0.193
 9977TIP3   OH229871   6.125   6.060   6.711
 9977TIP3    H129872   6.056   6.019   6.763
 9977TIP3    H229873   6.184   5.989   6.687
 9978TIP3   OH229874   8.060   6.424   3.423
 9978TIP3    H129875   8.152   6.445   3.438
 9978TIP3    H229876   8.050   6.425   3.328
 9979TIP3   OH229877   7.550   3.466   1.960
 9979TIP3    H129878   7.514   3.378   1.946
 9979TIP3    H229879   7.525   3.514   1.882
 9980TIP3   OH229880   3.381   6.489   1.754
 9980TIP3    H129881   3.402   6.483   1.847
 9980TIP3    H229882   3.358   6.399   1.729
 9981TIP3   OH229883   4.238   0.926   0.652
 9981TIP3    H129884   4.228   0.987   0.579
 9981TIP3    H229885   4.268   0.981   0.725
 9982TIP3   OH229886   6.794   7.680   2.003
 9982TIP3    H129887   6.743   7.683   1.921
 9982TIP3    H229888   6.817   7.588   2.014
 9983TIP3   OH229889   2.628  -0.024   0.711
 9983TIP3    H129890   2.663   0.052   0.758
 9983TIP3    H229891   2.534  -0.008   0.706
 9984TIP3   OH229892   3.555   6.736   1.099
 9984TIP3    H129893   3.585   6.807   1.157
 9984TIP3    H229894   3.534   6.664   1.159
 9985TIP3   OH229895   4.393   0.027   6.785
 9985TIP3    H129896   4.421   0.045   6.695
 9985TIP3    H229897   4.474   0.010   6.833
 9986TIP3   OH229898   4.170   7.109   1.041
 9986TIP3    H129899   4.237   7.042   1.028
 9986TIP3    H229900   4.138   7.093   1.130
 9987TIP3   OH229901   4.459   5.792   1.124
 9987TIP3    H129902   4.503   5.818   1.204
 9987TIP3    H229903   4.370   5.826   1.133
 9988TIP3   OH229904   3.232   2.653   6.615
 9988TIP3    H129905   3.306   2.698   6.574
 9988TIP3    H229906   3.169   2.723   6.633
 9989TIP3   OH229907   2.631   5.240   5.434
 9989TIP3    H129908   2.665   5.266   5.520
 9989TIP3    H229909   2.542   5.276   5.431
 9990TIP3   OH229910   7.246   2.895   1.606
 9990TIP3    H129911   7.261   2.989   1.621
 9990TIP3    H229912   7.158   2.891   1.569
 9991TIP3   OH229913   6.813   3.507   5.223
 9991TIP3    H129914   6.849   3.449   5.155
 9991TIP3    H229915   6.863   3.588   5.214
 9992TIP3   OH229916   7.319   6.427   4.345
 9992TIP3    H129917   7.412   6.414   4.363
 9992TIP3    H229918   7.277   6.430   4.431
 9993TIP3   OH229919   7.754   5.760   2.051
 9993TIP3    H129920   7.720   5.670   2.042
 9993TIP3    H229921   7.790   5.763   2.140
 9994TIP3   OH229922   1.482   4.117   1.790
 9994TIP3    H129923   1.400   4.151   1.826
 9994TIP3    H229924   1.526   4.077   1.865
 9995TIP3   OH229925   8.059   4.427   5.693
 9995TIP3    H129926   8.065   4.412   5.788
 9995TIP3    H229927   8.028   4.517   5.685
 9996TIP3   OH229928   3.664   6.919   1.765
 9996TIP3    H129929   3.748   6.900   1.805
 9996TIP3    H229930   3.601   6.867   1.814
 9997TIP3   OH229931   5.787   3.184   4.677
 9997TIP3    H129932   5.875   3.147   4.686
 9997TIP3    H229933   5.790   3.232   4.594
 9998TIP3   OH229934   3.638   3.451   1.463
 9998TIP3    H129935   3.621   3.450   1.369
 9998TIP3    H229936   3.645   3.358   1.486
 9999TIP3   OH229937   1.873   5.484   3.091
 9999TIP3    H129938   1.940   5.449   3.033
 9999TIP3    H229939   1.824   5.407   3.120
10000TIP3   OH229940   5.921   5.935   4.971
10000TIP3    H129941   5.942   5.900   5.058
10000TIP3    H229942   6.004   5.970   4.939
10001TIP3   OH229943   4.790   4.128   1.825
10001TIP3    H129944   4.792   4.175   1.742
10001TIP3    H229945   4.869   4.157   1.871
10002TIP3   OH229946   2.322   0.700   5.287
10002TIP3    H129947   2.405   0.738   5.316
10002TIP3    H229948   2.288   0.655   5.365
10003TIP3   OH229949   3.955   2.751   0.746
10003TIP3    H129950   3.988   2.804   0.673
10003TIP3    H229951   4.031   2.734   0.801
10004TIP3   OH229952   2.744   3.084   3.875
10004TIP3    H129953   2.719   3.176   3.887
10004TIP3    H229954   2.720   3.063   3.785
10005TIP3   OH229955   5.333   1.796   6.368
10005TIP3    H129956   5.250   1.767   6.329
10005TIP3    H229957   5.397   1.732   6.337
10006TIP3   OH229958   2.330   4.182   3.155
10006TIP3    H129959   2.297   4.183   3.245
10006TIP3    H229960   2.280   4.112   3.112
10007TIP3   OH229961   3.624   4.574   6.428
10007TIP3    H129962   3.687   4.588   6.357
10007TIP3    H229963   3.628   4.480   6.446
10008TIP3   OH229964   8.009   7.339   2.404
10008TIP3    H129965   7.993   7.391   2.483
10008TIP3    H229966   8.086   7.378   2.364
10009TIP3   OH229967   1.845   3.697   3.419
10009TIP3    H129968   1.907   3.629   3.443
10009TIP3    H229969   1.781   3.653   3.363
10010TIP3   OH229970   1.752   2.016   0.728
10010TIP3    H129971   1.758   1.930   0.687
10010TIP3    H229972   1.842   2.037   0.754
10011TIP3   OH229973   4.573   6.390   3.564
10011TIP3    H129974   4.490   6.376   3.609
10011TIP3    H229975   4.588   6.310   3.515
10012TIP3   OH229976   5.865   2.467   3.763
10012TIP3    H129977   5.912   2.449   3.682
10012TIP3    H229978   5.849   2.562   3.762
10013TIP3   OH229979   1.768   6.869   0.801
10013TIP3    H129980   1.795   6.800   0.862
10013TIP3    H229981   1.748   6.822   0.719
10014TIP3   OH229982   5.647   1.713   0.029
10014TIP3    H129983   5.699   1.792   0.014
10014TIP3    H229984   5.696   1.664   0.095
10015TIP3   OH229985   2.006   7.597   4.389
10015TIP3    H129986   2.010   7.574   4.481
10015TIP3    H229987   2.067   7.670   4.379
10016TIP3   OH229988   4.764   2.485   1.006
10016TIP3    H129989   4.751   2.470   0.912
10016TIP3    H229990   4.780   2.398   1.042
10017TIP3   OH229991   6.879   3.939   0.662
10017TIP3    H129992   6.917   3.878   0.599
10017TIP3    H229993   6.923   4.022   0.645
10018TIP3   OH229994   7.505   5.484   2.941
10018TIP3    H129995   7.540   5.559   2.892
10018TIP3    H229996   7.531   5.407   2.891
10019TIP3   OH229997   0.556   5.486   5.670
10019TIP3    H129998   0.517   5.540   5.601
10019TIP3    H229999   0.482   5.458   5.724
10020TIP3   OH230000   8.384   2.392   5.839
10020TIP3    H130001   8.371   2.338   5.761
10020TIP3    H230002   8.404   2.479   5.805
10021TIP3   OH230003   4.219   0.529   1.798
10021TIP3    H130004   4.277   0.573   1.859
10021TIP3    H230005   4.264   0.447   1.777
10022TIP3   OH230006   4.860   0.390   3.940
10022TIP3    H130007   4.794   0.326   3.965
10022TIP3    H230008   4.809   0.467   3.914
10023TIP3   OH230009   4.089   7.705   2.649
10023TIP3    H130010   4.100   7.612   2.668
10023TIP3    H230011   4.159   7.725   2.587
10024TIP3   OH230012   5.459   4.393   4.065
10024TIP3    H130013   5.465   4.470   4.009
10024TIP3    H230014   5.379   4.407   4.116
10025TIP3   OH230015   3.709   2.338   5.010
10025TIP3    H130016   3.692   2.402   5.079
10025TIP3    H230017   3.803   2.320   5.015
10026TIP3   OH230018   3.947   7.255   5.895
10026TIP3    H130019   3.869   7.238   5.843
10026TIP3    H230020   4.016   7.272   5.830
10027TIP3   OH230021   8.327   2.884   0.346
10027TIP3    H130022   8.373   2.929   0.275
10027TIP3    H230023   8.320   2.793   0.316
10028TIP3   OH230024   6.896   2.548   2.628
10028TIP3    H130025   6.830   2.519   2.690
10028TIP3    H230026   6.979   2.512   2.661
10029TIP3   OH230027   6.102   3.356   1.587
10029TIP3    H130028   6.033   3.397   1.534
10029TIP3    H230029   6.183   3.378   1.541
10030TIP3   OH230030   3.024   5.697   6.398
10030TIP3    H130031   3.066   5.773   6.359
10030TIP3    H230032   2.938   5.727   6.425
10031TIP3   OH230033   4.729   7.454   0.261
10031TIP3    H130034   4.718   7.405   0.179
10031TIP3    H230035   4.718   7.388   0.330
10032TIP3   OH230036   5.591   2.469   0.524
10032TIP3    H130037   5.628   2.546   0.569
10032TIP3    H230038   5.609   2.396   0.583
10033TIP3   OH230039   0.087   4.861   2.264
10033TIP3    H130040   0.129   4.805   2.330
10033TIP3    H230041   0.030   4.802   2.216
10034TIP3   OH230042   7.866   3.121   3.480
10034TIP3    H130043   7.852   3.193   3.542
10034TIP3    H230044   7.830   3.153   3.397
10035TIP3   OH230045   4.897   2.523   3.693
10035TIP3    H130046   4.892   2.549   3.785
10035TIP3    H230047   4.847   2.442   3.688
10036TIP3   OH230048   2.339   4.801   6.544
10036TIP3    H130049   2.423   4.828   6.507
10036TIP3    H230050   2.313   4.725   6.493
10037TIP3   OH230051   7.001   2.878   3.601
10037TIP3    H130052   7.064   2.864   3.532
10037TIP3    H230053   7.041   2.945   3.657
10038TIP3   OH230054   0.879   1.372   0.304
10038TIP3    H130055   0.882   1.349   0.397
10038TIP3    H230056   0.962   1.417   0.287
10039TIP3   OH230057   0.318   7.267   0.373
10039TIP3    H130058   0.246   7.304   0.320
10039TIP3    H230059   0.343   7.187   0.327
10040TIP3   OH230060   6.713   1.094   3.821
10040TIP3    H130061   6.736   1.150   3.747
10040TIP3    H230062   6.738   1.145   3.898
10041TIP3   OH230063   4.545   2.046   0.887
10041TIP3    H130064   4.488   2.120   0.863
10041TIP3    H230065   4.564   2.003   0.804
10042TIP3   OH230066   3.777   7.139   5.691
10042TIP3    H130067   3.856   7.085   5.685
10042TIP3    H230068   3.739   7.136   5.604
10043TIP3   OH230069   1.738   0.996   4.047
10043TIP3    H130070   1.784   1.037   3.974
10043TIP3    H230071   1.734   0.903   4.024
10044TIP3   OH230072   3.640   3.460   5.871
10044TIP3    H130073   3.727   3.449   5.909
10044TIP3    H230074   3.634   3.553   5.851
10045TIP3   OH230075   5.442   0.901   0.821
10045TIP3    H130076   5.362   0.896   0.769
10045TIP3    H230077   5.486   0.818   0.805
10046TIP3   OH230078   1.016   2.856   5.153
10046TIP3    H130079   0.936   2.908   5.141
10046TIP3    H230080   1.024   2.806   5.072
10047TIP3   OH230081   6.823   5.955   0.801
10047TIP3    H130082   6.740   5.944   0.754
10047TIP3    H230083   6.826   5.881   0.862
10048TIP3   OH230084   6.245   0.771   0.667
10048TIP3    H130085   6.210   0.789   0.754
10048TIP3    H230086   6.170   0.780   0.609
10049TIP3   OH230087   5.778   6.028   6.579
10049TIP3    H130088   5.863   6.072   6.574
10049TIP3    H230089   5.720   6.082   6.526
10050TIP3   OH230090   1.541   7.335   5.991
10050TIP3    H130091   1.520   7.412   5.937
10050TIP3    H230092   1.479   7.268   5.961
10051TIP3   OH230093   3.562   7.055   4.644
10051TIP3    H130094   3.618   6.978   4.657
10051TIP3    H230095   3.589   7.116   4.713
10052TIP3   OH230096   7.530   6.924   3.223
10052TIP3    H130097   7.588   6.857   3.259
10052TIP3    H230098   7.443   6.901   3.256
10053TIP3   OH230099   2.292   3.869   2.962
10053TIP3    H130100   2.252   3.790   2.998
10053TIP3    H230101   2.386   3.853   2.966
10054TIP3   OH230102   1.904   3.509   1.552
10054TIP3    H130103   1.892   3.587   1.607
10054TIP3    H230104   1.819   3.498   1.509
10055TIP3   OH230105   1.517   2.493   6.461
10055TIP3    H130106   1.553   2.559   6.402
10055TIP3    H230107   1.503   2.540   6.544
10056TIP3   OH230108   5.439   2.482   5.621
10056TIP3    H130109   5.512   2.544   5.619
10056TIP3    H230110   5.468   2.414   5.682
10057TIP3   OH230111   0.632   4.611   4.212
10057TIP3    H130112   0.624   4.623   4.118
10057TIP3    H230113   0.636   4.516   4.225
10058TIP3   OH230114   2.343   6.313   1.661
10058TIP3    H130115   2.338   6.219   1.675
10058TIP3    H230116   2.435   6.330   1.642
10059TIP3   OH230117   8.222   6.865   1.021
10059TIP3    H130118   8.182   6.778   1.034
10059TIP3    H230119   8.310   6.846   0.989
10060TIP3   OH230120   5.259   3.374   1.883
10060TIP3    H130121   5.277   3.467   1.870
10060TIP3    H230122   5.225   3.368   1.972
10061TIP3   OH230123   2.964   6.283   5.221
10061TIP3    H130124   3.019   6.322   5.290
10061TIP3    H230125   2.970   6.345   5.149
10062TIP3   OH230126   3.456   1.342   1.353
10062TIP3    H130127   3.448   1.416   1.293
10062TIP3    H230128   3.530   1.365   1.409
10063TIP3   OH230129   1.204   3.427   4.377
10063TIP3    H130130   1.253   3.493   4.426
10063TIP3    H230131   1.216   3.346   4.427
10064TIP3   OH230132   1.131   7.697   6.523
10064TIP3    H130133   1.165   7.738   6.603
10064TIP3    H230134   1.152   7.759   6.453
10065TIP3   OH230135   0.864   7.624   5.484
10065TIP3    H130136   0.859   7.693   5.551
10065TIP3    H230137   0.957   7.604   5.476
10066TIP3   OH230138   5.016   5.839   4.259
10066TIP3    H130139   5.088   5.883   4.213
10066TIP3    H230140   4.963   5.801   4.190
10067TIP3   OH230141   5.404   1.938   1.589
10067TIP3    H130142   5.381   1.845   1.587
10067TIP3    H230143   5.479   1.944   1.649
10068TIP3   OH230144   2.080   4.282   5.193
10068TIP3    H130145   2.075   4.288   5.097
10068TIP3    H230146   2.092   4.372   5.222
10069TIP3   OH230147   1.710   0.574   5.774
10069TIP3    H130148   1.690   0.511   5.844
10069TIP3    H230149   1.629   0.580   5.723
10070TIP3   OH230150   5.111   7.894   0.150
10070TIP3    H130151   5.168   7.834   0.197
10070TIP3    H230152   5.164   7.971   0.134
10071TIP3   OH230153   5.067   6.417   0.268
10071TIP3    H130154   5.054   6.403   0.174
10071TIP3    H230155   5.007   6.487   0.291
10072TIP3   OH230156   7.358   6.505   1.505
10072TIP3    H130157   7.314   6.427   1.541
10072TIP3    H230158   7.447   6.501   1.540
10073TIP3   OH230159   6.061   6.996   5.051
10073TIP3    H130160   6.153   6.974   5.040
10073TIP3    H230161   6.052   7.017   5.144
10074TIP3   OH230162   4.810   7.176   1.720
10074TIP3    H130163   4.860   7.143   1.795
10074TIP3    H230164   4.812   7.105   1.656
10075TIP3   OH230165   3.777   7.233   3.429
10075TIP3    H130166   3.773   7.169   3.358
10075TIP3    H230167   3.799   7.315   3.386
10076TIP3   OH230168   7.334   5.055   1.864
10076TIP3    H130169   7.389   5.077   1.789
10076TIP3    H230170   7.311   4.962   1.850
10077TIP3   OH230171   1.816   7.276   4.131
10077TIP3    H130172   1.811   7.221   4.210
10077TIP3    H230173   1.763   7.229   4.066
10078TIP3   OH230174   3.139   0.339   4.874
10078TIP3    H130175   3.132   0.259   4.821
10078TIP3    H230176   3.102   0.314   4.959
10079TIP3   OH230177   0.629   2.486   2.131
10079TIP3    H130178   0.592   2.499   2.044
10079TIP3    H230179   0.554   2.479   2.189
10080TIP3   OH230180   2.615   1.928   4.438
10080TIP3    H130181   2.550   1.890   4.379
10080TIP3    H230182   2.663   1.853   4.473
10081TIP3   OH230183   6.311   4.621   2.610
10081TIP3    H130184   6.288   4.713   2.612
10081TIP3    H230185   6.339   4.605   2.520
10082TIP3   OH230186   6.320   2.698   3.948
10082TIP3    H130187   6.315   2.738   3.862
10082TIP3    H230188   6.398   2.737   3.988
10083TIP3   OH230189   0.901   7.028   5.984
10083TIP3    H130190   0.877   7.037   5.892
10083TIP3    H230191   0.993   7.053   5.988
10084TIP3   OH230192   2.024   3.252   0.447
10084TIP3    H130193   1.986   3.339   0.456
10084TIP3    H230194   1.980   3.214   0.371
10085TIP3   OH230195   5.399   6.135   0.865
10085TIP3    H130196   5.353   6.218   0.850
10085TIP3    H230197   5.335   6.068   0.841
10086TIP3   OH230198   6.702   3.507   0.452
10086TIP3    H130199   6.723   3.468   0.367
10086TIP3    H230200   6.607   3.492   0.461
10087TIP3   OH230201   6.769   1.545   1.528
10087TIP3    H130202   6.694   1.605   1.524
10087TIP3    H230203   6.744   1.478   1.591
10088TIP3   OH230204   5.527   0.184   0.622
10088TIP3    H130205   5.583   0.235   0.680
10088TIP3    H230206   5.447   0.169   0.673
10089TIP3   OH230207   6.033   5.518   3.688
10089TIP3    H130208   5.962   5.581   3.679
10089TIP3    H230209   6.063   5.503   3.599
10090TIP3   OH230210   0.875   5.425   3.611
10090TIP3    H130211   0.894   5.352   3.552
10090TIP3    H230212   0.913   5.501   3.568
10091TIP3   OH230213   4.441   2.469   5.187
10091TIP3    H130214   4.348   2.479   5.206
10091TIP3    H230215   4.465   2.385   5.224
10092TIP3   OH230216   7.876   0.952   0.856
10092TIP3    H130217   7.843   1.038   0.883
10092TIP3    H230218   7.798   0.897   0.849
10093TIP3   OH230219   5.621   5.224   0.202
10093TIP3    H130220   5.713   5.210   0.181
10093TIP3    H230221   5.620   5.306   0.252
10094TIP3   OH230222   3.751  -0.006   5.572
10094TIP3    H130223   3.802  -0.036   5.647
10094TIP3    H230224   3.708   0.073   5.603
10095TIP3   OH230225   3.599   0.424   6.766
10095TIP3    H130226   3.611   0.362   6.693
10095TIP3    H230227   3.577   0.368   6.841
10096TIP3   OH230228  -0.017   4.165   3.738
10096TIP3    H130229   0.070   4.171   3.698
10096TIP3    H230230  -0.003   4.191   3.829
10097TIP3   OH230231   5.355   2.212   0.507
10097TIP3    H130232   5.377   2.293   0.462
10097TIP3    H230233   5.261   2.200   0.491
10098TIP3   OH230234   2.416   2.880   4.574
10098TIP3    H130235   2.506   2.900   4.600
10098TIP3    H230236   2.423   2.801   4.522
10099TIP3   OH230237   0.859   5.757   5.035
10099TIP3    H130238   0.877   5.760   5.129
10099TIP3    H230239   0.849   5.849   5.010
10100TIP3   OH230240   4.679   4.663   2.032
10100TIP3    H130241   4.654   4.754   2.018
10100TIP3    H230242   4.598   4.619   2.056
10101TIP3   OH230243   1.843   4.403   1.691
10101TIP3    H130244   1.802   4.482   1.725
10101TIP3    H230245   1.809   4.394   1.603
10102TIP3   OH230246   2.848   2.218   1.268
10102TIP3    H130247   2.886   2.305   1.275
10102TIP3    H230248   2.804   2.217   1.183
10103TIP3   OH230249   2.146   1.766   5.424
10103TIP3    H130250   2.088   1.692   5.445
10103TIP3    H230251   2.164   1.807   5.508
10104TIP3   OH230252   5.261   1.496   6.514
10104TIP3    H130253   5.187   1.552   6.536
10104TIP3    H230254   5.337   1.555   6.517
10105TIP3   OH230255   3.154   7.908   1.413
10105TIP3    H130256   3.239   7.949   1.397
10105TIP3    H230257   3.171   7.814   1.404
10106TIP3   OH230258   5.011   0.883   4.837
10106TIP3    H130259   4.916   0.874   4.832
10106TIP3    H230260   5.044   0.808   4.788
10107TIP3   OH230261   6.450   0.832   0.483
10107TIP3    H130262   6.408   0.861   0.402
10107TIP3    H230263   6.377   0.802   0.538
10108TIP3   OH230264   3.362   7.101   6.413
10108TIP3    H130265   3.270   7.122   6.395
10108TIP3    H230266   3.411   7.172   6.371
10109TIP3   OH230267   4.164   7.237   3.390
10109TIP3    H130268   4.111   7.227   3.469
10109TIP3    H230269   4.215   7.156   3.385
10110TIP3   OH230270   2.057   2.334   0.929
10110TIP3    H130271   2.130   2.381   0.888
10110TIP3    H230272   1.982   2.392   0.920
10111TIP3   OH230273   7.039   4.012   5.270
10111TIP3    H130274   6.952   4.047   5.289
10111TIP3    H230275   7.027   3.960   5.190
10112TIP3   OH230276   3.877   2.614   3.046
10112TIP3    H130277   3.927   2.598   2.966
10112TIP3    H230278   3.930   2.676   3.096
10113TIP3   OH230279   8.005   5.878   4.585
10113TIP3    H130280   7.976   5.869   4.675
10113TIP3    H230281   8.076   5.815   4.576
10114TIP3   OH230282   7.782   3.961   4.426
10114TIP3    H130283   7.801   3.871   4.399
10114TIP3    H230284   7.786   3.959   4.521
10115TIP3   OH230285   3.871   4.842   5.035
10115TIP3    H130286   3.867   4.937   5.021
10115TIP3    H230287   3.809   4.806   4.972
10116TIP3   OH230288   3.246   5.787   5.516
10116TIP3    H130289   3.266   5.722   5.448
10116TIP3    H230290   3.157   5.766   5.544
10117TIP3   OH230291   8.282   4.500   1.337
10117TIP3    H130292   8.235   4.583   1.335
10117TIP3    H230293   8.269   4.462   1.250
10118TIP3   OH230294   5.638   0.578   4.711
10118TIP3    H130295   5.629   0.649   4.775
10118TIP3    H230296   5.733   0.569   4.697
10119TIP3   OH230297   6.903   4.618   0.590
10119TIP3    H130298   6.992   4.588   0.575
10119TIP3    H230299   6.884   4.676   0.517
10120TIP3   OH230300   1.025   5.423   1.970
10120TIP3    H130301   0.970   5.501   1.978
10120TIP3    H230302   1.012   5.394   1.879
10121TIP3   OH230303   5.131   3.434   3.967
10121TIP3    H130304   5.142   3.342   3.991
10121TIP3    H230305   5.202   3.479   4.013
10122TIP3   OH230306   6.146   0.262   1.660
10122TIP3    H130307   6.140   0.183   1.714
10122TIP3    H230308   6.078   0.320   1.695
10123TIP3   OH230309   7.430   3.581   4.716
10123TIP3    H130310   7.442   3.588   4.811
10123TIP3    H230311   7.469   3.496   4.694
10124TIP3   OH230312   2.880   1.617   4.684
10124TIP3    H130313   2.943   1.545   4.689
10124TIP3    H230314   2.923   1.689   4.731
10125TIP3   OH230315   0.484   6.011   0.508
10125TIP3    H130316   0.528   6.021   0.424
10125TIP3    H230317   0.472   5.916   0.518
10126TIP3   OH230318   4.442   5.489   5.066
10126TIP3    H130319   4.494   5.460   4.991
10126TIP3    H230320   4.363   5.527   5.027
10127TIP3   OH230321   0.418   3.749   2.888
10127TIP3    H130322   0.467   3.802   2.825
10127TIP3    H230323   0.482   3.725   2.954
10128TIP3   OH230324   2.346   6.348   6.015
10128TIP3    H130325   2.294   6.344   5.935
10128TIP3    H230326   2.365   6.257   6.035
10129TIP3   OH230327   1.816   6.823   1.915
10129TIP3    H130328   1.822   6.728   1.903
10129TIP3    H230329   1.725   6.838   1.941
10130TIP3   OH230330   1.306   6.243   6.616
10130TIP3    H130331   1.386   6.275   6.656
10130TIP3    H230332   1.250   6.219   6.690
10131TIP3   OH230333   1.606   4.227   6.538
10131TIP3    H130334   1.619   4.207   6.445
10131TIP3    H230335   1.591   4.321   6.541
10132TIP3   OH230336   4.417   3.212   3.874
10132TIP3    H130337   4.417   3.279   3.806
10132TIP3    H230338   4.335   3.164   3.861
10133TIP3   OH230339   0.392   4.848   2.355
10133TIP3    H130340   0.475   4.805   2.378
10133TIP3    H230341   0.337   4.835   2.432
10134TIP3   OH230342   0.300   0.456   0.201
10134TIP3    H130343   0.274   0.540   0.238
10134TIP3    H230344   0.278   0.463   0.108
10135TIP3   OH230345   6.494   6.695   6.192
10135TIP3    H130346   6.586   6.686   6.218
10135TIP3    H230347   6.462   6.605   6.183
10136TIP3   OH230348   3.652   7.602   2.666
10136TIP3    H130349   3.717   7.580   2.732
10136TIP3    H230350   3.704   7.632   2.591
10137TIP3   OH230351   1.633   3.449   4.578
10137TIP3    H130352   1.567   3.483   4.518
10137TIP3    H230353   1.710   3.434   4.522
10138TIP3   OH230354   0.894   3.623   3.064
10138TIP3    H130355   0.949   3.680   3.010
10138TIP3    H230356   0.820   3.678   3.089
10139TIP3   OH230357   0.108   4.644   5.158
10139TIP3    H130358   0.162   4.570   5.128
10139TIP3    H230359   0.019   4.621   5.133
10140TIP3   OH230360   6.403   0.535   6.640
10140TIP3    H130361   6.468   0.484   6.591
10140TIP3    H230362   6.332   0.550   6.577
10141TIP3   OH230363   7.991   7.049   2.495
10141TIP3    H130364   8.007   7.140   2.470
10141TIP3    H230365   7.997   7.001   2.412
10142TIP3   OH230366   5.567   1.816   0.454
10142TIP3    H130367   5.650   1.779   0.485
10142TIP3    H230368   5.501   1.781   0.514
10143TIP3   OH230369   4.165   5.459   6.693
10143TIP3    H130370   4.145   5.528   6.630
10143TIP3    H230371   4.079   5.433   6.727
10144TIP3   OH230372   1.556   1.581   5.787
10144TIP3    H130373   1.572   1.539   5.702
10144TIP3    H230374   1.578   1.514   5.852
10145TIP3   OH230375   4.173   1.062   6.458
10145TIP3    H130376   4.152   1.155   6.452
10145TIP3    H230377   4.237   1.046   6.389
10146TIP3   OH230378   5.931   1.067   2.229
10146TIP3    H130379   5.960   1.150   2.192
10146TIP3    H230380   5.991   1.052   2.302
10147TIP3   OH230381   4.060   6.570   5.687
10147TIP3    H130382   4.098   6.494   5.643
10147TIP3    H230383   4.074   6.642   5.625
10148TIP3   OH230384   4.880   0.804   6.743
10148TIP3    H130385   4.866   0.728   6.800
10148TIP3    H230386   4.794   0.821   6.706
10149TIP3   OH230387   8.235   2.392   2.173
10149TIP3    H130388   8.192   2.474   2.146
10149TIP3    H230389   8.244   2.342   2.092
10150TIP3   OH230390   3.559   2.322   3.687
10150TIP3    H130391   3.596   2.241   3.651
10150TIP3    H230392   3.572   2.313   3.782
10151TIP3   OH230393   0.700   6.087   0.300
10151TIP3    H130394   0.691   6.057   0.210
10151TIP3    H230395   0.793   6.076   0.320
10152TIP3   OH230396   1.317   6.598   4.357
10152TIP3    H130397   1.232   6.609   4.400
10152TIP3    H230398   1.355   6.686   4.354
10153TIP3   OH230399   1.370   7.299   5.524
10153TIP3    H130400   1.392   7.226   5.466
10153TIP3    H230401   1.356   7.373   5.465
10154TIP3   OH230402   0.913   4.849   1.997
10154TIP3    H130403   0.860   4.771   2.013
10154TIP3    H230404   0.864   4.898   1.931
10155TIP3   OH230405   0.627   4.816   6.772
10155TIP3    H130406   0.672   4.894   6.740
10155TIP3    H230407   0.611   4.764   6.693
10156TIP3   OH230408   7.656   3.772   3.035
10156TIP3    H130409   7.716   3.781   3.109
10156TIP3    H230410   7.638   3.862   3.008
10157TIP3   OH230411   6.622   4.195   0.703
10157TIP3    H130412   6.576   4.148   0.634
10157TIP3    H230413   6.674   4.261   0.658
10158TIP3   OH230414   1.720   1.020   2.145
10158TIP3    H130415   1.687   1.062   2.224
10158TIP3    H230416   1.681   0.933   2.146
10159TIP3   OH230417   2.915   5.046   4.372
10159TIP3    H130418   2.905   5.066   4.465
10159TIP3    H230419   2.882   4.957   4.363
10160TIP3   OH230420   3.395   2.105   2.078
10160TIP3    H130421   3.419   2.088   1.986
10160TIP3    H230422   3.447   2.042   2.128
10161TIP3   OH230423   8.288   2.231   4.539
10161TIP3    H130424   8.380   2.209   4.530
10161TIP3    H230425   8.268   2.287   4.464
10162TIP3   OH230426   4.052   7.646   3.005
10162TIP3    H130427   4.105   7.723   2.987
10162TIP3    H230428   4.048   7.642   3.100
10163TIP3   OH230429   6.225   5.059   2.056
10163TIP3    H130430   6.238   5.137   2.110
10163TIP3    H230431   6.238   5.089   1.966
10164TIP3   OH230432   4.177   0.714   3.925
10164TIP3    H130433   4.180   0.807   3.906
10164TIP3    H230434   4.207   0.707   4.015
10165TIP3   OH230435   6.302   4.110   4.788
10165TIP3    H130436   6.280   4.127   4.697
10165TIP3    H230437   6.231   4.053   4.819
10166TIP3   OH230438   0.822   3.122   4.209
10166TIP3    H130439   0.809   3.210   4.174
10166TIP3    H230440   0.900   3.130   4.265
10167TIP3   OH230441   7.858   5.510   3.255
10167TIP3    H130442   7.916   5.438   3.281
10167TIP3    H230443   7.779   5.467   3.224
10168TIP3   OH230444   5.335   2.835   3.440
10168TIP3    H130445   5.323   2.761   3.498
10168TIP3    H230446   5.254   2.839   3.389
10169TIP3   OH230447   4.693   7.468   5.583
10169TIP3    H130448   4.695   7.372   5.585
10169TIP3    H230449   4.728   7.494   5.668
10170TIP3   OH230450   0.486   5.798   3.445
10170TIP3    H130451   0.490   5.893   3.461
10170TIP3    H230452   0.544   5.761   3.512
10171TIP3   OH230453   0.187   0.824   3.583
10171TIP3    H130454   0.152   0.849   3.497
10171TIP3    H230455   0.117   0.846   3.644
10172TIP3   OH230456   4.430   3.572   2.259
10172TIP3    H130457   4.392   3.598   2.343
10172TIP3    H230458   4.523   3.560   2.278
10173TIP3   OH230459   0.576   7.721   0.440
10173TIP3    H130460   0.665   7.739   0.470
10173TIP3    H230461   0.577   7.629   0.414
10174TIP3   OH230462   6.791   7.209   2.121
10174TIP3    H130463   6.816   7.171   2.037
10174TIP3    H230464   6.849   7.284   2.133
10175TIP3   OH230465   1.386   1.603   2.319
10175TIP3    H130466   1.450   1.664   2.355
10175TIP3    H230467   1.332   1.576   2.394
10176TIP3   OH230468   8.193   6.081   5.424
10176TIP3    H130469   8.255   6.133   5.476
10176TIP3    H230470   8.206   6.110   5.334
10177TIP3   OH230471   1.010   1.369   0.948
10177TIP3    H130472   1.098   1.357   0.981
10177TIP3    H230473   1.008   1.321   0.865
10178TIP3   OH230474   7.236   2.379   5.264
10178TIP3    H130475   7.212   2.387   5.356
10178TIP3    H230476   7.247   2.469   5.234
10179TIP3   OH230477   5.107   0.424   4.046
10179TIP3    H130478   5.139   0.374   3.971
10179TIP3    H230479   5.012   0.411   4.045
10180TIP3   OH230480   1.174   4.391   4.171
10180TIP3    H130481   1.131   4.306   4.185
10180TIP3    H230482   1.255   4.385   4.222
10181TIP3   OH230483   7.290   3.991   5.679
10181TIP3    H130484   7.232   4.058   5.643
10181TIP3    H230485   7.242   3.909   5.669
10182TIP3   OH230486   5.798   6.727   0.001
10182TIP3    H130487   5.850   6.801   0.034
10182TIP3    H230488   5.712   6.737   0.043
10183TIP3   OH230489   1.445   7.155   4.946
10183TIP3    H130490   1.484   7.069   4.932
10183TIP3    H230491   1.490   7.211   4.882
10184TIP3   OH230492   7.487   7.670   0.901
10184TIP3    H130493   7.561   7.668   0.840
10184TIP3    H230494   7.458   7.579   0.905
10185TIP3   OH230495   7.662   5.100   6.650
10185TIP3    H130496   7.607   5.119   6.726
10185TIP3    H230497   7.640   5.010   6.626
10186TIP3   OH230498   3.252   0.745   5.363
10186TIP3    H130499   3.185   0.738   5.431
10186TIP3    H230500   3.320   0.684   5.390
10187TIP3   OH230501   0.222   3.415   3.496
10187TIP3    H130502   0.161   3.396   3.568
10187TIP3    H230503   0.200   3.350   3.429
10188TIP3   OH230504   6.266   1.335   5.689
10188TIP3    H130505   6.263   1.251   5.735
10188TIP3    H230506   6.350   1.373   5.713
10189TIP3   OH230507   3.801   7.041   3.233
10189TIP3    H130508   3.799   7.001   3.147
10189TIP3    H230509   3.750   6.982   3.289
10190TIP3   OH230510   2.828   5.523   5.091
10190TIP3    H130511   2.915   5.487   5.074
10190TIP3    H230512   2.806   5.571   5.011
10191TIP3   OH230513   1.298   0.643   0.825
10191TIP3    H130514   1.234   0.600   0.768
10191TIP3    H230515   1.362   0.679   0.765
10192TIP3   OH230516   4.172   2.641   1.351
10192TIP3    H130517   4.166   2.604   1.439
10192TIP3    H230518   4.088   2.621   1.310
10193TIP3   OH230519   4.569   7.843   3.302
10193TIP3    H130520   4.479   7.815   3.315
10193TIP3    H230521   4.622   7.775   3.344
10194TIP3   OH230522   3.124   4.360   6.330
10194TIP3    H130523   3.186   4.417   6.376
10194TIP3    H230524   3.171   4.331   6.252
10195TIP3   OH230525   7.865   5.420   2.469
10195TIP3    H130526   7.923   5.346   2.451
10195TIP3    H230527   7.896   5.456   2.552
10196TIP3   OH230528   5.954   5.411   4.777
10196TIP3    H130529   6.041   5.395   4.738
10196TIP3    H230530   5.906   5.457   4.708
10197TIP3   OH230531   0.045   2.867   5.888
10197TIP3    H130532   0.112   2.917   5.842
10197TIP3    H230533   0.077   2.859   5.978
10198TIP3   OH230534   3.618   1.196   1.634
10198TIP3    H130535   3.695   1.166   1.681
10198TIP3    H230536   3.649   1.269   1.580
10199TIP3   OH230537   5.509   0.056   3.462
10199TIP3    H130538   5.499  -0.004   3.535
10199TIP3    H230539   5.527   0.000   3.387
10200TIP3   OH230540   4.891   1.211   5.293
10200TIP3    H130541   4.884   1.191   5.199
10200TIP3    H230542   4.820   1.161   5.333
10201TIP3   OH230543   2.416   3.150   0.577
10201TIP3    H130544   2.376   3.234   0.555
10201TIP3    H230545   2.501   3.172   0.615
10202TIP3   OH230546   4.095   3.039   1.334
10202TIP3    H130547   4.038   2.977   1.289
10202TIP3    H230548   4.080   3.123   1.290
10203TIP3   OH230549   2.494   7.577   4.589
10203TIP3    H130550   2.510   7.590   4.496
10203TIP3    H230551   2.405   7.610   4.603
10204TIP3   OH230552   5.482   2.083   0.711
10204TIP3    H130553   5.543   2.158   0.708
10204TIP3    H230554   5.429   2.093   0.633
10205TIP3   OH230555   4.188   5.614   4.920
10205TIP3    H130556   4.142   5.535   4.948
10205TIP3    H230557   4.163   5.624   4.828
10206TIP3   OH230558   6.269   6.127   5.493
10206TIP3    H130559   6.264   6.188   5.566
10206TIP3    H230560   6.346   6.073   5.512
10207TIP3   OH230561   6.351   4.107   1.936
10207TIP3    H130562   6.413   4.180   1.935
10207TIP3    H230563   6.271   4.143   1.899
10208TIP3   OH230564   1.991   6.011   5.631
10208TIP3    H130565   1.985   5.928   5.583
10208TIP3    H230566   2.023   5.986   5.718
10209TIP3   OH230567   0.306   0.231   1.281
10209TIP3    H130568   0.288   0.216   1.188
10209TIP3    H230569   0.268   0.156   1.325
10210TIP3   OH230570   0.595   0.944   5.083
10210TIP3    H130571   0.680   0.904   5.102
10210TIP3    H230572   0.616   1.033   5.055
10211TIP3   OH230573   6.010   6.945   2.977
10211TIP3    H130574   6.068   6.881   2.936
10211TIP3    H230575   6.046   7.030   2.951
10212TIP3   OH230576   2.235   5.233   1.375
10212TIP3    H130577   2.182   5.186   1.439
10212TIP3    H230578   2.320   5.188   1.375
10213TIP3   OH230579   3.292   2.949   3.999
10213TIP3    H130580   3.363   2.962   4.062
10213TIP3    H230581   3.239   2.878   4.037
10214TIP3   OH230582   5.184   0.907   3.410
10214TIP3    H130583   5.145   0.991   3.385
10214TIP3    H230584   5.204   0.865   3.326
10215TIP3   OH230585   4.430   3.357   1.041
10215TIP3    H130586   4.476   3.363   1.125
10215TIP3    H230587   4.350   3.406   1.054
10216TIP3   OH230588   1.777   3.823   3.062
10216TIP3    H130589   1.773   3.918   3.053
10216TIP3    H230590   1.737   3.804   3.147
10217TIP3   OH230591   1.179   1.106   5.468
10217TIP3    H130592   1.256   1.087   5.522
10217TIP3    H230593   1.132   1.174   5.515
10218TIP3   OH230594   6.640   6.123   3.373
10218TIP3    H130595   6.709   6.189   3.377
10218TIP3    H230596   6.678   6.051   3.324
10219TIP3   OH230597   2.131   6.763   0.693
10219TIP3    H130598   2.224   6.781   0.678
10219TIP3    H230599   2.105   6.825   0.761
10220TIP3   OH230600   7.267   3.409   5.863
10220TIP3    H130601   7.321   3.479   5.827
10220TIP3    H230602   7.294   3.330   5.817
10221TIP3   OH230603   3.240   0.167   3.941
10221TIP3    H130604   3.184   0.097   3.908
10221TIP3    H230605   3.327   0.128   3.946
10222TIP3   OH230606   0.673   1.987   0.853
10222TIP3    H130607   0.659   1.893   0.851
10222TIP3    H230608   0.640   2.018   0.769
10223TIP3   OH230609   4.884   3.229   2.390
10223TIP3    H130610   4.909   3.296   2.453
10223TIP3    H230611   4.966   3.185   2.368
10224TIP3   OH230612   4.506   7.477   3.388
10224TIP3    H130613   4.529   7.385   3.402
10224TIP3    H230614   4.586   7.525   3.409
10225TIP3   OH230615   4.661   2.919   4.238
10225TIP3    H130616   4.670   2.938   4.145
10225TIP3    H230617   4.578   2.960   4.263
10226TIP3   OH230618   5.318   4.218   0.048
10226TIP3    H130619   5.373   4.218   0.126
10226TIP3    H230620   5.370   4.265  -0.018
10227TIP3   OH230621   1.925   0.754   6.492
10227TIP3    H130622   1.883   0.836   6.520
10227TIP3    H230623   1.883   0.733   6.409
10228TIP3   OH230624   2.152   1.317   2.508
10228TIP3    H130625   2.176   1.389   2.449
10228TIP3    H230626   2.060   1.334   2.530
10229TIP3   OH230627   7.633   7.407   5.579
10229TIP3    H130628   7.537   7.406   5.575
10229TIP3    H230629   7.658   7.316   5.565
10230TIP3   OH230630   6.913   3.318   3.762
10230TIP3    H130631   6.884   3.241   3.714
10230TIP3    H230632   6.844   3.383   3.746
10231TIP3   OH230633   4.060   4.367   6.718
10231TIP3    H130634   3.969   4.375   6.690
10231TIP3    H230635   4.090   4.285   6.679
10232TIP3   OH230636   7.635   6.850   2.933
10232TIP3    H130637   7.558   6.882   2.886
10232TIP3    H230638   7.629   6.889   3.020
10233TIP3   OH230639   3.123   1.487   5.739
10233TIP3    H130640   3.041   1.512   5.782
10233TIP3    H230641   3.163   1.423   5.797
10234TIP3   OH230642   7.965   0.536   4.194
10234TIP3    H130643   8.043   0.573   4.235
10234TIP3    H230644   7.986   0.443   4.182
10235TIP3   OH230645   7.988   5.683   6.608
10235TIP3    H130646   8.072   5.721   6.580
10235TIP3    H230647   7.924   5.720   6.547
10236TIP3   OH230648   4.502   3.223   0.243
10236TIP3    H130649   4.427   3.276   0.216
10236TIP3    H230650   4.565   3.233   0.172
10237TIP3   OH230651   5.856   4.793   6.275
10237TIP3    H130652   5.791   4.773   6.207
10237TIP3    H230653   5.807   4.843   6.341
10238TIP3   OH230654   6.796   0.660   4.985
10238TIP3    H130655   6.831   0.639   5.072
10238TIP3    H230656   6.873   0.685   4.934
10239TIP3   OH230657   5.232   0.084   4.781
10239TIP3    H130658   5.244   0.161   4.724
10239TIP3    H230659   5.159   0.108   4.838
10240TIP3   OH230660   8.161   7.738   1.351
10240TIP3    H130661   8.112   7.753   1.270
10240TIP3    H230662   8.245   7.702   1.322
10241TIP3   OH230663   0.630   0.167   6.573
10241TIP3    H130664   0.694   0.128   6.514
10241TIP3    H230665   0.549   0.119   6.556
10242TIP3   OH230666   4.465   1.125   2.484
10242TIP3    H130667   4.388   1.069   2.487
10242TIP3    H230668   4.438   1.205   2.528
10243TIP3   OH230669   7.246   5.081   6.599
10243TIP3    H130670   7.188   5.034   6.659
10243TIP3    H230671   7.280   5.155   6.650
10244TIP3   OH230672   2.871   0.082   1.947
10244TIP3    H130673   2.778   0.101   1.958
10244TIP3    H230674   2.879   0.056   1.855
10245TIP3   OH230675   8.100   5.902   4.285
10245TIP3    H130676   8.040   5.906   4.211
10245TIP3    H230677   8.070   5.970   4.345
10246TIP3   OH230678   7.210   0.973   0.581
10246TIP3    H130679   7.118   0.950   0.568
10246TIP3    H230680   7.250   0.961   0.495
10247TIP3   OH230681   7.859   1.661   2.466
10247TIP3    H130682   7.893   1.736   2.416
10247TIP3    H230683   7.799   1.617   2.405
10248TIP3   OH230684   7.602   0.978   3.609
10248TIP3    H130685   7.592   0.984   3.704
10248TIP3    H230686   7.590   0.884   3.590
10249TIP3   OH230687   0.803   6.289   2.638
10249TIP3    H130688   0.818   6.197   2.656
10249TIP3    H230689   0.872   6.314   2.577
10250TIP3   OH230690   5.589   5.108   6.363
10250TIP3    H130691   5.557   5.039   6.420
10250TIP3    H230692   5.677   5.127   6.395
10251TIP3   OH230693   5.358   2.934   0.964
10251TIP3    H130694   5.298   2.907   1.033
10251TIP3    H230695   5.333   3.024   0.944
10252TIP3   OH230696   5.937   0.688   2.254
10252TIP3    H130697   6.020   0.687   2.301
10252TIP3    H230698   5.954   0.636   2.175
10253TIP3   OH230699   1.343   3.875   6.429
10253TIP3    H130700   1.400   3.921   6.369
10253TIP3    H230701   1.286   3.943   6.465
10254TIP3   OH230702   2.907   7.442   3.682
10254TIP3    H130703   2.856   7.417   3.604
10254TIP3    H230704   2.992   7.400   3.669
10255TIP3   OH230705   6.480   5.217   5.283
10255TIP3    H130706   6.553   5.256   5.332
10255TIP3    H230707   6.414   5.286   5.279
10256TIP3   OH230708   3.778   1.510   2.625
10256TIP3    H130709   3.731   1.447   2.680
10256TIP3    H230710   3.867   1.510   2.660
10257TIP3   OH230711   2.976   6.250   1.456
10257TIP3    H130712   2.989   6.157   1.475
10257TIP3    H230713   2.939   6.286   1.537
10258TIP3   OH230714   1.053   7.833   2.012
10258TIP3    H130715   1.005   7.859   1.933
10258TIP3    H230716   0.985   7.802   2.072
10259TIP3   OH230717   7.226   4.899   1.425
10259TIP3    H130718   7.145   4.882   1.473
10259TIP3    H230719   7.226   4.994   1.412
10260TIP3   OH230720   1.564   5.908   2.625
10260TIP3    H130721   1.615   5.928   2.546
10260TIP3    H230722   1.596   5.970   2.691
10261TIP3   OH230723   7.921   4.429   1.984
10261TIP3    H130724   7.897   4.361   2.047
10261TIP3    H230725   8.004   4.463   2.017
10262TIP3   OH230726   3.950   5.848   6.164
10262TIP3    H130727   3.914   5.767   6.131
10262TIP3    H230728   3.999   5.885   6.091
10263TIP3   OH230729   0.633   4.490   0.946
10263TIP3    H130730   0.590   4.537   1.018
10263TIP3    H230731   0.561   4.458   0.892
10264TIP3   OH230732   4.461   4.924   4.943
10264TIP3    H130733   4.501   4.905   4.858
10264TIP3    H230734   4.406   4.848   4.960
10265TIP3   OH230735   1.282   4.315   0.792
10265TIP3    H130736   1.237   4.348   0.871
10265TIP3    H230737   1.375   4.316   0.816
10266TIP3   OH230738   1.365   6.599   0.811
10266TIP3    H130739   1.431   6.555   0.865
10266TIP3    H230740   1.299   6.531   0.793
10267TIP3   OH230741   5.746   1.177   5.931
10267TIP3    H130742   5.766   1.102   5.877
10267TIP3    H230743   5.775   1.153   6.019
10268TIP3   OH230744   4.274   1.160   3.304
10268TIP3    H130745   4.237   1.078   3.272
10268TIP3    H230746   4.368   1.152   3.289
10269TIP3   OH230747   0.312   6.092   5.888
10269TIP3    H130748   0.224   6.095   5.852
10269TIP3    H230749   0.338   6.000   5.882
10270TIP3   OH230750   2.551   1.830   3.765
10270TIP3    H130751   2.581   1.740   3.781
10270TIP3    H230752   2.471   1.820   3.714
10271TIP3   OH230753   2.568   6.395   5.413
10271TIP3    H130754   2.614   6.442   5.482
10271TIP3    H230755   2.497   6.454   5.387
10272TIP3   OH230756   8.130   0.859   6.052
10272TIP3    H130757   8.120   0.953   6.068
10272TIP3    H230758   8.041   0.825   6.058
10273TIP3   OH230759   1.310   7.184   3.723
10273TIP3    H130760   1.258   7.112   3.689
10273TIP3    H230761   1.392   7.180   3.674
10274TIP3   OH230762   7.744   6.101   0.760
10274TIP3    H130763   7.745   6.032   0.693
10274TIP3    H230764   7.811   6.163   0.732
10275TIP3   OH230765   3.186   2.237   0.157
10275TIP3    H130766   3.205   2.283   0.075
10275TIP3    H230767   3.196   2.144   0.136
10276TIP3   OH230768   6.341   4.822   2.201
10276TIP3    H130769   6.400   4.813   2.126
10276TIP3    H230770   6.286   4.897   2.179
10277TIP3   OH230771   3.229   6.389   0.322
10277TIP3    H130772   3.272   6.460   0.274
10277TIP3    H230773   3.296   6.358   0.383
10278TIP3   OH230774   1.165   5.579  -0.002
10278TIP3    H130775   1.194   5.651   0.054
10278TIP3    H230776   1.088   5.612  -0.047
10279TIP3   OH230777   4.752   7.441   1.723
10279TIP3    H130778   4.822   7.481   1.774
10279TIP3    H230779   4.754   7.348   1.748
10280TIP3   OH230780   5.841   5.599   1.124
10280TIP3    H130781   5.815   5.691   1.130
10280TIP3    H230782   5.935   5.599   1.138
10281TIP3   OH230783   1.172   2.080   6.045
10281TIP3    H130784   1.170   1.985   6.039
10281TIP3    H230785   1.117   2.101   6.120
10282TIP3   OH230786   8.290   7.276   0.675
10282TIP3    H130787   8.248   7.263   0.590
10282TIP3    H230788   8.348   7.350   0.663
10283TIP3   OH230789   3.931   3.975   2.344
10283TIP3    H130790   3.893   3.887   2.350
10283TIP3    H230791   3.970   3.990   2.430
10284TIP3   OH230792   6.805   7.391   1.656
10284TIP3    H130793   6.769   7.462   1.710
10284TIP3    H230794   6.748   7.317   1.673
10285TIP3   OH230795   3.257   7.134   3.150
10285TIP3    H130796   3.210   7.194   3.092
10285TIP3    H230797   3.218   7.048   3.131
10286TIP3   OH230798   7.457   5.689   6.670
10286TIP3    H130799   7.485   5.605   6.636
10286TIP3    H230800   7.450   5.676   6.765
10287TIP3   OH230801   0.792   5.042   4.776
10287TIP3    H130802   0.875   5.072   4.740
10287TIP3    H230803   0.757   5.119   4.822
10288TIP3   OH230804   3.087   3.317   5.723
10288TIP3    H130805   3.070   3.280   5.810
10288TIP3    H230806   3.126   3.403   5.741
10289TIP3   OH230807   7.700   2.280   2.434
10289TIP3    H130808   7.691   2.228   2.355
10289TIP3    H230809   7.735   2.218   2.499
10290TIP3   OH230810   4.491   2.321   1.327
10290TIP3    H130811   4.499   2.256   1.257
10290TIP3    H230812   4.398   2.321   1.349
10291TIP3   OH230813   1.116   1.510   0.295
10291TIP3    H130814   1.196   1.471   0.331
10291TIP3    H230815   1.094   1.580   0.357
10292TIP3   OH230816   5.748   7.309   3.564
10292TIP3    H130817   5.663   7.301   3.606
10292TIP3    H230818   5.740   7.385   3.507
10293TIP3   OH230819   5.860   2.757   3.702
10293TIP3    H130820   5.891   2.845   3.722
10293TIP3    H230821   5.859   2.753   3.606
10294TIP3   OH230822   3.727   3.440   2.045
10294TIP3    H130823   3.670   3.411   1.974
10294TIP3    H230824   3.723   3.536   2.041
10295TIP3   OH230825   7.071   3.045   2.178
10295TIP3    H130826   6.995   3.090   2.141
10295TIP3    H230827   7.138   3.114   2.185
10296TIP3   OH230828   4.537   2.364   6.686
10296TIP3    H130829   4.551   2.281   6.640
10296TIP3    H230830   4.624   2.405   6.688
10297TIP3   OH230831   6.094   3.532   4.039
10297TIP3    H130832   6.155   3.605   4.054
10297TIP3    H230833   6.122   3.494   3.956
10298TIP3   OH230834   4.262   2.337   1.042
10298TIP3    H130835   4.303   2.423   1.054
10298TIP3    H230836   4.169   2.353   1.056
10299TIP3   OH230837   2.271   7.027   4.402
10299TIP3    H130838   2.335   7.026   4.474
10299TIP3    H230839   2.208   7.095   4.427
10300TIP3   OH230840   1.975   7.433   2.605
10300TIP3    H130841   1.958   7.350   2.562
10300TIP3    H230842   1.890   7.476   2.610
10301TIP3   OH230843   6.046   7.812   2.982
10301TIP3    H130844   6.023   7.753   3.054
10301TIP3    H230845   6.074   7.893   3.025
10302TIP3   OH230846   5.048   2.321   2.805
10302TIP3    H130847   5.139   2.331   2.831
10302TIP3    H230848   5.049   2.249   2.743
10303TIP3   OH230849   1.363   0.529   3.204
10303TIP3    H130850   1.345   0.469   3.277
10303TIP3    H230851   1.327   0.613   3.233
10304TIP3   OH230852   3.255   4.068   3.873
10304TIP3    H130853   3.216   4.146   3.834
10304TIP3    H230854   3.288   4.097   3.957
10305TIP3   OH230855   7.556   3.038   1.228
10305TIP3    H130856   7.461   3.043   1.216
10305TIP3    H230857   7.573   3.084   1.311
10306TIP3   OH230858   2.354   5.493   1.421
10306TIP3    H130859   2.393   5.448   1.497
10306TIP3    H230860   2.412   5.568   1.405
10307TIP3   OH230861   5.320   0.323   3.146
10307TIP3    H130862   5.262   0.248   3.142
10307TIP3    H230863   5.270   0.395   3.107
10308TIP3   OH230864   1.957   2.859   4.153
10308TIP3    H130865   1.883   2.861   4.092
10308TIP3    H230866   2.034   2.847   4.098
10309TIP3   OH230867   7.289   5.909   0.868
10309TIP3    H130868   7.237   5.834   0.897
10309TIP3    H230869   7.373   5.897   0.913
10310TIP3   OH230870   0.053   4.728   1.602
10310TIP3    H130871  -0.017   4.794   1.603
10310TIP3    H230872   0.123   4.768   1.551
10311TIP3   OH230873   7.616   6.087   5.820
10311TIP3    H130874   7.572   6.047   5.895
10311TIP3    H230875   7.644   6.173   5.851
10312TIP3   OH230876   6.193   5.055   1.554
10312TIP3    H130877   6.171   5.081   1.465
10312TIP3    H230878   6.109   5.029   1.593
10313TIP3   OH230879   1.356   5.965   4.179
10313TIP3    H130880   1.397   6.048   4.202
10313TIP3    H230881   1.361   5.961   4.083
10314TIP3   OH230882   6.027   1.484   4.200
10314TIP3    H130883   6.003   1.575   4.218
10314TIP3    H230884   5.956   1.432   4.238
10315TIP3   OH230885   7.700   1.358   3.108
10315TIP3    H130886   7.652   1.353   3.191
10315TIP3    H230887   7.637   1.328   3.042
10316TIP3   OH230888   2.269   1.066   6.349
10316TIP3    H130889   2.178   1.040   6.334
10316TIP3    H230890   2.274   1.156   6.315
10317TIP3   OH230891   4.787   4.246   3.816
10317TIP3    H130892   4.753   4.178   3.874
10317TIP3    H230893   4.866   4.278   3.860
10318TIP3   OH230894   7.871   1.853   2.024
10318TIP3    H130895   7.952   1.883   2.064
10318TIP3    H230896   7.899   1.792   1.955
10319TIP3   OH230897   6.636   3.701   3.004
10319TIP3    H130898   6.696   3.729   3.073
10319TIP3    H230899   6.668   3.615   2.976
10320TIP3   OH230900   2.473   1.502   5.178
10320TIP3    H130901   2.510   1.466   5.097
10320TIP3    H230902   2.382   1.472   5.178
10321TIP3   OH230903   4.510   4.229   5.263
10321TIP3    H130904   4.450   4.157   5.240
10321TIP3    H230905   4.575   4.229   5.194
10322TIP3   OH230906   7.072   5.802   5.608
10322TIP3    H130907   7.037   5.887   5.581
10322TIP3    H230908   7.125   5.773   5.535
10323TIP3   OH230909   6.721   2.931   5.866
10323TIP3    H130910   6.734   2.941   5.771
10323TIP3    H230911   6.800   2.968   5.905
10324TIP3   OH230912   3.518   5.683   5.762
10324TIP3    H130913   3.569   5.740   5.819
10324TIP3    H230914   3.427   5.702   5.783
10325TIP3   OH230915   1.745   2.424   6.780
10325TIP3    H130916   1.751   2.329   6.790
10325TIP3    H230917   1.835   2.453   6.766
10326TIP3   OH230918   8.181   1.201   4.845
10326TIP3    H130919   8.138   1.240   4.769
10326TIP3    H230920   8.119   1.213   4.916
10327TIP3   OH230921   1.860   5.787   2.920
10327TIP3    H130922   1.877   5.827   3.005
10327TIP3    H230923   1.855   5.693   2.939
10328TIP3   OH230924   0.135   5.712   1.160
10328TIP3    H130925   0.164   5.774   1.227
10328TIP3    H230926   0.200   5.722   1.089
10329TIP3   OH230927   5.914   4.058   1.693
10329TIP3    H130928   5.989   4.036   1.750
10329TIP3    H230929   5.937   4.142   1.655
10330TIP3   OH230930   0.201   1.967   3.688
10330TIP3    H130931   0.134   2.029   3.661
10330TIP3    H230932   0.202   1.900   3.619
10331TIP3   OH230933   5.130   3.369   6.216
10331TIP3    H130934   5.202   3.329   6.166
10331TIP3    H230935   5.075   3.295   6.241
10332TIP3   OH230936   5.902   0.911   0.824
10332TIP3    H130937   5.869   0.854   0.893
10332TIP3    H230938   5.960   0.973   0.869
10333TIP3   OH230939   0.779   4.484   1.542
10333TIP3    H130940   0.785   4.513   1.451
10333TIP3    H230941   0.739   4.397   1.537
10334TIP3   OH230942   0.595   2.920   2.413
10334TIP3    H130943   0.655   2.980   2.457
10334TIP3    H230944   0.509   2.962   2.422
10335TIP3   OH230945   7.122   2.458   6.651
10335TIP3    H130946   7.150   2.462   6.560
10335TIP3    H230947   7.042   2.510   6.653
10336TIP3   OH230948   5.793   5.152   5.365
10336TIP3    H130949   5.797   5.073   5.311
10336TIP3    H230950   5.867   5.145   5.425
10337TIP3   OH230951   3.890   6.661   3.385
10337TIP3    H130952   3.924   6.660   3.296
10337TIP3    H230953   3.812   6.717   3.380
10338TIP3   OH230954   1.564   7.099   3.610
10338TIP3    H130955   1.638   7.157   3.590
10338TIP3    H230956   1.604   7.021   3.647
10339TIP3   OH230957   7.268   4.172   4.240
10339TIP3    H130958   7.316   4.238   4.191
10339TIP3    H230959   7.203   4.139   4.178
10340TIP3   OH230960   0.748   5.664   4.358
10340TIP3    H130961   0.704   5.593   4.312
10340TIP3    H230962   0.730   5.647   4.451
10341TIP3   OH230963   0.590   0.360   5.911
10341TIP3    H130964   0.672   0.373   5.960
10341TIP3    H230965   0.586   0.265   5.896
10342TIP3   OH230966   4.199   3.036   3.929
10342TIP3    H130967   4.249   2.956   3.914
10342TIP3    H230968   4.110   3.014   3.901
10343TIP3   OH230969   3.811   5.052   3.725
10343TIP3    H130970   3.899   5.014   3.733
10343TIP3    H230971   3.754   4.988   3.766
10344TIP3   OH230972   1.671   5.775   2.361
10344TIP3    H130973   1.754   5.741   2.326
10344TIP3    H230974   1.649   5.715   2.432
10345TIP3   OH230975   7.065   0.733   3.154
10345TIP3    H130976   7.151   0.774   3.163
10345TIP3    H230977   7.012   0.798   3.108
10346TIP3   OH230978   5.369   7.597   3.824
10346TIP3    H130979   5.283   7.633   3.848
10346TIP3    H230980   5.432   7.664   3.851
10347TIP3   OH230981   6.743   2.890   1.011
10347TIP3    H130982   6.741   2.838   0.930
10347TIP3    H230983   6.827   2.936   1.007
10348TIP3   OH230984   1.302   1.005   2.354
10348TIP3    H130985   1.223   0.973   2.310
10348TIP3    H230986   1.318   0.941   2.424
10349TIP3   OH230987   5.725   2.392   1.444
10349TIP3    H130988   5.791   2.402   1.375
10349TIP3    H230989   5.758   2.320   1.498
10350TIP3   OH230990   0.436   7.413   4.978
10350TIP3    H130991   0.501   7.401   5.047
10350TIP3    H230992   0.387   7.331   4.976
10351TIP3   OH230993   8.141   6.756   2.354
10351TIP3    H130994   8.070   6.806   2.313
10351TIP3    H230995   8.179   6.816   2.418
10352TIP3   OH230996   7.308   7.165   6.611
10352TIP3    H130997   7.341   7.190   6.697
10352TIP3    H230998   7.362   7.214   6.549
10353TIP3   OH230999   4.149   7.667   3.706
10353TIP3    H131000   4.190   7.591   3.663
10353TIP3    H231001   4.062   7.636   3.731
10354TIP3   OH231002   2.766   3.612   4.959
10354TIP3    H131003   2.785   3.582   5.048
10354TIP3    H231004   2.827   3.685   4.945
10355TIP3   OH231005   3.100   0.960   2.101
10355TIP3    H131006   3.148   1.019   2.159
10355TIP3    H231007   3.163   0.892   2.078
10356TIP3   OH231008   1.220   2.522   0.060
10356TIP3    H131009   1.316   2.517   0.066
10356TIP3    H231010   1.192   2.544   0.149
10357TIP3   OH231011   2.529   7.010   1.279
10357TIP3    H131012   2.571   6.958   1.211
10357TIP3    H231013   2.446   6.965   1.297
10358TIP3   OH231014   6.538   6.061   0.959
10358TIP3    H131015   6.553   5.968   0.941
10358TIP3    H231016   6.523   6.100   0.873
10359TIP3   OH231017   1.918   4.492   6.175
10359TIP3    H131018   1.926   4.582   6.144
10359TIP3    H231019   1.861   4.449   6.111
10360TIP3   OH231020   2.701   6.992   4.600
10360TIP3    H131021   2.747   7.055   4.544
10360TIP3    H231022   2.757   6.914   4.598
10361TIP3   OH231023   6.167   5.781   1.997
10361TIP3    H131024   6.094   5.775   2.059
10361TIP3    H231025   6.236   5.828   2.044
10362TIP3   OH231026   6.475   7.610   5.572
10362TIP3    H131027   6.481   7.534   5.629
10362TIP3    H231028   6.526   7.586   5.494
10363TIP3   OH231029   5.557   0.201   5.325
10363TIP3    H131030   5.489   0.184   5.390
10363TIP3    H231031   5.540   0.291   5.296
10364TIP3   OH231032   6.485   7.912   6.684
10364TIP3    H131033   6.473   7.889   6.592
10364TIP3    H231034   6.428   7.850   6.731
10365TIP3   OH231035   5.855   2.824   1.209
10365TIP3    H131036   5.845   2.825   1.304
10365TIP3    H231037   5.771   2.856   1.176
10366TIP3   OH231038   7.862   2.642   0.372
10366TIP3    H131039   7.917   2.650   0.295
10366TIP3    H231040   7.848   2.547   0.382
10367TIP3   OH231041   6.488   5.350   6.150
10367TIP3    H131042   6.418   5.393   6.199
10367TIP3    H231043   6.566   5.361   6.204
10368TIP3   OH231044   7.769   1.540   0.713
10368TIP3    H131045   7.726   1.525   0.628
10368TIP3    H231046   7.730   1.622   0.745
10369TIP3   OH231047   7.754   6.785   1.876
10369TIP3    H131048   7.737   6.695   1.905
10369TIP3    H231049   7.740   6.838   1.955
10370TIP3   OH231050   1.749   6.184   5.627
10370TIP3    H131051   1.831   6.150   5.591
10370TIP3    H231052   1.681   6.131   5.585
10371TIP3   OH231053   8.174   5.685   4.460
10371TIP3    H131054   8.156   5.748   4.390
10371TIP3    H231055   8.122   5.608   4.438
10372TIP3   OH231056   6.355   4.712   6.747
10372TIP3    H131057   6.276   4.659   6.759
10372TIP3    H231058   6.393   4.717   6.834
10373TIP3   OH231059   0.594   5.131   5.919
10373TIP3    H131060   0.562   5.199   5.978
10373TIP3    H231061   0.602   5.053   5.974
10374TIP3   OH231062   0.396   3.488   2.743
10374TIP3    H131063   0.378   3.539   2.664
10374TIP3    H231064   0.411   3.554   2.811
10375TIP3   OH231065   8.133   3.159   2.290
10375TIP3    H131066   8.075   3.153   2.214
10375TIP3    H231067   8.165   3.249   2.289
10376TIP3   OH231068   4.543   3.312   3.416
10376TIP3    H131069   4.568   3.387   3.470
10376TIP3    H231070   4.548   3.344   3.326
10377TIP3   OH231071   5.082   4.897   6.017
10377TIP3    H131072   5.155   4.838   6.036
10377TIP3    H231073   5.048   4.867   5.933
10378TIP3   OH231074   7.270   6.796   0.956
10378TIP3    H131075   7.243   6.780   0.866
10378TIP3    H231076   7.242   6.885   0.975
10379TIP3   OH231077   1.816   5.402   4.321
10379TIP3    H131078   1.796   5.489   4.355
10379TIP3    H231079   1.737   5.376   4.274
10380TIP3   OH231080   7.534   7.407   4.607
10380TIP3    H131081   7.504   7.366   4.689
10380TIP3    H231082   7.491   7.492   4.606
10381TIP3   OH231083   7.152   4.575   0.483
10381TIP3    H131084   7.147   4.519   0.405
10381TIP3    H231085   7.213   4.530   0.541
10382TIP3   OH231086   0.308   1.459   5.741
10382TIP3    H131087   0.367   1.514   5.793
10382TIP3    H231088   0.274   1.517   5.673
10383TIP3   OH231089   5.778   6.486   2.189
10383TIP3    H131090   5.737   6.503   2.105
10383TIP3    H231091   5.830   6.564   2.207
10384TIP3   OH231092   3.887   4.596   0.135
10384TIP3    H131093   3.937   4.632   0.208
10384TIP3    H231094   3.796   4.608   0.159
10385TIP3   OH231095   4.560   2.073   0.201
10385TIP3    H131096   4.619   2.083   0.276
10385TIP3    H231097   4.508   2.154   0.200
10386TIP3   OH231098   1.506   1.270   2.089
10386TIP3    H131099   1.537   1.360   2.077
10386TIP3    H231100   1.586   1.218   2.089
10387TIP3   OH231101   8.392   3.009   1.370
10387TIP3    H131102   8.328   3.060   1.419
10387TIP3    H231103   8.340   2.948   1.317
10388TIP3   OH231104   5.562   3.552   3.469
10388TIP3    H131105   5.585   3.534   3.560
10388TIP3    H231106   5.554   3.647   3.464
10389TIP3   OH231107   6.743   6.690   2.179
10389TIP3    H131108   6.686   6.621   2.211
10389TIP3    H231109   6.685   6.763   2.159
10390TIP3   OH231110   0.620   6.819   6.658
10390TIP3    H131111   0.705   6.848   6.690
10390TIP3    H231112   0.595   6.747   6.716
10391TIP3   OH231113   4.792   3.697   5.607
10391TIP3    H131114   4.732   3.640   5.558
10391TIP3    H231115   4.854   3.637   5.648
10392TIP3   OH231116   6.708   2.023   6.813
10392TIP3    H131117   6.702   2.038   6.908
10392TIP3    H231118   6.794   1.984   6.800
10393TIP3   OH231119   0.178   3.988   2.775
10393TIP3    H131120   0.111   4.006   2.708
10393TIP3    H231121   0.253   3.955   2.725
10394TIP3   OH231122   0.981   2.167   1.065
10394TIP3    H131123   0.954   2.198   0.979
10394TIP3    H231124   0.969   2.243   1.123
10395TIP3   OH231125   7.601   6.340   3.046
10395TIP3    H131126   7.581   6.433   3.041
10395TIP3    H231127   7.642   6.328   3.131
10396TIP3   OH231128   1.875   1.728   5.160
10396TIP3    H131129   1.870   1.758   5.251
10396TIP3    H231130   1.814   1.784   5.113
10397TIP3   OH231131   7.108   7.501   4.645
10397TIP3    H131132   7.149   7.580   4.610
10397TIP3    H231133   7.078   7.453   4.567
10398TIP3   OH231134   0.186   4.600   3.418
10398TIP3    H131135   0.141   4.517   3.405
10398TIP3    H231136   0.273   4.586   3.380
10399TIP3   OH231137   7.341   2.356   5.989
10399TIP3    H131138   7.339   2.380   5.896
10399TIP3    H231139   7.432   2.329   6.004
10400TIP3   OH231140   0.282   4.290   3.396
10400TIP3    H131141   0.196   4.329   3.411
10400TIP3    H231142   0.342   4.345   3.447
10401TIP3   OH231143   4.440   1.445   2.116
10401TIP3    H131144   4.354   1.477   2.088
10401TIP3    H231145   4.434   1.350   2.107
10402TIP3   OH231146   6.592   1.433   1.725
10402TIP3    H131147   6.648   1.443   1.802
10402TIP3    H231148   6.503   1.426   1.760
10403TIP3   OH231149   8.273   2.211   2.811
10403TIP3    H131150   8.268   2.260   2.893
10403TIP3    H231151   8.227   2.129   2.829
10404TIP3   OH231152   3.669   6.525   6.060
10404TIP3    H131153   3.651   6.432   6.077
10404TIP3    H231154   3.728   6.525   5.985
10405TIP3   OH231155   0.274   7.275   0.884
10405TIP3    H131156   0.240   7.363   0.899
10405TIP3    H231157   0.244   7.252   0.796
10406TIP3   OH231158   1.618   7.736   2.208
10406TIP3    H131159   1.684   7.667   2.197
10406TIP3    H231160   1.563   7.728   2.130
10407TIP3   OH231161   2.858   1.634   2.853
10407TIP3    H131162   2.826   1.663   2.767
10407TIP3    H231163   2.792   1.664   2.915
10408TIP3   OH231164   6.307   2.952   1.754
10408TIP3    H131165   6.229   3.003   1.734
10408TIP3    H231166   6.297   2.871   1.704
10409TIP3   OH231167   6.603   4.918   0.760
10409TIP3    H131168   6.562   4.837   0.789
10409TIP3    H231169   6.537   4.986   0.774
10410TIP3   OH231170   5.414   5.036   1.123
10410TIP3    H131171   5.481   5.086   1.076
10410TIP3    H231172   5.462   4.993   1.194
10411TIP3   OH231173   0.624   0.925   5.726
10411TIP3    H131174   0.534   0.951   5.707
10411TIP3    H231175   0.640   0.849   5.671
10412TIP3   OH231176   5.498   5.689   5.441
10412TIP3    H131177   5.488   5.633   5.364
10412TIP3    H231178   5.525   5.630   5.511
10413TIP3   OH231179   8.405   0.875   1.502
10413TIP3    H131180   8.480   0.917   1.460
10413TIP3    H231181   8.329   0.914   1.460
10414TIP3   OH231182   3.861   2.972   0.549
10414TIP3    H131183   3.773   3.010   0.556
10414TIP3    H231184   3.919   3.048   0.539
10415TIP3   OH231185   6.678   1.595   6.519
10415TIP3    H131186   6.610   1.529   6.505
10415TIP3    H231187   6.634   1.664   6.569
10416TIP3   OH231188   0.732   3.983   2.565
10416TIP3    H131189   0.646   4.002   2.530
10416TIP3    H231190   0.718   3.910   2.625
10417TIP3   OH231191   8.275   6.860   2.134
10417TIP3    H131192   8.232   6.774   2.138
10417TIP3    H231193   8.277   6.890   2.225
10418TIP3   OH231194   3.892   1.490   0.100
10418TIP3    H131195   3.844   1.420   0.143
10418TIP3    H231196   3.830   1.525   0.036
10419TIP3   OH231197   6.930   5.352   3.235
10419TIP3    H131198   6.860   5.373   3.173
10419TIP3    H231199   6.887   5.300   3.303
10420TIP3   OH231200   2.347   0.141   4.902
10420TIP3    H131201   2.385   0.123   4.989
10420TIP3    H231202   2.390   0.221   4.873
10421TIP3   OH231203   1.067   4.145   2.320
10421TIP3    H131204   1.099   4.157   2.410
10421TIP3    H231205   0.984   4.192   2.318
10422TIP3   OH231206   3.128   7.539   4.535
10422TIP3    H131207   3.194   7.476   4.508
10422TIP3    H231208   3.168   7.587   4.608
10423TIP3   OH231209   7.294   1.109   5.061
10423TIP3    H131210   7.346   1.049   5.008
10423TIP3    H231211   7.268   1.178   5.001
10424TIP3   OH231212   6.962   6.765   2.674
10424TIP3    H131213   6.943   6.853   2.707
10424TIP3    H231214   6.933   6.768   2.583
10425TIP3   OH231215   3.271   2.582   3.874
10425TIP3    H131216   3.238   2.492   3.878
10425TIP3    H231217   3.217   2.630   3.936
10426TIP3   OH231218   5.143   5.901   3.786
10426TIP3    H131219   5.166   5.991   3.763
10426TIP3    H231220   5.049   5.894   3.765
10427TIP3   OH231221   7.950   7.806   0.403
10427TIP3    H131222   7.935   7.722   0.359
10427TIP3    H231223   7.893   7.868   0.357
10428TIP3   OH231224   7.093   0.476   1.405
10428TIP3    H131225   7.041   0.465   1.484
10428TIP3    H231226   7.127   0.388   1.386
10429TIP3   OH231227   0.723   4.561   0.295
10429TIP3    H131228   0.818   4.550   0.295
10429TIP3    H231229   0.704   4.609   0.215
10430TIP3   OH231230   0.153   5.065   6.694
10430TIP3    H131231   0.224   5.013   6.731
10430TIP3    H231232   0.121   5.117   6.767
10431TIP3   OH231233   4.538   0.086   4.737
10431TIP3    H131234   4.527   0.047   4.651
10431TIP3    H231235   4.585   0.168   4.720
10432TIP3   OH231236   7.493   2.014   0.226
10432TIP3    H131237   7.446   1.946   0.178
10432TIP3    H231238   7.423   2.071   0.259
10433TIP3   OH231239   3.646   3.724   5.868
10433TIP3    H131240   3.555   3.751   5.872
10433TIP3    H231241   3.665   3.690   5.956
10434TIP3   OH231242   1.194   7.870   4.071
10434TIP3    H131243   1.191   7.875   3.975
10434TIP3    H231244   1.196   7.962   4.099
10435TIP3   OH231245   1.573   1.779   4.966
10435TIP3    H131246   1.601   1.869   4.950
10435TIP3    H231247   1.484   1.788   5.000
10436TIP3   OH231248   7.568   0.909   5.114
10436TIP3    H131249   7.523   0.835   5.156
10436TIP3    H231250   7.561   0.980   5.178
10437TIP3   OH231251   6.557   6.497   2.236
10437TIP3    H131252   6.463   6.508   2.224
10437TIP3    H231253   6.566   6.448   2.317
10438TIP3   OH231254   3.061   3.179   5.491
10438TIP3    H131255   3.037   3.089   5.513
10438TIP3    H231256   3.052   3.227   5.573
10439TIP3   OH231257   5.394   0.986   5.891
10439TIP3    H131258   5.348   0.991   5.808
10439TIP3    H231259   5.372   1.067   5.937
10440TIP3   OH231260   6.022   1.330   5.567
10440TIP3    H131261   5.974   1.247   5.573
10440TIP3    H231262   6.103   1.314   5.614
10441TIP3   OH231263   4.501   7.391   3.665
10441TIP3    H131264   4.519   7.481   3.694
10441TIP3    H231265   4.428   7.363   3.719
10442TIP3   OH231266   5.520   7.212   6.182
10442TIP3    H131267   5.530   7.119   6.202
10442TIP3    H231268   5.425   7.225   6.175
10443TIP3   OH231269   7.411   0.159   0.954
10443TIP3    H131270   7.458   0.241   0.965
10443TIP3    H231271   7.372   0.165   0.867
10444TIP3   OH231272   0.250   2.693   6.079
10444TIP3    H131273   0.211   2.606   6.088
10444TIP3    H231274   0.185   2.753   6.116
10445TIP3   OH231275   7.640   3.600   6.373
10445TIP3    H131276   7.567   3.628   6.427
10445TIP3    H231277   7.713   3.592   6.434
10446TIP3   OH231278   3.410   0.810   4.344
10446TIP3    H131279   3.486   0.765   4.308
10446TIP3    H231280   3.391   0.764   4.426
10447TIP3   OH231281   1.030   3.849   6.560
10447TIP3    H131282   1.016   3.809   6.474
10447TIP3    H231283   0.964   3.809   6.616
10448TIP3   OH231284   1.288   3.591   4.767
10448TIP3    H131285   1.303   3.683   4.789
10448TIP3    H231286   1.347   3.543   4.825
10449TIP3   OH231287   2.930   2.938   2.793
10449TIP3    H131288   2.858   2.958   2.734
10449TIP3    H231289   2.971   2.860   2.756
10450TIP3   OH231290   4.630   4.644   0.300
10450TIP3    H131291   4.644   4.614   0.390
10450TIP3    H231292   4.604   4.565   0.253
10451TIP3   OH231293   3.126   2.723   4.058
10451TIP3    H131294   3.115   2.729   4.153
10451TIP3    H231295   3.054   2.775   4.022
10452TIP3   OH231296   1.613   7.086   3.128
10452TIP3    H131297   1.599   6.997   3.094
10452TIP3    H231298   1.660   7.072   3.210
10453TIP3   OH231299   5.224   7.411   5.155
10453TIP3    H131300   5.156   7.353   5.121
10453TIP3    H231301   5.181   7.496   5.162
10454TIP3   OH231302   1.218   3.183   4.519
10454TIP3    H131303   1.304   3.145   4.537
10454TIP3    H231304   1.166   3.163   4.597
10455TIP3   OH231305   4.176   3.242   0.897
10455TIP3    H131306   4.209   3.304   0.963
10455TIP3    H231307   4.216   3.159   0.920
10456TIP3   OH231308   0.496   5.031   4.158
10456TIP3    H131309   0.411   5.019   4.201
10456TIP3    H231310   0.482   5.002   4.068
10457TIP3   OH231311   1.705   5.846   3.718
10457TIP3    H131312   1.693   5.931   3.760
10457TIP3    H231313   1.659   5.854   3.635
10458TIP3   OH231314   2.769   1.146   5.626
10458TIP3    H131315   2.744   1.135   5.717
10458TIP3    H231316   2.864   1.161   5.628
10459TIP3   OH231317   3.846   4.124   3.589
10459TIP3    H131318   3.909   4.071   3.638
10459TIP3    H231319   3.855   4.212   3.627
10460TIP3   OH231320   5.939   1.867   6.646
10460TIP3    H131321   5.922   1.909   6.730
10460TIP3    H231322   5.969   1.939   6.590
10461TIP3   OH231323   7.266   3.735   1.066
10461TIP3    H131324   7.175   3.763   1.053
10461TIP3    H231325   7.318   3.797   1.015
10462TIP3   OH231326   5.075   0.568   5.024
10462TIP3    H131327   5.056   0.608   4.939
10462TIP3    H231328   4.997   0.518   5.046
10463TIP3   OH231329   6.304   0.087   3.373
10463TIP3    H131330   6.325   0.001   3.407
10463TIP3    H231331   6.383   0.116   3.328
10464TIP3   OH231332   7.710   2.783   2.265
10464TIP3    H131333   7.688   2.851   2.201
10464TIP3    H231334   7.799   2.757   2.242
10465TIP3   OH231335   5.662   2.183   2.011
10465TIP3    H131336   5.592   2.236   2.049
10465TIP3    H231337   5.665   2.105   2.066
10466TIP3   OH231338   6.983   7.736   0.970
10466TIP3    H131339   6.912   7.679   0.999
10466TIP3    H231340   6.944   7.824   0.969
10467TIP3   OH231341   6.686   0.562   4.489
10467TIP3    H131342   6.631   0.498   4.534
10467TIP3    H231343   6.625   0.621   4.446
10468TIP3   OH231344   6.386   6.561   0.388
10468TIP3    H131345   6.294   6.556   0.415
10468TIP3    H231346   6.406   6.473   0.358
10469TIP3   OH231347   7.505   4.073   0.514
10469TIP3    H131348   7.594   4.106   0.524
10469TIP3    H231349   7.513   3.978   0.529
10470TIP3   OH231350   6.658   6.640   4.668
10470TIP3    H131351   6.574   6.609   4.701
10470TIP3    H231352   6.653   6.626   4.574
10471TIP3   OH231353   7.335   1.671   4.802
10471TIP3    H131354   7.259   1.700   4.851
10471TIP3    H231355   7.321   1.704   4.713
10472TIP3   OH231356   7.642   4.135   2.397
10472TIP3    H131357   7.623   4.224   2.367
10472TIP3    H231358   7.737   4.132   2.404
10473TIP3   OH231359   0.337   2.357   4.422
10473TIP3    H131360   0.304   2.306   4.348
10473TIP3    H231361   0.278   2.335   4.494
10474TIP3   OH231362   2.396   1.678   6.738
10474TIP3    H131363   2.404   1.774   6.744
10474TIP3    H231364   2.311   1.663   6.698
10475TIP3   OH231365   6.454   6.651   1.453
10475TIP3    H131366   6.478   6.575   1.506
10475TIP3    H231367   6.520   6.655   1.384
10476TIP3   OH231368   2.415   4.397   1.570
10476TIP3    H131369   2.398   4.316   1.619
10476TIP3    H231370   2.335   4.449   1.579
10477TIP3   OH231371   7.228   3.133   3.146
10477TIP3    H131372   7.149   3.147   3.199
10477TIP3    H231373   7.211   3.053   3.097
10478TIP3   OH231374   6.469   2.057   2.888
10478TIP3    H131375   6.493   1.981   2.941
10478TIP3    H231376   6.407   2.105   2.942
10479TIP3   OH231377   2.889   5.145   1.799
10479TIP3    H131378   2.808   5.104   1.827
10479TIP3    H231379   2.916   5.199   1.873
10480TIP3   OH231380   4.622   5.795   5.525
10480TIP3    H131381   4.682   5.724   5.544
10480TIP3    H231382   4.568   5.763   5.453
10481TIP3   OH231383   4.977  -0.014   0.369
10481TIP3    H131384   4.940  -0.006   0.281
10481TIP3    H231385   5.069   0.012   0.358
10482TIP3   OH231386   5.054   4.170   4.804
10482TIP3    H131387   5.080   4.199   4.716
10482TIP3    H231388   5.136   4.145   4.846
10483TIP3   OH231389   5.244   3.709   0.190
10483TIP3    H131390   5.172   3.650   0.210
10483TIP3    H231391   5.319   3.651   0.176
10484TIP3   OH231392   8.206   4.236   3.550
10484TIP3    H131393   8.267   4.243   3.623
10484TIP3    H231394   8.205   4.142   3.529
10485TIP3   OH231395   0.671   6.422   6.329
10485TIP3    H131396   0.719   6.396   6.408
10485TIP3    H231397   0.590   6.371   6.332
10486TIP3   OH231398   6.907   6.786   2.399
10486TIP3    H131399   6.868   6.763   2.315
10486TIP3    H231400   6.860   6.864   2.428
10487TIP3   OH231401   3.262   4.974   1.268
10487TIP3    H131402   3.323   4.907   1.300
10487TIP3    H231403   3.205   4.928   1.207
10488TIP3   OH231404   2.979   5.652   0.756
10488TIP3    H131405   3.027   5.657   0.839
10488TIP3    H231406   2.910   5.718   0.764
10489TIP3   OH231407   3.697   5.851   5.438
10489TIP3    H131408   3.670   5.762   5.460
10489TIP3    H231409   3.698   5.853   5.342
10490TIP3   OH231410   6.827   4.852   3.365
10490TIP3    H131411   6.828   4.946   3.386
10490TIP3    H231412   6.902   4.817   3.412
10491TIP3   OH231413   4.980   7.843   1.711
10491TIP3    H131414   5.074   7.848   1.695
10491TIP3    H231415   4.971   7.780   1.783
10492TIP3   OH231416   4.780   7.615   5.191
10492TIP3    H131417   4.827   7.531   5.193
10492TIP3    H231418   4.848   7.681   5.186
10493TIP3   OH231419   5.335   2.895   6.287
10493TIP3    H131420   5.266   2.910   6.351
10493TIP3    H231421   5.380   2.816   6.319
10494TIP3   OH231422   1.265   2.416   6.585
10494TIP3    H131423   1.180   2.436   6.546
10494TIP3    H231424   1.323   2.401   6.510
10495TIP3   OH231425   3.683   3.329   5.574
10495TIP3    H131426   3.702   3.410   5.622
10495TIP3    H231427   3.748   3.267   5.606
10496TIP3   OH231428   5.576   3.244   2.003
10496TIP3    H131429   5.621   3.329   1.997
10496TIP3    H231430   5.511   3.257   2.072
10497TIP3   OH231431   2.648   0.655   6.129
10497TIP3    H131432   2.573   0.676   6.074
10497TIP3    H231433   2.640   0.562   6.148
10498TIP3   OH231434   4.876   4.801   4.891
10498TIP3    H131435   4.886   4.705   4.890
10498TIP3    H231436   4.962   4.834   4.913
10499TIP3   OH231437   6.450   3.274   1.696
10499TIP3    H131438   6.460   3.359   1.740
10499TIP3    H231439   6.438   3.212   1.767
10500TIP3   OH231440   5.213   5.009   6.280
10500TIP3    H131441   5.195   4.923   6.319
10500TIP3    H231442   5.128   5.053   6.281
10501TIP3   OH231443   7.764   2.730   1.969
10501TIP3    H131444   7.776   2.734   1.874
10501TIP3    H231445   7.690   2.670   1.980
10502TIP3   OH231446   3.961   5.808   2.023
10502TIP3    H131447   3.900   5.738   2.000
10502TIP3    H231448   4.030   5.764   2.072
10503TIP3   OH231449   3.379   5.973   0.447
10503TIP3    H131450   3.340   5.936   0.526
10503TIP3    H231451   3.338   6.059   0.438
10504TIP3   OH231452   5.880   3.455   4.745
10504TIP3    H131453   5.866   3.505   4.665
10504TIP3    H231454   5.804   3.397   4.750
10505TIP3   OH231455   0.256   7.754   3.468
10505TIP3    H131456   0.344   7.774   3.438
10505TIP3    H231457   0.239   7.666   3.434
10506TIP3   OH231458   2.035   2.985   5.586
10506TIP3    H131459   2.017   3.043   5.660
10506TIP3    H231460   2.044   2.898   5.625
10507TIP3   OH231461   4.266   1.684   3.794
10507TIP3    H131462   4.236   1.775   3.794
10507TIP3    H231463   4.223   1.644   3.719
10508TIP3   OH231464   4.461   7.386   0.036
10508TIP3    H131465   4.449   7.301  -0.007
10508TIP3    H231466   4.484   7.446  -0.034
10509TIP3   OH231467   0.097   6.527   4.496
10509TIP3    H131468   0.018   6.473   4.492
10509TIP3    H231469   0.128   6.531   4.406
10510TIP3   OH231470   6.537   3.146   3.512
10510TIP3    H131471   6.521   3.083   3.583
10510TIP3    H231472   6.450   3.164   3.477
10511TIP3   OH231473   3.857   5.953   6.587
10511TIP3    H131474   3.840   5.882   6.648
10511TIP3    H231475   3.917   6.011   6.633
10512TIP3   OH231476   7.824   4.831   2.912
10512TIP3    H131477   7.834   4.830   2.816
10512TIP3    H231478   7.761   4.761   2.930
10513TIP3   OH231479   2.791   5.506   5.570
10513TIP3    H131480   2.833   5.421   5.565
10513TIP3    H231481   2.723   5.504   5.503
10514TIP3   OH231482   1.890   0.530   5.498
10514TIP3    H131483   1.795   0.542   5.495
10514TIP3    H231484   1.912   0.496   5.411
10515TIP3   OH231485   6.572   7.160   3.443
10515TIP3    H131486   6.477   7.156   3.428
10515TIP3    H231487   6.610   7.153   3.356
10516TIP3   OH231488   4.194   1.510   1.329
10516TIP3    H131489   4.284   1.541   1.333
10516TIP3    H231490   4.174   1.506   1.236
10517TIP3   OH231491   3.592   6.556   4.146
10517TIP3    H131492   3.634   6.587   4.065
10517TIP3    H231493   3.531   6.625   4.169
10518TIP3   OH231494   4.029   1.110   5.268
10518TIP3    H131495   3.989   1.138   5.350
10518TIP3    H231496   4.040   1.015   5.278
10519TIP3   OH231497   4.149   4.792   6.388
10519TIP3    H131498   4.169   4.711   6.434
10519TIP3    H231499   4.232   4.838   6.381
10520TIP3   OH231500   6.299   6.046   0.104
10520TIP3    H131501   6.270   6.074   0.017
10520TIP3    H231502   6.391   6.025   0.093
10521TIP3   OH231503   1.945   6.387   4.156
10521TIP3    H131504   1.949   6.319   4.089
10521TIP3    H231505   2.021   6.442   4.140
10522TIP3   OH231506   1.993   6.400   0.979
10522TIP3    H131507   1.983   6.350   0.898
10522TIP3    H231508   1.922   6.368   1.035
10523TIP3   OH231509   6.571   4.104   6.790
10523TIP3    H131510   6.513   4.053   6.734
10523TIP3    H231511   6.645   4.045   6.808
10524TIP3   OH231512   7.397   0.202   4.911
10524TIP3    H131513   7.349   0.242   4.838
10524TIP3    H231514   7.466   0.265   4.931
10525TIP3   OH231515   3.074   6.160   0.350
10525TIP3    H131516   3.039   6.162   0.261
10525TIP3    H231517   3.126   6.241   0.357
10526TIP3   OH231518   7.144   1.229   0.477
10526TIP3    H131519   7.154   1.151   0.532
10526TIP3    H231520   7.212   1.221   0.411
10527TIP3   OH231521   5.231   1.758   3.836
10527TIP3    H131522   5.252   1.842   3.795
10527TIP3    H231523   5.204   1.702   3.764
10528TIP3   OH231524   4.093   2.874   5.192
10528TIP3    H131525   4.014   2.918   5.222
10528TIP3    H231526   4.061   2.795   5.149
10529TIP3   OH231527   5.483   2.317   4.717
10529TIP3    H131528   5.565   2.268   4.711
10529TIP3    H231529   5.494   2.375   4.792
10530TIP3   OH231530   4.740   4.038   0.191
10530TIP3    H131531   4.826   4.062   0.225
10530TIP3    H231532   4.708   4.117   0.148
10531TIP3   OH231533   8.321   6.472   6.743
10531TIP3    H131534   8.244   6.421   6.768
10531TIP3    H231535   8.395   6.413   6.757
10532TIP3   OH231536   1.385   3.092   5.042
10532TIP3    H131537   1.451   3.153   5.009
10532TIP3    H231538   1.397   3.093   5.137
10533TIP3   OH231539   0.568   2.268   3.625
10533TIP3    H131540   0.592   2.343   3.679
10533TIP3    H231541   0.494   2.298   3.572
10534TIP3   OH231542   7.006   1.909   3.750
10534TIP3    H131543   6.976   1.845   3.685
10534TIP3    H231544   6.930   1.964   3.766
10535TIP3   OH231545   3.602   0.204   2.843
10535TIP3    H131546   3.643   0.134   2.792
10535TIP3    H231547   3.508   0.196   2.823
10536TIP3   OH231548   2.091   1.549   1.210
10536TIP3    H131549   2.069   1.635   1.172
10536TIP3    H231550   2.035   1.488   1.163
10537TIP3   OH231551   2.166   4.063   4.648
10537TIP3    H131552   2.189   4.144   4.603
10537TIP3    H231553   2.210   4.069   4.732
10538TIP3   OH231554   0.520   7.450   0.419
10538TIP3    H131555   0.453   7.381   0.421
10538TIP3    H231556   0.567   7.436   0.337
10539TIP3   OH231557   8.303   0.163   3.587
10539TIP3    H131558   8.230   0.204   3.540
10539TIP3    H231559   8.263   0.126   3.666
10540TIP3   OH231560   0.069   1.447   1.168
10540TIP3    H131561   0.152   1.487   1.142
10540TIP3    H231562   0.094   1.370   1.219
10541TIP3   OH231563   2.075   2.466   5.626
10541TIP3    H131564   2.001   2.438   5.573
10541TIP3    H231565   2.052   2.439   5.715
10542TIP3   OH231566   0.487   1.261   4.612
10542TIP3    H131567   0.576   1.293   4.629
10542TIP3    H231568   0.431   1.335   4.633
10543TIP3   OH231569   6.186   0.925   6.482
10543TIP3    H131570   6.232   0.897   6.561
10543TIP3    H231571   6.120   0.986   6.513
10544TIP3   OH231572   5.020   5.588   1.296
10544TIP3    H131573   5.085   5.518   1.291
10544TIP3    H231574   5.004   5.600   1.390
10545TIP3   OH231575   7.716   3.492   3.703
10545TIP3    H131576   7.754   3.507   3.617
10545TIP3    H231577   7.633   3.448   3.685
10546TIP3   OH231578   4.313   5.775   1.472
10546TIP3    H131579   4.400   5.803   1.444
10546TIP3    H231580   4.328   5.729   1.555
10547TIP3   OH231581   7.805   7.316   6.186
10547TIP3    H131582   7.822   7.297   6.278
10547TIP3    H231583   7.786   7.410   6.184
10548TIP3   OH231584   1.203   3.551   1.687
10548TIP3    H131585   1.264   3.618   1.716
10548TIP3    H231586   1.209   3.552   1.592
10549TIP3   OH231587   5.449   3.463   4.952
10549TIP3    H131588   5.481   3.382   4.913
10549TIP3    H231589   5.355   3.464   4.933
10550TIP3   OH231590   3.855   7.174   1.210
10550TIP3    H131591   3.857   7.089   1.165
10550TIP3    H231592   3.935   7.175   1.262
10551TIP3   OH231593   4.960   6.757   0.514
10551TIP3    H131594   5.045   6.767   0.469
10551TIP3    H231595   4.980   6.703   0.590
10552TIP3   OH231596   6.803   3.116   3.583
10552TIP3    H131597   6.709   3.132   3.576
10552TIP3    H231598   6.817   3.034   3.535
10553TIP3   OH231599   6.368   4.317   6.063
10553TIP3    H131600   6.314   4.392   6.087
10553TIP3    H231601   6.365   4.316   5.967
10554TIP3   OH231602   7.615   0.298   5.285
10554TIP3    H131603   7.598   0.204   5.276
10554TIP3    H231604   7.612   0.314   5.379
10555TIP3   OH231605   0.325   2.200   5.771
10555TIP3    H131606   0.342   2.279   5.822
10555TIP3    H231607   0.381   2.133   5.810
10556TIP3   OH231608   6.341   3.420   0.841
10556TIP3    H131609   6.417   3.451   0.792
10556TIP3    H231610   6.265   3.454   0.793
10557TIP3   OH231611   5.034   3.623   2.282
10557TIP3    H131612   4.957   3.645   2.336
10557TIP3    H231613   5.108   3.629   2.342
10558TIP3   OH231614   1.574   5.690   1.867
10558TIP3    H131615   1.645   5.664   1.925
10558TIP3    H231616   1.556   5.781   1.890
10559TIP3   OH231617   4.015   0.876   1.555
10559TIP3    H131618   3.989   0.895   1.465
10559TIP3    H231619   4.038   0.783   1.555
10560TIP3   OH231620   2.861   3.009   3.194
10560TIP3    H131621   2.853   2.989   3.288
10560TIP3    H231622   2.847   2.925   3.150
10561TIP3   OH231623   5.361   6.900   2.830
10561TIP3    H131624   5.398   6.874   2.914
10561TIP3    H231625   5.308   6.977   2.850
10562TIP3   OH231626   3.903   5.381   0.106
10562TIP3    H131627   3.953   5.459   0.129
10562TIP3    H231628   3.932   5.315   0.169
10563TIP3   OH231629   7.869   3.251   3.744
10563TIP3    H131630   7.838   3.341   3.753
10563TIP3    H231631   7.954   3.250   3.788
10564TIP3   OH231632   3.553   7.373   4.732
10564TIP3    H131633   3.522   7.454   4.774
10564TIP3    H231634   3.528   7.383   4.640
10565TIP3   OH231635   6.372   1.670   4.337
10565TIP3    H131636   6.400   1.611   4.407
10565TIP3    H231637   6.327   1.613   4.275
10566TIP3   OH231638   2.803   2.748   1.972
10566TIP3    H131639   2.856   2.720   1.897
10566TIP3    H231640   2.740   2.810   1.934
10567TIP3   OH231641   6.710   0.873   0.390
10567TIP3    H131642   6.739   0.783   0.406
10567TIP3    H231643   6.618   0.874   0.415
10568TIP3   OH231644   2.882   2.897   0.370
10568TIP3    H131645   2.877   2.803   0.352
10568TIP3    H231646   2.973   2.920   0.350
10569TIP3   OH231647   6.261   6.138   4.641
10569TIP3    H131648   6.195   6.117   4.574
10569TIP3    H231649   6.333   6.177   4.591
10570TIP3   OH231650   2.299   2.568   1.400
10570TIP3    H131651   2.231   2.624   1.437
10570TIP3    H231652   2.266   2.479   1.413
10571TIP3   OH231653   6.086   7.334   5.822
10571TIP3    H131654   6.032   7.380   5.886
10571TIP3    H231655   6.151   7.287   5.875
10572TIP3   OH231656   7.058   4.268   3.708
10572TIP3    H131657   7.143   4.240   3.742
10572TIP3    H231658   7.066   4.363   3.698
10573TIP3   OH231659   2.263   2.729   4.903
10573TIP3    H131660   2.293   2.809   4.945
10573TIP3    H231661   2.223   2.678   4.973
10574TIP3   OH231662   2.181   7.794   6.024
10574TIP3    H131663   2.145   7.882   6.033
10574TIP3    H231664   2.108   7.741   5.992
10575TIP3   OH231665   3.233   0.293   6.102
10575TIP3    H131666   3.189   0.297   6.017
10575TIP3    H231667   3.225   0.201   6.128
10576TIP3   OH231668   3.346   0.937   5.173
10576TIP3    H131669   3.367   0.853   5.133
10576TIP3    H231670   3.300   0.914   5.254
10577TIP3   OH231671   6.734   3.428   1.220
10577TIP3    H131672   6.735   3.337   1.193
10577TIP3    H231673   6.685   3.473   1.151
10578TIP3   OH231674   5.419   4.972   6.807
10578TIP3    H131675   5.397   4.914   6.879
10578TIP3    H231676   5.353   5.040   6.810
10579TIP3   OH231677   6.751   6.302   5.151
10579TIP3    H131678   6.827   6.359   5.143
10579TIP3    H231679   6.728   6.305   5.244
10580TIP3   OH231680   5.372   4.504   6.167
10580TIP3    H131681   5.345   4.588   6.129
10580TIP3    H231682   5.301   4.480   6.226
10581TIP3   OH231683   6.745   3.334   2.327
10581TIP3    H131684   6.718   3.419   2.293
10581TIP3    H231685   6.791   3.292   2.254
10582TIP3   OH231686   3.646   1.023   5.125
10582TIP3    H131687   3.693   1.100   5.093
10582TIP3    H231688   3.569   1.016   5.069
10583TIP3   OH231689   5.038   1.743   4.349
10583TIP3    H131690   4.995   1.819   4.386
10583TIP3    H231691   5.046   1.763   4.255
10584TIP3   OH231692   7.556   3.534   0.624
10584TIP3    H131693   7.516   3.528   0.537
10584TIP3    H231694   7.548   3.446   0.660
10585TIP3   OH231695   6.179   3.389   3.175
10585TIP3    H131696   6.131   3.350   3.101
10585TIP3    H231697   6.234   3.457   3.134
10586TIP3   OH231698   6.244   2.571   6.604
10586TIP3    H131699   6.161   2.561   6.557
10586TIP3    H231700   6.292   2.490   6.583
10587TIP3   OH231701   5.411   3.605   6.712
10587TIP3    H131702   5.481   3.659   6.748
10587TIP3    H231703   5.340   3.667   6.693
10588TIP3   OH231704   3.237   6.856   3.479
10588TIP3    H131705   3.322   6.825   3.449
10588TIP3    H231706   3.175   6.792   3.445
10589TIP3   OH231707   5.530   0.480   3.318
10589TIP3    H131708   5.457   0.425   3.288
10589TIP3    H231709   5.595   0.417   3.350
10590TIP3   OH231710   2.905   6.790   0.627
10590TIP3    H131711   2.941   6.808   0.713
10590TIP3    H231712   2.812   6.812   0.635
10591TIP3   OH231713   1.800   1.477   6.007
10591TIP3    H131714   1.724   1.501   6.059
10591TIP3    H231715   1.792   1.382   5.996
10592TIP3   OH231716   5.492   5.912   0.017
10592TIP3    H131717   5.470   5.874   0.102
10592TIP3    H231718   5.430   5.984   0.006
10593TIP3   OH231719   5.865   6.104   1.443
10593TIP3    H131720   5.812   6.056   1.379
10593TIP3    H231721   5.827   6.080   1.527
10594TIP3   OH231722   7.332   0.073   3.073
10594TIP3    H131723   7.245   0.034   3.067
10594TIP3    H231724   7.365   0.044   3.158
10595TIP3   OH231725   6.612   2.852   5.478
10595TIP3    H131726   6.550   2.876   5.409
10595TIP3    H231727   6.689   2.819   5.431
10596TIP3   OH231728   1.578   7.164   1.408
10596TIP3    H131729   1.606   7.135   1.322
10596TIP3    H231730   1.627   7.109   1.469
10597TIP3   OH231731   6.884   4.169   1.678
10597TIP3    H131732   6.794   4.141   1.665
10597TIP3    H231733   6.937   4.092   1.657
10598TIP3   OH231734   6.540   3.662   4.375
10598TIP3    H131735   6.607   3.663   4.443
10598TIP3    H231736   6.578   3.711   4.302
10599TIP3   OH231737   2.292   3.036   1.288
10599TIP3    H131738   2.249   2.991   1.216
10599TIP3    H231739   2.384   3.012   1.281
10600TIP3   OH231740   7.749   7.453   1.098
10600TIP3    H131741   7.803   7.530   1.116
10600TIP3    H231742   7.800   7.401   1.036
10601TIP3   OH231743   3.449   1.026   1.860
10601TIP3    H131744   3.408   0.945   1.829
10601TIP3    H231745   3.425   1.091   1.794
10602TIP3   OH231746   5.412   0.670   4.414
10602TIP3    H131747   5.504   0.665   4.388
10602TIP3    H231748   5.366   0.616   4.349
10603TIP3   OH231749   2.483   1.686   3.419
10603TIP3    H131750   2.569   1.645   3.415
10603TIP3    H231751   2.422   1.612   3.424
10604TIP3   OH231752   6.926   4.722   5.597
10604TIP3    H131753   6.873   4.777   5.654
10604TIP3    H231754   6.866   4.697   5.526
10605TIP3   OH231755   6.390   0.724   4.800
10605TIP3    H131756   6.485   0.726   4.783
10605TIP3    H231757   6.382   0.678   4.883
10606TIP3   OH231758   0.499   1.139   0.175
10606TIP3    H131759   0.553   1.060   0.176
10606TIP3    H231760   0.561   1.209   0.154
10607TIP3   OH231761   8.201   4.519   5.463
10607TIP3    H131762   8.167   4.452   5.523
10607TIP3    H231763   8.275   4.558   5.510
10608TIP3   OH231764   7.245   3.050   5.439
10608TIP3    H131765   7.162   3.048   5.393
10608TIP3    H231766   7.226   3.095   5.522
10609TIP3   OH231767   4.546   1.136   3.295
10609TIP3    H131768   4.575   1.125   3.385
10609TIP3    H231769   4.623   1.171   3.249
10610TIP3   OH231770   2.678   3.765   2.719
10610TIP3    H131771   2.602   3.763   2.661
10610TIP3    H231772   2.750   3.796   2.664
10611TIP3   OH231773   7.748   4.675   4.245
10611TIP3    H131774   7.691   4.616   4.196
10611TIP3    H231775   7.692   4.750   4.265
10612TIP3   OH231776   2.703   7.802   3.688
10612TIP3    H131777   2.764   7.782   3.759
10612TIP3    H231778   2.645   7.725   3.684
10613TIP3   OH231779   4.955   4.465   0.738
10613TIP3    H131780   5.015   4.426   0.674
10613TIP3    H231781   4.954   4.558   0.715
10614TIP3   OH231782   5.487   7.450   2.514
10614TIP3    H131783   5.529   7.370   2.544
10614TIP3    H231784   5.481   7.505   2.593
10615TIP3   OH231785   3.670   4.562   5.473
10615TIP3    H131786   3.728   4.614   5.418
10615TIP3    H231787   3.626   4.503   5.412
10616TIP3   OH231788   8.257   3.470   1.706
10616TIP3    H131789   8.330   3.415   1.733
10616TIP3    H231790   8.179   3.417   1.723
10617TIP3   OH231791   8.220   3.015   0.781
10617TIP3    H131792   8.226   2.997   0.687
10617TIP3    H231793   8.229   3.110   0.788
10618TIP3   OH231794   4.379   2.524   2.883
10618TIP3    H131795   4.372   2.447   2.828
10618TIP3    H231796   4.431   2.586   2.832
10619TIP3   OH231797   5.315   7.093   6.691
10619TIP3    H131798   5.233   7.140   6.707
10619TIP3    H231799   5.287   7.006   6.662
10620TIP3   OH231800   4.401   3.004   4.168
10620TIP3    H131801   4.342   2.976   4.238
10620TIP3    H231802   4.347   3.001   4.089
10621TIP3   OH231803   6.890   2.009   0.155
10621TIP3    H131804   6.941   1.945   0.105
10621TIP3    H231805   6.943   2.088   0.153
10622TIP3   OH231806   3.986   0.621   4.723
10622TIP3    H131807   3.909   0.619   4.780
10622TIP3    H231808   4.023   0.708   4.736
10623TIP3   OH231809   8.158   4.117   1.482
10623TIP3    H131810   8.203   4.033   1.474
10623TIP3    H231811   8.076   4.105   1.434
10624TIP3   OH231812   0.924   7.064   5.205
10624TIP3    H131813   0.940   7.078   5.299
10624TIP3    H231814   1.009   7.078   5.164
10625TIP3   OH231815   3.305   3.849   2.765
10625TIP3    H131816   3.346   3.929   2.797
10625TIP3    H231817   3.377   3.787   2.753
10626TIP3   OH231818   7.069   4.990   5.557
10626TIP3    H131819   7.009   4.948   5.619
10626TIP3    H231820   7.131   4.921   5.533
10627TIP3   OH231821   8.091   2.544   2.016
10627TIP3    H131822   8.124   2.509   1.934
10627TIP3    H231823   8.125   2.634   2.019
10628TIP3   OH231824   8.125   7.047   0.825
10628TIP3    H131825   8.143   6.956   0.846
10628TIP3    H231826   8.030   7.051   0.813
10629TIP3   OH231827   3.539   7.631   3.883
10629TIP3    H131828   3.548   7.690   3.808
10629TIP3    H231829   3.455   7.655   3.922
10630TIP3   OH231830   3.677   6.636   0.145
10630TIP3    H131831   3.735   6.615   0.219
10630TIP3    H231832   3.670   6.732   0.148
10631TIP3   OH231833   7.397   4.239   1.879
10631TIP3    H131834   7.430   4.329   1.881
10631TIP3    H231835   7.344   4.232   1.958
10632TIP3   OH231836   7.205   4.772   0.677
10632TIP3    H131837   7.281   4.715   0.677
10632TIP3    H231838   7.184   4.783   0.584
10633TIP3   OH231839   0.176   1.645   5.540
10633TIP3    H131840   0.092   1.634   5.586
10633TIP3    H231841   0.164   1.723   5.486
10634TIP3   OH231842   4.645   1.538   4.606
10634TIP3    H131843   4.615   1.484   4.679
10634TIP3    H231844   4.727   1.497   4.578
10635TIP3   OH231845   7.931   3.273   5.561
10635TIP3    H131846   7.876   3.307   5.632
10635TIP3    H231847   7.931   3.343   5.496
10636TIP3   OH231848   0.613   0.780   1.483
10636TIP3    H131849   0.563   0.827   1.550
10636TIP3    H231850   0.598   0.829   1.403
10637TIP3   OH231851   4.374   7.122   5.926
10637TIP3    H131852   4.297   7.129   5.983
10637TIP3    H231853   4.447   7.152   5.980
10638TIP3   OH231854   0.917   4.355   6.295
10638TIP3    H131855   0.948   4.445   6.287
10638TIP3    H231856   0.934   4.316   6.209
10639TIP3   OH231857   5.270   0.048   0.404
10639TIP3    H131858   5.290   0.033   0.312
10639TIP3    H231859   5.341   0.005   0.452
10640TIP3   OH231860   4.403   6.109   3.930
10640TIP3    H131861   4.327   6.166   3.920
10640TIP3    H231862   4.371   6.023   3.902
10641TIP3   OH231863   5.001   4.852   5.170
10641TIP3    H131864   5.064   4.807   5.113
10641TIP3    H231865   5.028   4.944   5.169
10642TIP3   OH231866   5.131   1.149   0.835
10642TIP3    H131867   5.138   1.153   0.931
10642TIP3    H231868   5.049   1.194   0.815
10643TIP3   OH231869   6.060   2.031   3.685
10643TIP3    H131870   6.089   2.122   3.676
10643TIP3    H231871   5.983   2.035   3.741
10644TIP3   OH231872   3.814   5.741   0.386
10644TIP3    H131873   3.868   5.676   0.431
10644TIP3    H231874   3.740   5.755   0.445
10645TIP3   OH231875   7.372   7.865   3.451
10645TIP3    H131876   7.423   7.916   3.513
10645TIP3    H231877   7.298   7.833   3.502
10646TIP3   OH231878   1.374   4.187   2.479
10646TIP3    H131879   1.317   4.264   2.470
10646TIP3    H231880   1.362   4.160   2.570
10647TIP3   OH231881   0.033   6.137   3.043
10647TIP3    H131882   0.075   6.052   3.057
10647TIP3    H231883  -0.012   6.156   3.125
10648TIP3   OH231884   6.117   7.370   4.734
10648TIP3    H131885   6.135   7.349   4.826
10648TIP3    H231886   6.191   7.333   4.686
10649TIP3   OH231887   5.684   5.224   6.751
10649TIP3    H131888   5.668   5.279   6.828
10649TIP3    H231889   5.707   5.138   6.787
10650TIP3   OH231890   3.915   0.572   3.978
10650TIP3    H131891   3.857   0.639   4.016
10650TIP3    H231892   3.991   0.621   3.947
10651TIP3   OH231893   5.565   7.298   1.381
10651TIP3    H131894   5.521   7.381   1.361
10651TIP3    H231895   5.643   7.323   1.430
10652TIP3   OH231896   7.297   7.872   0.897
10652TIP3    H131897   7.376   7.818   0.894
10652TIP3    H231898   7.319   7.950   0.846
10653TIP3   OH231899   4.488   6.041   0.872
10653TIP3    H131900   4.437   6.107   0.825
10653TIP3    H231901   4.427   5.968   0.884
10654TIP3   OH231902   1.071   0.656   4.253
10654TIP3    H131903   1.115   0.643   4.169
10654TIP3    H231904   0.991   0.705   4.231
10655TIP3   OH231905   4.763   3.800   0.351
10655TIP3    H131906   4.682   3.792   0.401
10655TIP3    H231907   4.763   3.891   0.320
10656TIP3   OH231908   3.551   1.311   4.934
10656TIP3    H131909   3.498   1.385   4.963
10656TIP3    H231910   3.497   1.234   4.954
10657TIP3   OH231911   0.142   0.666   1.638
10657TIP3    H131912   0.178   0.606   1.573
10657TIP3    H231913   0.098   0.734   1.587
10658TIP3   OH231914   0.283   6.657   0.572
10658TIP3    H131915   0.279   6.573   0.617
10658TIP3    H231916   0.236   6.643   0.490
10659TIP3   OH231917   1.854   2.548   4.756
10659TIP3    H131918   1.823   2.639   4.756
10659TIP3    H231919   1.774   2.496   4.761
10660TIP3   OH231920   0.358   4.610   2.811
10660TIP3    H131921   0.358   4.699   2.775
10660TIP3    H231922   0.268   4.597   2.842
10661TIP3   OH231923   4.478   7.103   0.461
10661TIP3    H131924   4.431   7.090   0.544
10661TIP3    H231925   4.503   7.195   0.462
10662TIP3   OH231926   1.029   6.000   0.500
10662TIP3    H131927   1.119   5.977   0.522
10662TIP3    H231928   0.976   5.950   0.563
10663TIP3   OH231929   7.689   7.280   2.834
10663TIP3    H131930   7.697   7.222   2.758
10663TIP3    H231931   7.622   7.240   2.889
10664TIP3   OH231932   0.868   4.301   4.997
10664TIP3    H131933   0.852   4.332   5.087
10664TIP3    H231934   0.793   4.244   4.978
10665TIP3   OH231935   2.237   5.158   5.486
10665TIP3    H131936   2.268   5.141   5.575
10665TIP3    H231937   2.280   5.239   5.460
10666TIP3   OH231938   6.373   1.915   4.894
10666TIP3    H131939   6.325   1.887   4.816
10666TIP3    H231940   6.460   1.938   4.862
10667TIP3   OH231941   3.182   1.296   0.997
10667TIP3    H131942   3.171   1.373   1.054
10667TIP3    H231943   3.096   1.255   0.995
10668TIP3   OH231944   3.151   6.374   6.664
10668TIP3    H131945   3.137   6.404   6.575
10668TIP3    H231946   3.205   6.296   6.655
10669TIP3   OH231947   4.450   6.845   5.561
10669TIP3    H131948   4.538   6.877   5.582
10669TIP3    H231949   4.428   6.888   5.479
10670TIP3   OH231950   3.724   2.836   0.160
10670TIP3    H131951   3.702   2.836   0.067
10670TIP3    H231952   3.669   2.904   0.198
10671TIP3   OH231953   7.183   5.244   1.982
10671TIP3    H131954   7.116   5.269   1.918
10671TIP3    H231955   7.230   5.172   1.941
10672TIP3   OH231956   0.605   1.783   0.562
10672TIP3    H131957   0.533   1.815   0.615
10672TIP3    H231958   0.646   1.715   0.616
10673TIP3   OH231959   6.598   7.156   0.934
10673TIP3    H131960   6.598   7.154   1.030
10673TIP3    H231961   6.667   7.219   0.912
10674TIP3   OH231962   3.996   3.528   1.493
10674TIP3    H131963   3.953   3.587   1.555
10674TIP3    H231964   4.012   3.448   1.543
10675TIP3   OH231965   1.391   5.494   3.570
10675TIP3    H131966   1.303   5.473   3.540
10675TIP3    H231967   1.442   5.415   3.552
10676TIP3   OH231968   0.597   1.714   1.518
10676TIP3    H131969   0.660   1.716   1.447
10676TIP3    H231970   0.617   1.791   1.571
10677TIP3   OH231971   6.477   2.147   0.296
10677TIP3    H131972   6.445   2.201   0.368
10677TIP3    H231973   6.507   2.067   0.339
10678TIP3   OH231974   1.345   2.536   5.507
10678TIP3    H131975   1.278   2.548   5.575
10678TIP3    H231976   1.340   2.443   5.484
10679TIP3   OH231977   6.300   6.738   6.425
10679TIP3    H131978   6.270   6.812   6.373
10679TIP3    H231979   6.386   6.715   6.389
10680TIP3   OH231980   0.084   6.010   5.144
10680TIP3    H131981   0.133   5.995   5.224
10680TIP3    H231982   0.018   6.075   5.168
10681TIP3   OH231983   2.734   4.275   0.534
10681TIP3    H131984   2.652   4.266   0.486
10681TIP3    H231985   2.720   4.227   0.616
10682TIP3   OH231986   1.546   2.338   3.513
10682TIP3    H131987   1.572   2.397   3.443
10682TIP3    H231988   1.452   2.351   3.522
10683TIP3   OH231989   8.301   4.967   6.575
10683TIP3    H131990   8.384   5.002   6.607
10683TIP3    H231991   8.324   4.886   6.530
10684TIP3   OH231992   3.930   1.131   0.903
10684TIP3    H131993   3.970   1.137   0.990
10684TIP3    H231994   3.864   1.062   0.911
10685TIP3   OH231995   5.438   6.251   5.960
10685TIP3    H131996   5.522   6.247   6.007
10685TIP3    H231997   5.410   6.160   5.954
10686TIP3   OH231998   5.744   3.151   3.187
10686TIP3    H131999   5.825   3.176   3.144
10686TIP3    H232000   5.719   3.068   3.146
10687TIP3   OH232001   1.516   5.996   0.755
10687TIP3    H132002   1.576   6.003   0.682
10687TIP3    H232003   1.446   6.060   0.735
10688TIP3   OH232004   4.112   0.874   6.689
10688TIP3    H132005   4.097   0.919   6.605
10688TIP3    H232006   4.164   0.797   6.666
10689TIP3   OH232007   0.135   0.039   1.715
10689TIP3    H132008   0.061  -0.011   1.750
10689TIP3    H232009   0.138   0.015   1.622
10690TIP3   OH232010   0.166   6.017   0.281
10690TIP3    H132011   0.180   6.059   0.366
10690TIP3    H232012   0.089   6.060   0.245
10691TIP3   OH232013   7.713   2.838   1.472
10691TIP3    H132014   7.646   2.905   1.461
10691TIP3    H232015   7.685   2.767   1.413
10692TIP3   OH232016   5.717   5.505   0.281
10692TIP3    H132017   5.787   5.450   0.318
10692TIP3    H232018   5.738   5.513   0.188
10693TIP3   OH232019   1.347   5.027   3.436
10693TIP3    H132020   1.381   4.938   3.428
10693TIP3    H232021   1.276   5.032   3.372
10694TIP3   OH232022   1.546   6.329   6.715
10694TIP3    H132023   1.633   6.311   6.678
10694TIP3    H232024   1.564   6.382   6.794
10695TIP3   OH232025   0.617   4.677   1.861
10695TIP3    H132026   0.586   4.653   1.773
10695TIP3    H232027   0.537   4.692   1.911
10696TIP3   OH232028   2.053   0.637   4.530
10696TIP3    H132029   2.104   0.718   4.534
10696TIP3    H232030   2.035   0.616   4.622
10697TIP3   OH232031   0.228   0.965   4.936
10697TIP3    H132032   0.153   0.984   4.880
10697TIP3    H232033   0.303   0.997   4.885
10698TIP3   OH232034   0.496   4.660   6.579
10698TIP3    H132035   0.421   4.669   6.520
10698TIP3    H232036   0.511   4.565   6.584
10699TIP3   OH232037   6.485   2.369   4.105
10699TIP3    H132038   6.471   2.408   4.191
10699TIP3    H232039   6.511   2.279   4.124
10700TIP3   OH232040   7.577   2.684   0.563
10700TIP3    H132041   7.533   2.707   0.481
10700TIP3    H232042   7.514   2.630   0.610
10701TIP3   OH232043   4.162   3.264   4.090
10701TIP3    H132044   4.183   3.182   4.046
10701TIP3    H232045   4.215   3.263   4.170
10702TIP3   OH232046   1.396   0.802   2.088
10702TIP3    H132047   1.420   0.830   1.999
10702TIP3    H232048   1.334   0.868   2.118
10703TIP3   OH232049   8.364   2.066   0.867
10703TIP3    H132050   8.364   2.153   0.907
10703TIP3    H232051   8.291   2.021   0.910
10704TIP3   OH232052   6.368   4.246   5.792
10704TIP3    H132053   6.287   4.219   5.750
10704TIP3    H232054   6.437   4.226   5.728
10705TIP3   OH232055   3.932   5.885   4.384
10705TIP3    H132056   3.854   5.832   4.399
10705TIP3    H232057   3.898   5.973   4.368
10706TIP3   OH232058   3.767   7.850   5.804
10706TIP3    H132059   3.799   7.797   5.731
10706TIP3    H232060   3.742   7.786   5.871
10707TIP3   OH232061   1.723   0.227   6.650
10707TIP3    H132062   1.688   0.142   6.625
10707TIP3    H232063   1.764   0.261   6.570
10708TIP3   OH232064   7.870   7.102   1.458
10708TIP3    H132065   7.807   7.069   1.394
10708TIP3    H232066   7.904   7.182   1.419
10709TIP3   OH232067   6.766   3.552   0.722
10709TIP3    H132068   6.791   3.579   0.633
10709TIP3    H232069   6.760   3.634   0.771
10710TIP3   OH232070   3.528   5.064   1.788
10710TIP3    H132071   3.453   5.045   1.845
10710TIP3    H232072   3.569   4.978   1.775
10711TIP3   OH232073   0.949   2.947   5.851
10711TIP3    H132074   0.870   3.000   5.846
10711TIP3    H232075   0.997   2.969   5.771
10712TIP3   OH232076   3.669   1.558   5.742
10712TIP3    H132077   3.711   1.625   5.796
10712TIP3    H232078   3.576   1.582   5.742
10713TIP3   OH232079   7.940   5.961   4.076
10713TIP3    H132080   7.969   6.025   4.011
10713TIP3    H232081   7.884   5.900   4.027
10714TIP3   OH232082   4.107   0.066   1.998
10714TIP3    H132083   4.091   0.150   2.040
10714TIP3    H232084   4.022   0.022   1.998
10715TIP3   OH232085   8.200   6.050   1.012
10715TIP3    H132086   8.179   6.061   1.105
10715TIP3    H232087   8.115   6.043   0.969
10716TIP3   OH232088   4.420   3.732   6.767
10716TIP3    H132089   4.422   3.763   6.857
10716TIP3    H232090   4.498   3.675   6.760
10717TIP3   OH232091   1.566   0.635   4.765
10717TIP3    H132092   1.635   0.637   4.831
10717TIP3    H232093   1.597   0.693   4.696
10718TIP3   OH232094   2.054   5.157   4.973
10718TIP3    H132095   2.092   5.163   4.885
10718TIP3    H232096   1.985   5.091   4.964
10719TIP3   OH232097   3.055   1.360   0.258
10719TIP3    H132098   3.101   1.429   0.306
10719TIP3    H232099   3.088   1.278   0.296
10720TIP3   OH232100   4.522   1.363   3.782
10720TIP3    H132101   4.483   1.393   3.700
10720TIP3    H232102   4.551   1.443   3.826
10721TIP3   OH232103   8.346   6.380   2.915
10721TIP3    H132104   8.280   6.331   2.865
10721TIP3    H232105   8.409   6.314   2.943
10722TIP3   OH232106   1.407   5.083   4.818
10722TIP3    H132107   1.427   5.018   4.885
10722TIP3    H232108   1.443   5.165   4.853
10723TIP3   OH232109   4.883   5.084   3.656
10723TIP3    H132110   4.862   5.001   3.698
10723TIP3    H232111   4.957   5.065   3.599
10724TIP3   OH232112   5.585   6.849   1.245
10724TIP3    H132113   5.678   6.850   1.221
10724TIP3    H232114   5.577   6.915   1.313
10725TIP3   OH232115   2.939   5.834   2.544
10725TIP3    H132116   2.911   5.751   2.506
10725TIP3    H232117   2.988   5.877   2.474
10726TIP3   OH232118   0.055   4.514   6.191
10726TIP3    H132119   0.125   4.501   6.254
10726TIP3    H232120   0.042   4.609   6.187
10727TIP3   OH232121   0.771   3.263   2.896
10727TIP3    H132122   0.789   3.172   2.919
10727TIP3    H232123   0.851   3.294   2.853
10728TIP3   OH232124   4.691   6.397   2.160
10728TIP3    H132125   4.638   6.406   2.239
10728TIP3    H232126   4.637   6.343   2.101
10729TIP3   OH232127   5.871   4.307   2.032
10729TIP3    H132128   5.877   4.372   2.102
10729TIP3    H232129   5.785   4.324   1.992
10730TIP3   OH232130   4.699   1.954   1.798
10730TIP3    H132131   4.687   1.884   1.734
10730TIP3    H232132   4.721   1.908   1.879
10731TIP3   OH232133   4.418   0.860   5.708
10731TIP3    H132134   4.369   0.824   5.782
10731TIP3    H232135   4.352   0.880   5.642
10732TIP3   OH232136   2.638   1.761   6.277
10732TIP3    H132137   2.612   1.848   6.305
10732TIP3    H232138   2.693   1.775   6.200
10733TIP3   OH232139   7.357   0.537   4.908
10733TIP3    H132140   7.268   0.522   4.876
10733TIP3    H232141   7.399   0.590   4.840
10734TIP3   OH232142   3.697   6.400   2.946
10734TIP3    H132143   3.753   6.323   2.936
10734TIP3    H232144   3.756   6.475   2.936
10735TIP3   OH232145   4.826   5.511   6.413
10735TIP3    H132146   4.769   5.585   6.432
10735TIP3    H232147   4.892   5.513   6.483
10736TIP3   OH232148   0.851   0.905   5.443
10736TIP3    H132149   0.800   0.829   5.415
10736TIP3    H232150   0.872   0.951   5.363
10737TIP3   OH232151   3.858   7.467   3.315
10737TIP3    H132152   3.933   7.493   3.261
10737TIP3    H232153   3.824   7.549   3.349
10738TIP3   OH232154   7.667   0.696   5.508
10738TIP3    H132155   7.649   0.672   5.599
10738TIP3    H232156   7.744   0.643   5.484
10739TIP3   OH232157   5.502   6.083   6.730
10739TIP3    H132158   5.585   6.121   6.758
10739TIP3    H232159   5.493   6.110   6.638
10740TIP3   OH232160   5.151   7.742   4.291
10740TIP3    H132161   5.171   7.799   4.217
10740TIP3    H232162   5.103   7.668   4.252
10741TIP3   OH232163   2.231   0.793   4.249
10741TIP3    H132164   2.283   0.796   4.329
10741TIP3    H232165   2.230   0.884   4.218
10742TIP3   OH232166   5.263   0.974   4.480
10742TIP3    H132167   5.331   0.926   4.528
10742TIP3    H232168   5.301   0.988   4.393
10743TIP3   OH232169   3.525   3.002   1.765
10743TIP3    H132170   3.485   2.950   1.835
10743TIP3    H232171   3.608   2.957   1.747
10744TIP3   OH232172   2.631   3.222   2.975
10744TIP3    H132173   2.717   3.205   3.013
10744TIP3    H232174   2.583   3.140   2.987
10745TIP3   OH232175   3.327   3.171   5.051
10745TIP3    H132176   3.292   3.177   4.962
10745TIP3    H232177   3.267   3.225   5.103
10746TIP3   OH232178   4.212   0.134   1.465
10746TIP3    H132179   4.294   0.087   1.449
10746TIP3    H232180   4.183   0.103   1.551
10747TIP3   OH232181   7.970   3.077   4.354
10747TIP3    H132182   7.985   3.003   4.296
10747TIP3    H232183   8.014   3.150   4.311
10748TIP3   OH232184   2.386   6.196   1.278
10748TIP3    H132185   2.346   6.280   1.299
10748TIP3    H232186   2.477   6.217   1.256
10749TIP3   OH232187   3.588   6.569   5.296
10749TIP3    H132188   3.680   6.592   5.304
10749TIP3    H232189   3.573   6.559   5.202
10750TIP3   OH232190   0.677   7.609   1.045
10750TIP3    H132191   0.631   7.531   1.013
10750TIP3    H232192   0.717   7.647   0.967
10751TIP3   OH232193   3.194   6.523   3.056
10751TIP3    H132194   3.278   6.487   3.085
10751TIP3    H232195   3.129   6.488   3.117
10752TIP3   OH232196   1.051   6.283   3.647
10752TIP3    H132197   0.956   6.292   3.658
10752TIP3    H232198   1.067   6.305   3.555
10753TIP3   OH232199   3.644   2.684   2.336
10753TIP3    H132200   3.567   2.633   2.313
10753TIP3    H232201   3.717   2.637   2.295
10754TIP3   OH232202   6.745   7.867   2.836
10754TIP3    H132203   6.824   7.911   2.805
10754TIP3    H232204   6.723   7.805   2.767
10755TIP3   OH232205   0.331   4.983   3.673
10755TIP3    H132206   0.295   5.065   3.640
10755TIP3    H232207   0.334   4.926   3.596
10756TIP3   OH232208   0.034   4.333   1.878
10756TIP3    H132209   0.044   4.423   1.849
10756TIP3    H232210   0.123   4.301   1.891
10757TIP3   OH232211   4.284   1.992   5.916
10757TIP3    H132212   4.360   1.950   5.875
10757TIP3    H232213   4.321   2.052   5.980
10758TIP3   OH232214   2.578   4.929   4.788
10758TIP3    H132215   2.605   4.981   4.864
10758TIP3    H232216   2.518   4.864   4.823
10759TIP3   OH232217   5.918   1.937   2.554
10759TIP3    H132218   5.972   1.985   2.491
10759TIP3    H232219   5.830   1.939   2.517
10760TIP3   OH232220   6.982   2.183   1.032
10760TIP3    H132221   7.071   2.151   1.018
10760TIP3    H232222   6.967   2.245   0.960
10761TIP3   OH232223   3.746   4.220   3.059
10761TIP3    H132224   3.740   4.238   3.153
10761TIP3    H232225   3.669   4.264   3.022
10762TIP3   OH232226   3.690   3.171   3.631
10762TIP3    H132227   3.779   3.194   3.657
10762TIP3    H232228   3.638   3.177   3.711
10763TIP3   OH232229   7.735   7.175   5.176
10763TIP3    H132230   7.724   7.156   5.270
10763TIP3    H232231   7.647   7.196   5.146
10764TIP3   OH232232   7.208   5.373   2.230
10764TIP3    H132233   7.212   5.338   2.141
10764TIP3    H232234   7.239   5.463   2.222
10765TIP3   OH232235   2.946   4.381   5.365
10765TIP3    H132236   2.976   4.468   5.389
10765TIP3    H232237   2.989   4.322   5.427
10766TIP3   OH232238   2.669   5.298   5.161
10766TIP3    H132239   2.732   5.369   5.147
10766TIP3    H232240   2.684   5.270   5.251
10767TIP3   OH232241   2.420   1.662   6.463
10767TIP3    H132242   2.345   1.720   6.447
10767TIP3    H232243   2.441   1.675   6.555
10768TIP3   OH232244   5.093   2.193   0.420
10768TIP3    H132245   5.098   2.109   0.375
10768TIP3    H232246   5.094   2.259   0.351
10769TIP3   OH232247   5.559   4.669   3.289
10769TIP3    H132248   5.565   4.758   3.326
10769TIP3    H232249   5.630   4.666   3.224
10770TIP3   OH232250   3.393   6.712   5.396
10770TIP3    H132251   3.428   6.691   5.483
10770TIP3    H232252   3.458   6.678   5.335
10771TIP3   OH232253   6.085   5.884   1.429
10771TIP3    H132254   6.127   5.969   1.447
10771TIP3    H232255   5.994   5.906   1.411
10772TIP3   OH232256   1.431   6.413   5.999
10772TIP3    H132257   1.502   6.396   6.062
10772TIP3    H232258   1.375   6.477   6.044
10773TIP3   OH232259   5.377   2.877   2.780
10773TIP3    H132260   5.365   2.849   2.871
10773TIP3    H232261   5.471   2.893   2.772
10774TIP3   OH232262   2.046   1.952   4.328
10774TIP3    H132263   2.117   1.923   4.271
10774TIP3    H232264   2.088   1.968   4.412
10775TIP3   OH232265   5.226   2.020   5.292
10775TIP3    H132266   5.302   1.964   5.302
10775TIP3    H232267   5.162   1.966   5.246
10776TIP3   OH232268   0.832   5.461   5.195
10776TIP3    H132269   0.849   5.545   5.153
10776TIP3    H232270   0.752   5.475   5.246
10777TIP3   OH232271   3.228   1.462   2.931
10777TIP3    H132272   3.209   1.406   2.856
10777TIP3    H232273   3.202   1.411   3.007
10778TIP3   OH232274   1.048   0.721   2.432
10778TIP3    H132275   1.108   0.694   2.501
10778TIP3    H232276   0.985   0.778   2.476
10779TIP3   OH232277   2.677   3.240   3.518
10779TIP3    H132278   2.603   3.299   3.532
10779TIP3    H232279   2.638   3.159   3.486
10780TIP3   OH232280   5.647   2.245   3.396
10780TIP3    H132281   5.631   2.338   3.380
10780TIP3    H232282   5.741   2.239   3.413
10781TIP3   OH232283   5.769   6.118   2.572
10781TIP3    H132284   5.748   6.024   2.578
10781TIP3    H232285   5.847   6.121   2.517
10782TIP3   OH232286   2.033   6.572   3.347
10782TIP3    H132287   2.033   6.488   3.302
10782TIP3    H232288   2.121   6.606   3.333
10783TIP3   OH232289   6.588   4.995   5.146
10783TIP3    H132290   6.618   4.950   5.225
10783TIP3    H232291   6.583   5.087   5.170
10784TIP3   OH232292   7.741   7.042   2.649
10784TIP3    H132293   7.754   6.947   2.652
10784TIP3    H232294   7.822   7.076   2.611
10785TIP3   OH232295   3.850   6.907   1.076
10785TIP3    H132296   3.865   6.862   0.993
10785TIP3    H232297   3.876   6.845   1.143
10786TIP3   OH232298   6.726   6.190   0.376
10786TIP3    H132299   6.663   6.232   0.434
10786TIP3    H232300   6.703   6.097   0.380
10787TIP3   OH232301   7.271   6.350   6.702
10787TIP3    H132302   7.279   6.254   6.697
10787TIP3    H232303   7.349   6.377   6.751
10788TIP3   OH232304   6.024   5.241   5.904
10788TIP3    H132305   6.023   5.335   5.923
10788TIP3    H232306   6.117   5.220   5.896
10789TIP3   OH232307   2.219   3.316   6.042
10789TIP3    H132308   2.282   3.250   6.012
10789TIP3    H232309   2.173   3.273   6.114
10790TIP3   OH232310   4.400   7.067   0.736
10790TIP3    H132311   4.437   7.156   0.736
10790TIP3    H232312   4.451   7.021   0.803
10791TIP3   OH232313   1.679   6.727   5.050
10791TIP3    H132314   1.705   6.645   5.008
10791TIP3    H232315   1.705   6.716   5.142
10792TIP3   OH232316   6.715   1.817   1.277
10792TIP3    H132317   6.649   1.861   1.224
10792TIP3    H232318   6.721   1.729   1.241
10793TIP3   OH232319   2.680   0.120   5.086
10793TIP3    H132320   2.649   0.075   5.165
10793TIP3    H232321   2.720   0.051   5.033
10794TIP3   OH232322   4.358   6.662   5.269
10794TIP3    H132323   4.263   6.666   5.270
10794TIP3    H232324   4.379   6.598   5.201
10795TIP3   OH232325   7.825   3.240   2.731
10795TIP3    H132326   7.744   3.206   2.692
10795TIP3    H232327   7.895   3.195   2.685
10796TIP3   OH232328   6.065   4.464   3.016
10796TIP3    H132329   6.148   4.505   3.040
10796TIP3    H232330   6.049   4.401   3.087
10797TIP3   OH232331   0.842   1.958   1.207
10797TIP3    H132332   0.816   2.039   1.251
10797TIP3    H232333   0.894   1.987   1.132
10798TIP3   OH232334   0.542   3.190   4.269
10798TIP3    H132335   0.577   3.113   4.225
10798TIP3    H232336   0.505   3.243   4.199
10799TIP3   OH232337   5.969   3.524   6.712
10799TIP3    H132338   6.010   3.541   6.627
10799TIP3    H232339   6.019   3.579   6.773
10800TIP3   OH232340   5.986   7.314   3.099
10800TIP3    H132341   5.897   7.281   3.108
10800TIP3    H232342   6.013   7.334   3.189
10801TIP3   OH232343   0.079   5.763   3.683
10801TIP3    H132344   0.164   5.807   3.680
10801TIP3    H232345   0.074   5.715   3.600
10802TIP3   OH232346   5.484   0.823   0.071
10802TIP3    H132347   5.445   0.870  -0.003
10802TIP3    H232348   5.410   0.803   0.129
10803TIP3   OH232349   4.824   3.753   1.920
10803TIP3    H132350   4.822   3.825   1.857
10803TIP3    H232351   4.798   3.792   2.003
10804TIP3   OH232352   6.933   6.832   5.038
10804TIP3    H132353   6.895   6.759   4.989
10804TIP3    H232354   6.866   6.856   5.102
10805TIP3   OH232355   6.955   0.488   1.642
10805TIP3    H132356   6.900   0.546   1.693
10805TIP3    H232357   7.040   0.490   1.686
10806TIP3   OH232358   6.445   7.373   4.411
10806TIP3    H132359   6.509   7.309   4.379
10806TIP3    H232360   6.497   7.437   4.460
10807TIP3   OH232361   6.818   7.451   4.022
10807TIP3    H132362   6.747   7.387   4.011
10807TIP3    H232363   6.779   7.521   4.074
10808TIP3   OH232364   7.097   1.265   3.273
10808TIP3    H132365   7.116   1.359   3.263
10808TIP3    H232366   7.170   1.221   3.229
10809TIP3   OH232367   3.861   6.714   6.512
10809TIP3    H132368   3.898   6.644   6.565
10809TIP3    H232369   3.821   6.669   6.438
10810TIP3   OH232370   1.564   5.362   3.829
10810TIP3    H132371   1.479   5.342   3.790
10810TIP3    H232372   1.569   5.458   3.827
10811TIP3   OH232373   1.209   6.387   4.615
10811TIP3    H132374   1.264   6.464   4.602
10811TIP3    H232375   1.220   6.365   4.707
10812TIP3   OH232376   7.785   1.194   2.875
10812TIP3    H132377   7.700   1.237   2.864
10812TIP3    H232378   7.764   1.101   2.876
10813TIP3   OH232379   7.036   1.435   2.931
10813TIP3    H132380   7.096   1.472   2.866
10813TIP3    H232381   7.070   1.465   3.015
10814TIP3   OH232382   2.835   6.464   3.571
10814TIP3    H132383   2.774   6.406   3.616
10814TIP3    H232384   2.793   6.480   3.486
10815TIP3   OH232385   3.938   3.324   6.437
10815TIP3    H132386   4.029   3.332   6.463
10815TIP3    H232387   3.914   3.234   6.459
10816TIP3   OH232388   2.895   7.073   6.076
10816TIP3    H132389   2.813   7.056   6.122
10816TIP3    H232390   2.897   7.008   6.005
10817TIP3   OH232391   3.261   4.746   3.071
10817TIP3    H132392   3.235   4.791   3.151
10817TIP3    H232393   3.186   4.759   3.012
10818TIP3   OH232394   4.149   2.518   6.448
10818TIP3    H132395   4.130   2.464   6.525
10818TIP3    H232396   4.141   2.457   6.374
10819TIP3   OH232397   5.336   6.577   3.261
10819TIP3    H132398   5.289   6.623   3.331
10819TIP3    H232399   5.306   6.618   3.181
10820TIP3   OH232400   2.587   4.434   6.118
10820TIP3    H132401   2.671   4.472   6.143
10820TIP3    H232402   2.549   4.402   6.200
10821TIP3   OH232403   3.989   2.089   3.376
10821TIP3    H132404   3.971   2.168   3.428
10821TIP3    H232405   4.036   2.031   3.436
10822TIP3   OH232406   0.997   7.444   3.170
10822TIP3    H132407   1.056   7.375   3.201
10822TIP3    H232408   0.991   7.505   3.244
10823TIP3   OH232409   4.765   3.393   6.273
10823TIP3    H132410   4.704   3.454   6.315
10823TIP3    H232411   4.735   3.306   6.302
10824TIP3   OH232412   0.687   3.095   1.421
10824TIP3    H132413   0.637   3.146   1.485
10824TIP3    H232414   0.646   3.009   1.423
10825TIP3   OH232415   3.004   7.795   1.834
10825TIP3    H132416   2.978   7.850   1.760
10825TIP3    H232417   3.004   7.854   1.909
10826TIP3   OH232418   2.577   0.483   3.416
10826TIP3    H132419   2.485   0.471   3.440
10826TIP3    H232420   2.621   0.404   3.447
10827TIP3   OH232421   1.212   1.600   5.060
10827TIP3    H132422   1.150   1.673   5.060
10827TIP3    H232423   1.236   1.588   4.968
10828TIP3   OH232424   5.912   5.342   3.116
10828TIP3    H132425   5.842   5.372   3.057
10828TIP3    H232426   5.976   5.413   3.115
10829TIP3   OH232427   3.330   2.419   3.404
10829TIP3    H132428   3.253   2.399   3.456
10829TIP3    H232429   3.371   2.334   3.389
10830TIP3   OH232430   6.975   4.818   2.714
10830TIP3    H132431   6.901   4.832   2.656
10830TIP3    H232432   6.977   4.895   2.771
10831TIP3   OH232433   2.693   0.945   1.373
10831TIP3    H132434   2.613   0.968   1.420
10831TIP3    H232435   2.706   1.017   1.312
10832TIP3   OH232436   4.201   7.491   0.090
10832TIP3    H132437   4.209   7.530   0.003
10832TIP3    H232438   4.278   7.436   0.098
10833TIP3   OH232439   0.426   2.487   0.905
10833TIP3    H132440   0.340   2.525   0.920
10833TIP3    H232441   0.456   2.527   0.823
10834TIP3   OH232442   5.366   7.057   4.013
10834TIP3    H132443   5.424   7.086   3.942
10834TIP3    H232444   5.388   6.964   4.025
10835TIP3   OH232445   6.246   0.379   5.260
10835TIP3    H132446   6.175   0.385   5.324
10835TIP3    H232447   6.241   0.289   5.227
10836TIP3   OH232448   3.564   4.997   4.977
10836TIP3    H132449   3.633   5.052   4.939
10836TIP3    H232450   3.566   5.018   5.070
10837TIP3   OH232451   5.267   2.859   0.701
10837TIP3    H132452   5.213   2.786   0.672
10837TIP3    H232453   5.303   2.830   0.786
10838TIP3   OH232454   0.970   0.939   3.776
10838TIP3    H132455   1.008   0.999   3.712
10838TIP3    H232456   0.977   0.986   3.859
10839TIP3   OH232457   6.292   4.294   5.470
10839TIP3    H132458   6.245   4.222   5.429
10839TIP3    H232459   6.239   4.318   5.546
10840TIP3   OH232460   1.344   2.949   4.272
10840TIP3    H132461   1.413   3.011   4.295
10840TIP3    H232462   1.264   3.002   4.267
10841TIP3   OH232463   3.224   0.604   2.280
10841TIP3    H132464   3.201   0.645   2.197
10841TIP3    H232465   3.299   0.549   2.259
10842TIP3   OH232466   2.176   6.837   2.510
10842TIP3    H132467   2.098   6.888   2.488
10842TIP3    H232468   2.143   6.749   2.529
10843TIP3   OH232469   5.483   7.243   4.967
10843TIP3    H132470   5.507   7.243   5.060
10843TIP3    H232471   5.422   7.170   4.958
10844TIP3   OH232472   4.008   0.095   5.212
10844TIP3    H132473   3.974   0.177   5.247
10844TIP3    H232474   3.936   0.059   5.160
10845TIP3   OH232475   7.578   3.377   5.674
10845TIP3    H132476   7.654   3.355   5.729
10845TIP3    H232477   7.540   3.292   5.651
10846TIP3   OH232478   1.277   6.931   0.474
10846TIP3    H132479   1.211   6.873   0.513
10846TIP3    H232480   1.301   6.889   0.392
10847TIP3   OH232481   1.508   3.863   0.454
10847TIP3    H132482   1.526   3.785   0.507
10847TIP3    H232483   1.412   3.872   0.457
10848TIP3   OH232484   1.989   5.813   2.484
10848TIP3    H132485   1.972   5.905   2.501
10848TIP3    H232486   1.930   5.766   2.542
10849TIP3   OH232487   7.394   0.857   4.151
10849TIP3    H132488   7.473   0.908   4.138
10849TIP3    H232489   7.391   0.840   4.245
10850TIP3   OH232490   2.275   0.728   0.206
10850TIP3    H132491   2.280   0.690   0.293
10850TIP3    H232492   2.193   0.694   0.169
10851TIP3   OH232493   6.351   3.384   1.462
10851TIP3    H132494   6.383   3.332   1.535
10851TIP3    H232495   6.409   3.460   1.459
10852TIP3   OH232496   4.364   6.594   0.815
10852TIP3    H132497   4.296   6.632   0.870
10852TIP3    H232498   4.393   6.666   0.759
10853TIP3   OH232499   5.537   0.227   2.168
10853TIP3    H132500   5.479   0.208   2.095
10853TIP3    H232501   5.613   0.270   2.128
10854TIP3   OH232502   7.400   4.911   2.803
10854TIP3    H132503   7.461   4.947   2.868
10854TIP3    H232504   7.316   4.911   2.848
10855TIP3   OH232505   3.941   6.017   5.276
10855TIP3    H132506   3.923   5.923   5.270
10855TIP3    H232507   4.037   6.023   5.271
10856TIP3   OH232508   1.757   7.152   3.841
10856TIP3    H132509   1.763   7.084   3.908
10856TIP3    H232510   1.828   7.133   3.780
10857TIP3   OH232511   4.164   4.621   5.997
10857TIP3    H132512   4.112   4.693   6.033
10857TIP3    H232513   4.254   4.643   6.020
10858TIP3   OH232514   0.058   0.272   1.859
10858TIP3    H132515   0.107   0.208   1.808
10858TIP3    H232516  -0.033   0.245   1.851
10859TIP3   OH232517   2.662   5.459   6.488
10859TIP3    H132518   2.619   5.376   6.512
10859TIP3    H232519   2.728   5.434   6.424
10860TIP3   OH232520   7.897   5.496   0.278
10860TIP3    H132521   7.930   5.476   0.365
10860TIP3    H232522   7.852   5.580   0.288
10861TIP3   OH232523   2.752   6.738   5.762
10861TIP3    H132524   2.836   6.782   5.749
10861TIP3    H232525   2.693   6.779   5.699
10862TIP3   OH232526   5.803   6.951   4.458
10862TIP3    H132527   5.887   6.996   4.448
10862TIP3    H232528   5.783   6.959   4.552
10863TIP3   OH232529   3.015   3.228   3.908
10863TIP3    H132530   2.990   3.228   3.816
10863TIP3    H232531   2.963   3.299   3.947
10864TIP3   OH232532   1.485   2.633   1.211
10864TIP3    H132533   1.443   2.712   1.178
10864TIP3    H232534   1.473   2.637   1.306
10865TIP3   OH232535   0.333   2.595   6.465
10865TIP3    H132536   0.368   2.618   6.379
10865TIP3    H232537   0.242   2.624   6.463
10866TIP3   OH232538   3.334   7.155   0.421
10866TIP3    H132539   3.297   7.232   0.464
10866TIP3    H232540   3.313   7.083   0.481
10867TIP3   OH232541   1.009   6.028   1.733
10867TIP3    H132542   0.916   6.025   1.754
10867TIP3    H232543   1.050   5.968   1.796
10868TIP3   OH232544   0.086   2.244   3.929
10868TIP3    H132545   0.042   2.316   3.974
10868TIP3    H232546   0.157   2.286   3.881
10869TIP3   OH232547   3.630   1.301   5.835
10869TIP3    H132548   3.537   1.291   5.816
10869TIP3    H232549   3.653   1.387   5.800
10870TIP3   OH232550   3.142   5.301   5.959
10870TIP3    H132551   3.217   5.318   5.903
10870TIP3    H232552   3.082   5.374   5.942
10871TIP3   OH232553   7.910   1.551   3.141
10871TIP3    H132554   7.863   1.471   3.118
10871TIP3    H232555   7.853   1.595   3.204
10872TIP3   OH232556   3.787   3.944   5.705
10872TIP3    H132557   3.873   3.933   5.746
10872TIP3    H232558   3.747   3.857   5.708
10873TIP3   OH232559   2.768   3.418   5.898
10873TIP3    H132560   2.844   3.363   5.876
10873TIP3    H232561   2.738   3.453   5.814
10874TIP3   OH232562   6.010   3.968   6.783
10874TIP3    H132563   6.031   4.042   6.726
10874TIP3    H232564   5.924   3.937   6.751
10875TIP3   OH232565   3.885   2.500   5.958
10875TIP3    H132566   3.972   2.471   5.987
10875TIP3    H232567   3.824   2.458   6.018
10876TIP3   OH232568  -0.029   6.980   1.894
10876TIP3    H132569  -0.036   6.967   1.989
10876TIP3    H232570   0.038   7.048   1.885
10877TIP3   OH232571   1.591   0.032   4.330
10877TIP3    H132572   1.600   0.127   4.328
10877TIP3    H232573   1.603   0.005   4.239
10878TIP3   OH232574   5.951   3.624   2.872
10878TIP3    H132575   5.951   3.703   2.818
10878TIP3    H232576   5.883   3.569   2.834
10879TIP3   OH232577   1.363   5.428   5.104
10879TIP3    H132578   1.311   5.349   5.090
10879TIP3    H232579   1.340   5.456   5.193
10880TIP3   OH232580   2.433   5.412   6.708
10880TIP3    H132581   2.340   5.399   6.687
10880TIP3    H232582   2.433   5.477   6.778
10881TIP3   OH232583   6.975   3.798   4.053
10881TIP3    H132584   6.920   3.875   4.038
10881TIP3    H232585   7.059   3.820   4.012
10882TIP3   OH232586   7.293   7.847   5.493
10882TIP3    H132587   7.238   7.791   5.548
10882TIP3    H232588   7.261   7.833   5.404
10883TIP3   OH232589   6.290   4.637   5.506
10883TIP3    H132590   6.330   4.630   5.420
10883TIP3    H232591   6.207   4.591   5.498
10884TIP3   OH232592   5.201   6.862   5.934
10884TIP3    H132593   5.245   6.816   6.005
10884TIP3    H232594   5.251   6.943   5.923
10885TIP3   OH232595   0.020   5.928   0.892
10885TIP3    H132596  -0.060   5.976   0.916
10885TIP3    H232597   0.074   5.931   0.970
10886TIP3   OH232598   5.715   0.068   0.898
10886TIP3    H132599   5.629   0.107   0.907
10886TIP3    H232600   5.707  -0.019   0.938
10887TIP3   OH232601   5.355   4.478   2.393
10887TIP3    H132602   5.341   4.557   2.445
10887TIP3    H232603   5.390   4.414   2.456
10888TIP3   OH232604   6.234   3.519   5.056
10888TIP3    H132605   6.256   3.459   5.128
10888TIP3    H232606   6.316   3.565   5.037
10889TIP3   OH232607   6.381   4.808   5.699
10889TIP3    H132608   6.385   4.882   5.639
10889TIP3    H232609   6.359   4.733   5.643
10890TIP3   OH232610   5.599   1.430   2.026
10890TIP3    H132611   5.583   1.342   1.992
10890TIP3    H232612   5.625   1.481   1.948
10891TIP3   OH232613   7.822   7.256   4.905
10891TIP3    H132614   7.787   7.344   4.917
10891TIP3    H232615   7.836   7.223   4.993
10892TIP3   OH232616   3.804   0.213   0.211
10892TIP3    H132617   3.809   0.238   0.119
10892TIP3    H232618   3.814   0.117   0.211
10893TIP3   OH232619   3.053   2.696   5.657
10893TIP3    H132620   2.958   2.706   5.666
10893TIP3    H232621   3.089   2.742   5.732
10894TIP3   OH232622   5.053   7.265   0.062
10894TIP3    H132623   4.965   7.282   0.096
10894TIP3    H232624   5.101   7.228   0.136
10895TIP3   OH232625   2.030   0.459   2.290
10895TIP3    H132626   2.019   0.511   2.211
10895TIP3    H232627   1.955   0.483   2.345
10896TIP3   OH232628   3.807   1.248   0.294
10896TIP3    H132629   3.888   1.253   0.343
10896TIP3    H232630   3.742   1.215   0.356
10897TIP3   OH232631   5.930   3.791   2.601
10897TIP3    H132632   5.974   3.837   2.530
10897TIP3    H232633   5.868   3.732   2.557
10898TIP3   OH232634   7.051   3.799   3.031
10898TIP3    H132635   7.027   3.840   2.948
10898TIP3    H232636   7.073   3.709   3.008
10899TIP3   OH232637   0.063   7.333   5.940
10899TIP3    H132638   0.021   7.248   5.925
10899TIP3    H232639  -0.008   7.392   5.962
10900TIP3   OH232640   4.668   7.025   1.392
10900TIP3    H132641   4.717   6.977   1.458
10900TIP3    H232642   4.594   7.063   1.439
10901TIP3   OH232643   3.647   2.525   1.784
10901TIP3    H132644   3.629   2.581   1.859
10901TIP3    H232645   3.573   2.464   1.782
10902TIP3   OH232646   5.494   1.311   6.488
10902TIP3    H132647   5.462   1.357   6.410
10902TIP3    H232648   5.432   1.337   6.557
10903TIP3   OH232649   4.940   0.326   0.680
10903TIP3    H132650   4.888   0.254   0.646
10903TIP3    H232651   5.013   0.335   0.618
10904TIP3   OH232652   4.204   4.940   0.349
10904TIP3    H132653   4.292   4.911   0.372
10904TIP3    H232654   4.170   4.979   0.430
10905TIP3   OH232655   3.620   7.394   0.103
10905TIP3    H132656   3.712   7.418   0.113
10905TIP3    H232657   3.601   7.408   0.010
10906TIP3   OH232658   3.569   4.958   2.122
10906TIP3    H132659   3.645   4.996   2.166
10906TIP3    H232660   3.595   4.868   2.104
10907TIP3   OH232661   7.823   5.221   6.449
10907TIP3    H132662   7.842   5.130   6.427
10907TIP3    H232663   7.791   5.218   6.539
10908TIP3   OH232664   4.931   6.119   0.936
10908TIP3    H132665   5.010   6.128   0.990
10908TIP3    H232666   4.864   6.089   0.997
10909TIP3   OH232667   1.854   3.771   0.042
10909TIP3    H132668   1.796   3.773   0.117
10909TIP3    H232669   1.802   3.730  -0.028
10910TIP3   OH232670   1.063   5.938   5.236
10910TIP3    H132671   1.107   5.896   5.162
10910TIP3    H232672   1.133   5.954   5.299
10911TIP3   OH232673   2.357   2.791   3.876
10911TIP3    H132674   2.410   2.763   3.950
10911TIP3    H232675   2.404   2.865   3.839
10912TIP3   OH232676   4.777   4.883   0.784
10912TIP3    H132677   4.749   4.795   0.810
10912TIP3    H232678   4.696   4.931   0.770
10913TIP3   OH232679   4.251   0.298   4.356
10913TIP3    H132680   4.197   0.357   4.410
10913TIP3    H232681   4.224   0.211   4.383
10914TIP3   OH232682   3.531   0.016   3.156
10914TIP3    H132683   3.601   0.079   3.137
10914TIP3    H232684   3.538  -0.049   3.087
10915TIP3   OH232685   8.125   5.861   2.043
10915TIP3    H132686   8.214   5.885   2.019
10915TIP3    H232687   8.114   5.899   2.131
10916TIP3   OH232688   3.412   2.011   6.498
10916TIP3    H132689   3.377   2.100   6.492
10916TIP3    H232690   3.359   1.968   6.565
10917TIP3   OH232691   6.172   1.498   1.169
10917TIP3    H132692   6.266   1.511   1.154
10917TIP3    H232693   6.141   1.459   1.088
10918TIP3   OH232694   6.806   6.660   4.894
10918TIP3    H132695   6.864   6.584   4.881
10918TIP3    H232696   6.734   6.645   4.833
10919TIP3   OH232697   5.233   5.584   6.202
10919TIP3    H132698   5.155   5.558   6.154
10919TIP3    H232699   5.250   5.512   6.262
10920TIP3   OH232700   0.148   1.579   0.382
10920TIP3    H132701   0.096   1.580   0.462
10920TIP3    H232702   0.168   1.671   0.365
10921TIP3   OH232703   5.552   6.588   3.940
10921TIP3    H132704   5.586   6.653   4.002
10921TIP3    H232705   5.614   6.592   3.866
10922TIP3   OH232706   2.393   2.945   5.056
10922TIP3    H132707   2.438   2.870   5.093
10922TIP3    H232708   2.458   3.016   5.058
10923TIP3   OH232709   5.403   1.579   5.490
10923TIP3    H132710   5.416   1.542   5.577
10923TIP3    H232711   5.488   1.617   5.466
10924TIP3   OH232712   5.800   7.092   3.407
10924TIP3    H132713   5.805   7.164   3.470
10924TIP3    H232714   5.786   7.135   3.322
10925TIP3   OH232715   0.773   1.576   0.665
10925TIP3    H132716   0.788   1.584   0.571
10925TIP3    H232717   0.860   1.564   0.702
10926TIP3   OH232718   4.334   7.551   3.190
10926TIP3    H132719   4.260   7.593   3.234
10926TIP3    H232720   4.397   7.534   3.260
10927TIP3   OH232721   0.764   3.506   6.352
10927TIP3    H132722   0.733   3.487   6.440
10927TIP3    H232723   0.691   3.549   6.309
10928TIP3   OH232724   3.163   4.478   4.730
10928TIP3    H132725   3.241   4.454   4.780
10928TIP3    H232726   3.102   4.405   4.744
10929TIP3   OH232727   6.921   1.313   6.561
10929TIP3    H132728   6.837   1.288   6.601
10929TIP3    H232729   6.900   1.324   6.468
10930TIP3   OH232730   1.124   5.373   0.325
10930TIP3    H132731   1.200   5.428   0.344
10930TIP3    H232732   1.098   5.339   0.411
10931TIP3   OH232733   8.290   6.513   2.002
10931TIP3    H132734   8.317   6.520   1.910
10931TIP3    H232735   8.197   6.536   2.002
10932TIP3   OH232736   8.012   1.692   1.822
10932TIP3    H132737   7.982   1.698   1.732
10932TIP3    H232738   8.039   1.601   1.832
10933TIP3   OH232739   7.328   6.630   3.228
10933TIP3    H132740   7.367   6.652   3.313
10933TIP3    H232741   7.237   6.658   3.236
10934TIP3   OH232742   1.645   2.699   6.307
10934TIP3    H132743   1.688   2.703   6.222
10934TIP3    H232744   1.560   2.741   6.293
10935TIP3   OH232745   7.841   6.470   0.996
10935TIP3    H132746   7.848   6.562   0.970
10935TIP3    H232747   7.757   6.441   0.959
10936TIP3   OH232748   1.443   0.615   5.998
10936TIP3    H132749   1.402   0.679   6.056
10936TIP3    H232750   1.434   0.652   5.911
10937TIP3   OH232751   0.821   3.797   3.348
10937TIP3    H132752   0.886   3.730   3.363
10937TIP3    H232753   0.752   3.753   3.298
10938TIP3   OH232754   0.507   2.507   1.881
10938TIP3    H132755   0.506   2.479   1.790
10938TIP3    H232756   0.417   2.532   1.900
10939TIP3   OH232757   5.917   6.341   0.184
10939TIP3    H132758   5.921   6.413   0.121
10939TIP3    H232759   6.009   6.327   0.209
10940TIP3   OH232760   6.431   7.889   6.427
10940TIP3    H132761   6.428   7.926   6.339
10940TIP3    H232762   6.427   7.794   6.414
10941TIP3   OH232763   3.009   1.398   3.454
10941TIP3    H132764   2.928   1.432   3.492
10941TIP3    H232765   2.980   1.331   3.392
10942TIP3   OH232766   6.135   1.236   6.101
10942TIP3    H132767   6.140   1.200   6.189
10942TIP3    H232768   6.078   1.313   6.109
10943TIP3   OH232769   2.905   2.416   2.418
10943TIP3    H132770   2.976   2.437   2.478
10943TIP3    H232771   2.854   2.349   2.463
10944TIP3   OH232772   0.402   7.773   3.158
10944TIP3    H132773   0.467   7.804   3.221
10944TIP3    H232774   0.353   7.852   3.134
10945TIP3   OH232775   8.195   1.494   2.350
10945TIP3    H132776   8.290   1.486   2.356
10945TIP3    H232777   8.180   1.581   2.314
10946TIP3   OH232778   6.018   2.567   5.330
10946TIP3    H132779   6.078   2.613   5.388
10946TIP3    H232780   6.031   2.474   5.352
10947TIP3   OH232781   7.081   5.873   3.850
10947TIP3    H132782   7.097   5.965   3.828
10947TIP3    H232783   6.990   5.858   3.828
10948TIP3   OH232784   2.900   0.229   3.847
10948TIP3    H132785   2.855   0.298   3.797
10948TIP3    H232786   2.856   0.148   3.821
10949TIP3   OH232787   6.011   6.574   3.168
10949TIP3    H132788   6.073   6.505   3.191
10949TIP3    H232789   6.063   6.638   3.119
10950TIP3   OH232790  -0.008   4.938   4.665
10950TIP3    H132791   0.080   4.901   4.660
10950TIP3    H232792   0.000   5.024   4.622
10951TIP3   OH232793   4.128   2.528   3.243
10951TIP3    H132794   4.132   2.528   3.148
10951TIP3    H232795   4.108   2.437   3.266
10952TIP3   OH232796   6.673   3.206   2.846
10952TIP3    H132797   6.764   3.178   2.846
10952TIP3    H232798   6.646   3.202   2.754
10953TIP3   OH232799   2.980   0.477   0.929
10953TIP3    H132800   2.943   0.548   0.876
10953TIP3    H232801   3.046   0.437   0.873
10954TIP3   OH232802   5.977   4.066   2.103
10954TIP3    H132803   5.919   4.134   2.069
10954TIP3    H232804   6.012   4.023   2.025
10955TIP3   OH232805   5.936   2.454   2.930
10955TIP3    H132806   5.885   2.444   3.010
10955TIP3    H232807   6.016   2.498   2.958
10956TIP3   OH232808   3.081   3.382   0.533
10956TIP3    H132809   3.104   3.303   0.582
10956TIP3    H232810   3.082   3.354   0.441
10957TIP3   OH232811   1.982   1.003   5.512
10957TIP3    H132812   2.066   1.028   5.552
10957TIP3    H232813   2.007   0.955   5.433
10958TIP3   OH232814   0.519   4.429   0.068
10958TIP3    H132815   0.454   4.365   0.037
10958TIP3    H232816   0.501   4.507   0.015
10959TIP3   OH232817   0.361   5.096   4.711
10959TIP3    H132818   0.378   5.106   4.805
10959TIP3    H232819   0.446   5.073   4.674
10960TIP3   OH232820   1.859   3.559   0.926
10960TIP3    H132821   1.874   3.512   1.008
10960TIP3    H232822   1.845   3.491   0.861
10961TIP3   OH232823   4.217   2.298   1.381
10961TIP3    H132824   4.147   2.357   1.410
10961TIP3    H232825   4.198   2.283   1.288
10962TIP3   OH232826   8.318   5.730   0.688
10962TIP3    H132827   8.376   5.660   0.658
10962TIP3    H232828   8.340   5.743   0.780
10963TIP3   OH232829   0.417   7.034   6.169
10963TIP3    H132830   0.462   7.117   6.156
10963TIP3    H232831   0.441   7.007   6.258
10964TIP3   OH232832   6.929   4.140   3.483
10964TIP3    H132833   6.978   4.220   3.502
10964TIP3    H232834   6.991   4.069   3.500
10965TIP3   OH232835   8.378   1.917   2.793
10965TIP3    H132836   8.336   1.954   2.715
10965TIP3    H232837   8.355   1.824   2.789
10966TIP3   OH232838   4.137   4.550   2.547
10966TIP3    H132839   4.083   4.472   2.550
10966TIP3    H232840   4.225   4.518   2.527
10967TIP3   OH232841   6.305   5.935   2.415
10967TIP3    H132842   6.293   5.891   2.499
10967TIP3    H232843   6.227   5.990   2.405
10968TIP3   OH232844   6.266   5.774   6.805
10968TIP3    H132845   6.269   5.709   6.734
10968TIP3    H232846   6.301   5.728   6.881
10969TIP3   OH232847   6.008   3.557   1.189
10969TIP3    H132848   6.008   3.590   1.099
10969TIP3    H232849   6.094   3.517   1.199
10970TIP3   OH232850   7.214   6.712   5.084
10970TIP3    H132851   7.278   6.678   5.021
10970TIP3    H232852   7.132   6.718   5.034
10971TIP3   OH232853   7.247   7.605   1.098
10971TIP3    H132854   7.309   7.674   1.074
10971TIP3    H232855   7.162   7.649   1.103
10972TIP3   OH232856   7.139   6.547   4.670
10972TIP3    H132857   7.168   6.622   4.619
10972TIP3    H232858   7.132   6.476   4.606
10973TIP3   OH232859   4.731   6.846   2.104
10973TIP3    H132860   4.750   6.937   2.124
10973TIP3    H232861   4.643   6.848   2.064
10974TIP3   OH232862   6.592   6.740   4.083
10974TIP3    H132863   6.521   6.715   4.024
10974TIP3    H232864   6.666   6.686   4.055
10975TIP3   OH232865   4.011   6.949   2.934
10975TIP3    H132866   4.052   6.972   3.018
10975TIP3    H232867   3.932   7.002   2.931
10976TIP3   OH232868   4.017   2.836   1.145
10976TIP3    H132869   4.010   2.774   1.072
10976TIP3    H232870   4.016   2.922   1.104
10977TIP3   OH232871   3.333   0.169   2.745
10977TIP3    H132872   3.314   0.214   2.827
10977TIP3    H232873   3.329   0.237   2.678
10978TIP3   OH232874   5.978   3.109   1.288
10978TIP3    H132875   5.953   3.199   1.310
10978TIP3    H232876   5.914   3.055   1.335
10979TIP3   OH232877   0.898   7.631   2.739
10979TIP3    H132878   0.828   7.613   2.802
10979TIP3    H232879   0.977   7.596   2.781
10980TIP3   OH232880   6.713   1.510   1.250
10980TIP3    H132881   6.733   1.416   1.251
10980TIP3    H232882   6.753   1.544   1.330
10981TIP3   OH232883   0.283   5.825   4.253
10981TIP3    H132884   0.199   5.870   4.261
10981TIP3    H232885   0.343   5.876   4.307
10982TIP3   OH232886   5.734   7.261   3.213
10982TIP3    H132887   5.689   7.345   3.223
10982TIP3    H232888   5.664   7.199   3.193
10983TIP3   OH232889   5.079   7.682   3.067
10983TIP3    H132890   5.168   7.717   3.063
10983TIP3    H232891   5.023   7.758   3.080
10984TIP3   OH232892   5.220   5.026   1.670
10984TIP3    H132893   5.179   4.940   1.679
10984TIP3    H232894   5.262   5.041   1.755
10985TIP3   OH232895   4.104   7.340   3.891
10985TIP3    H132896   4.009   7.351   3.880
10985TIP3    H232897   4.125   7.392   3.968
10986TIP3   OH232898   1.180   5.832   3.184
10986TIP3    H132899   1.157   5.877   3.102
10986TIP3    H232900   1.096   5.825   3.231
10987TIP3   OH232901   2.502   3.657   0.231
10987TIP3    H132902   2.418   3.649   0.275
10987TIP3    H232903   2.488   3.724   0.164
10988TIP3   OH232904   1.420   6.304   5.748
10988TIP3    H132905   1.508   6.306   5.711
10988TIP3    H232906   1.427   6.351   5.830
10989TIP3   OH232907   4.050   5.601   3.060
10989TIP3    H132908   4.104   5.532   3.021
10989TIP3    H232909   4.028   5.659   2.987
10990TIP3   OH232910   1.193   4.141   5.841
10990TIP3    H132911   1.248   4.143   5.762
10990TIP3    H232912   1.227   4.067   5.892
10991TIP3   OH232913   0.462   6.615   4.825
10991TIP3    H132914   0.504   6.606   4.739
10991TIP3    H232915   0.369   6.599   4.808
10992TIP3   OH232916   7.870   1.446   6.095
10992TIP3    H132917   7.845   1.478   6.181
10992TIP3    H232918   7.788   1.445   6.045
10993TIP3   OH232919   3.835   7.317   3.868
10993TIP3    H132920   3.784   7.341   3.946
10993TIP3    H232921   3.781   7.252   3.823
10994TIP3   OH232922   0.752   0.312   6.762
10994TIP3    H132923   0.709   0.252   6.701
10994TIP3    H232924   0.712   0.292   6.847
10995TIP3   OH232925   0.260   5.981   3.668
10995TIP3    H132926   0.354   5.994   3.664
10995TIP3    H232927   0.223   6.055   3.620
10996TIP3   OH232928   2.397   5.418   5.435
10996TIP3    H132929   2.392   5.483   5.505
10996TIP3    H232930   2.369   5.465   5.356
10997TIP3   OH232931   1.691   0.832   6.281
10997TIP3    H132932   1.670   0.750   6.236
10997TIP3    H232933   1.738   0.885   6.216
10998TIP3   OH232934   4.398   5.536   0.444
10998TIP3    H132935   4.421   5.607   0.385
10998TIP3    H232936   4.358   5.579   0.519
10999TIP3   OH232937   0.901   6.973   6.667
10999TIP3    H132938   0.875   7.027   6.592
10999TIP3    H232939   0.977   7.017   6.704
11000TIP3   OH232940   2.166   4.400   3.841
11000TIP3    H132941   2.106   4.466   3.806
11000TIP3    H232942   2.240   4.450   3.873
11001TIP3   OH232943   0.815   2.526   3.779
11001TIP3    H132944   0.844   2.442   3.744
11001TIP3    H232945   0.893   2.581   3.778
11002TIP3   OH232946   7.151   7.866   0.224
11002TIP3    H132947   7.224   7.859   0.286
11002TIP3    H232948   7.104   7.783   0.233
11003TIP3   OH232949   4.513   0.030   1.156
11003TIP3    H132950   4.526   0.083   1.235
11003TIP3    H232951   4.595   0.042   1.106
11004TIP3   OH232952   7.937   7.376   0.914
11004TIP3    H132953   7.978   7.312   0.856
11004TIP3    H232954   8.001   7.446   0.920
11005TIP3   OH232955   6.327   0.671   2.681
11005TIP3    H132956   6.380   0.743   2.646
11005TIP3    H232957   6.295   0.704   2.765
11006TIP3   OH232958   3.248   0.987   5.607
11006TIP3    H132959   3.235   1.021   5.519
11006TIP3    H232960   3.207   0.900   5.605
11007TIP3   OH232961   1.633   6.067   2.823
11007TIP3    H132962   1.599   5.988   2.865
11007TIP3    H232963   1.724   6.072   2.851
11008TIP3   OH232964   0.862   1.695   2.943
11008TIP3    H132965   0.909   1.649   3.013
11008TIP3    H232966   0.806   1.758   2.989
11009TIP3   OH232967   8.266   7.658   2.063
11009TIP3    H132968   8.171   7.643   2.057
11009TIP3    H232969   8.281   7.737   2.013
11010TIP3   OH232970   6.463   2.960   0.921
11010TIP3    H132971   6.552   2.974   0.953
11010TIP3    H232972   6.414   2.930   0.998
11011TIP3   OH232973   5.787   2.531   6.588
11011TIP3    H132974   5.704   2.491   6.559
11011TIP3    H232975   5.825   2.466   6.647
11012TIP3   OH232976   0.243   1.870   4.579
11012TIP3    H132977   0.322   1.822   4.557
11012TIP3    H232978   0.224   1.923   4.502
11013TIP3   OH232979   4.824   1.510   2.054
11013TIP3    H132980   4.793   1.567   2.124
11013TIP3    H232981   4.898   1.463   2.092
11014TIP3   OH232982   4.628   4.333   2.755
11014TIP3    H132983   4.595   4.249   2.724
11014TIP3    H232984   4.669   4.373   2.678
11015TIP3   OH232985   3.037   4.832   5.886
11015TIP3    H132986   3.125   4.830   5.851
11015TIP3    H232987   3.027   4.920   5.923
11016TIP3   OH232988   5.960   6.455   6.675
11016TIP3    H132989   5.975   6.536   6.626
11016TIP3    H232990   6.006   6.388   6.626
11017TIP3   OH232991   6.268   5.239   5.531
11017TIP3    H132992   6.272   5.230   5.626
11017TIP3    H232993   6.344   5.291   5.508
11018TIP3   OH232994   4.424   3.584   4.955
11018TIP3    H132995   4.355   3.533   4.912
11018TIP3    H232996   4.417   3.560   5.047
11019TIP3   OH232997   1.453   0.198   0.763
11019TIP3    H132998   1.535   0.148   0.764
11019TIP3    H232999   1.480   0.288   0.748
11020TIP3   OH233000   0.542   4.501   4.933
11020TIP3    H133001   0.524   4.595   4.924
11020TIP3    H233002   0.537   4.485   5.027
11021TIP3   OH233003   0.735   4.105   2.233
11021TIP3    H133004   0.673   4.098   2.305
11021TIP3    H233005   0.793   4.030   2.244
11022TIP3   OH233006   0.321   4.857   6.717
11022TIP3    H133007   0.287   4.845   6.628
11022TIP3    H233008   0.398   4.801   6.722
11023TIP3   OH233009   3.146   6.656   3.328
11023TIP3    H133010   3.101   6.579   3.292
11023TIP3    H233011   3.239   6.636   3.316
11024TIP3   OH233012   6.652   4.402   3.952
11024TIP3    H133013   6.601   4.463   3.898
11024TIP3    H233014   6.685   4.456   4.024
11025TIP3   OH233015   5.740   1.909   4.863
11025TIP3    H133016   5.812   1.948   4.913
11025TIP3    H233017   5.661   1.934   4.911
11026TIP3   OH233018   2.185   3.552   4.771
11026TIP3    H133019   2.248   3.606   4.819
11026TIP3    H233020   2.237   3.479   4.737
11027TIP3   OH233021   1.639   6.119   2.435
11027TIP3    H133022   1.580   6.141   2.508
11027TIP3    H233023   1.593   6.150   2.357
11028TIP3   OH233024   2.039   6.395   6.602
11028TIP3    H133025   2.134   6.401   6.590
11028TIP3    H233026   2.004   6.460   6.541
11029TIP3   OH233027   2.183   7.816   6.353
11029TIP3    H133028   2.099   7.842   6.390
11029TIP3    H233029   2.206   7.886   6.292
11030TIP3   OH233030   0.681   5.860   4.124
11030TIP3    H133031   0.768   5.834   4.155
11030TIP3    H233032   0.648   5.783   4.077
11031TIP3   OH233033   8.042   2.156   3.276
11031TIP3    H133034   8.039   2.069   3.236
11031TIP3    H233035   7.955   2.168   3.313
11032TIP3   OH233036   0.882   5.638   0.208
11032TIP3    H133037   0.936   5.563   0.187
11032TIP3    H233038   0.841   5.662   0.125
11033TIP3   OH233039   7.145   3.129   0.453
11033TIP3    H133040   7.092   3.096   0.380
11033TIP3    H233041   7.226   3.080   0.449
11034TIP3   OH233042   2.211   3.351   1.835
11034TIP3    H133043   2.257   3.402   1.768
11034TIP3    H233044   2.122   3.386   1.835
11035TIP3   OH233045   0.410   7.712   5.488
11035TIP3    H133046   0.466   7.647   5.446
11035TIP3    H233047   0.363   7.664   5.555
11036TIP3   OH233048   5.242   3.128   6.478
11036TIP3    H133049   5.226   3.208   6.528
11036TIP3    H233050   5.332   3.138   6.446
11037TIP3   OH233051   5.665   4.410   4.286
11037TIP3    H133052   5.653   4.351   4.361
11037TIP3    H233053   5.584   4.402   4.236
11038TIP3   OH233054   6.617   0.730   6.654
11038TIP3    H133055   6.538   0.675   6.659
11038TIP3    H233056   6.690   0.668   6.656
11039TIP3   OH233057   2.929   4.020   5.590
11039TIP3    H133058   2.863   4.028   5.659
11039TIP3    H233059   2.979   4.101   5.596
11040TIP3   OH233060   1.245   2.351   5.050
11040TIP3    H133061   1.324   2.302   5.070
11040TIP3    H233062   1.189   2.290   5.002
11041TIP3   OH233063   4.244   7.839   1.651
11041TIP3    H133064   4.173   7.791   1.693
11041TIP3    H233065   4.215   7.930   1.650
11042TIP3   OH233066   1.729   4.628   3.344
11042TIP3    H133067   1.665   4.608   3.276
11042TIP3    H233068   1.811   4.591   3.311
11043TIP3   OH233069   8.071   3.175   2.589
11043TIP3    H133070   8.065   3.083   2.562
11043TIP3    H233071   8.124   3.217   2.521
11044TIP3   OH233072   1.116   4.702   4.985
11044TIP3    H133073   1.057   4.648   5.038
11044TIP3    H233074   1.113   4.662   4.898
11045TIP3   OH233075   0.538   3.152   4.729
11045TIP3    H133076   0.502   3.083   4.673
11045TIP3    H233077   0.611   3.111   4.775
11046TIP3   OH233078   7.329   7.401   5.688
11046TIP3    H133079   7.326   7.308   5.709
11046TIP3    H233080   7.294   7.406   5.599
11047TIP3   OH233081   6.676   0.604   3.421
11047TIP3    H133082   6.762   0.565   3.434
11047TIP3    H233083   6.617   0.548   3.472
11048TIP3   OH233084   4.874   1.425   4.246
11048TIP3    H133085   4.802   1.383   4.198
11048TIP3    H233086   4.903   1.496   4.189
11049TIP3   OH233087   2.352   1.543   5.420
11049TIP3    H133088   2.288   1.611   5.440
11049TIP3    H233089   2.404   1.579   5.348
11050TIP3   OH233090   7.023   4.108   2.251
11050TIP3    H133091   7.117   4.118   2.232
11050TIP3    H233092   7.008   4.164   2.327
11051TIP3   OH233093   5.719   0.680   1.030
11051TIP3    H133094   5.653   0.682   1.099
11051TIP3    H233095   5.799   0.712   1.072
11052TIP3   OH233096   8.314   1.949   0.295
11052TIP3    H133097   8.220   1.937   0.304
11052TIP3    H233098   8.339   1.894   0.221
11053TIP3   OH233099   4.035   7.625   6.049
11053TIP3    H133100   4.018   7.719   6.057
11053TIP3    H233101   4.104   7.608   6.113
11054TIP3   OH233102   2.059   0.691   0.515
11054TIP3    H133103   2.000   0.762   0.488
11054TIP3    H233104   2.023   0.662   0.599
11055TIP3   OH233105   7.970   5.168   4.641
11055TIP3    H133106   8.062   5.173   4.666
11055TIP3    H233107   7.964   5.090   4.587
11056TIP3   OH233108   4.956   6.319   6.180
11056TIP3    H133109   4.923   6.229   6.184
11056TIP3    H233110   4.883   6.369   6.143
11057TIP3   OH233111   7.557   2.745   0.989
11057TIP3    H133112   7.487   2.683   0.970
11057TIP3    H233113   7.514   2.830   0.997
11058TIP3   OH233114   5.541   6.959   0.269
11058TIP3    H133115   5.485   6.998   0.202
11058TIP3    H233116   5.608   6.912   0.220
11059TIP3   OH233117   0.938   6.655   6.190
11059TIP3    H133118   0.911   6.655   6.282
11059TIP3    H233119   0.937   6.562   6.165
11060TIP3   OH233120   3.334   7.821   4.052
11060TIP3    H133121   3.278   7.880   4.002
11060TIP3    H233122   3.405   7.876   4.084
11061TIP3   OH233123   3.655   3.650   4.469
11061TIP3    H133124   3.696   3.707   4.534
11061TIP3    H233125   3.710   3.572   4.467
11062TIP3   OH233126   5.206   2.450   4.074
11062TIP3    H133127   5.258   2.403   4.008
11062TIP3    H233128   5.221   2.543   4.054
11063TIP3   OH233129   6.638   5.770   6.514
11063TIP3    H133130   6.631   5.839   6.448
11063TIP3    H233131   6.582   5.699   6.481
11064TIP3   OH233132   1.208   6.276   0.068
11064TIP3    H133133   1.210   6.369   0.046
11064TIP3    H233134   1.226   6.231  -0.014
11065TIP3   OH233135   5.580   4.420   0.368
11065TIP3    H133136   5.519   4.489   0.395
11065TIP3    H233137   5.620   4.453   0.288
11066TIP3   OH233138   4.786   3.429   1.637
11066TIP3    H133139   4.752   3.495   1.576
11066TIP3    H233140   4.722   3.358   1.633
11067TIP3   OH233141   1.487   7.365   6.697
11067TIP3    H133142   1.509   7.440   6.643
11067TIP3    H233143   1.557   7.301   6.681
11068TIP3   OH233144   4.848   1.452   5.727
11068TIP3    H133145   4.826   1.373   5.778
11068TIP3    H233146   4.861   1.420   5.638
11069TIP3   OH233147   3.329   3.124   6.481
11069TIP3    H133148   3.285   3.154   6.560
11069TIP3    H233149   3.393   3.193   6.460
11070TIP3   OH233150   6.073   7.491   1.671
11070TIP3    H133151   6.027   7.523   1.593
11070TIP3    H233152   6.059   7.559   1.737
11071TIP3   OH233153   3.791   6.113   4.382
11071TIP3    H133154   3.845   6.177   4.429
11071TIP3    H233155   3.713   6.162   4.357
11072TIP3   OH233156   2.383   7.432   5.530
11072TIP3    H133157   2.426   7.372   5.590
11072TIP3    H233158   2.334   7.376   5.470
11073TIP3   OH233159   4.648   5.716   0.594
11073TIP3    H133160   4.713   5.654   0.562
11073TIP3    H233161   4.689   5.757   0.671
11074TIP3   OH233162   8.137   4.506   0.821
11074TIP3    H133163   8.192   4.427   0.817
11074TIP3    H233164   8.156   4.553   0.740
11075TIP3   OH233165   4.270   0.614   4.783
11075TIP3    H133166   4.218   0.534   4.778
11075TIP3    H233167   4.253   0.660   4.700
11076TIP3   OH233168   7.775   6.765   2.663
11076TIP3    H133169   7.856   6.732   2.701
11076TIP3    H233170   7.706   6.727   2.717
11077TIP3   OH233171   2.053   3.156   4.670
11077TIP3    H133172   1.979   3.214   4.687
11077TIP3    H233173   2.021   3.069   4.695
11078TIP3   OH233174   3.857   4.938   4.456
11078TIP3    H133175   3.944   4.968   4.429
11078TIP3    H233176   3.796   4.993   4.406
11079TIP3   OH233177   4.145   1.777   6.550
11079TIP3    H133178   4.089   1.854   6.560
11079TIP3    H233179   4.122   1.720   6.624
11080TIP3   OH233180   0.426   5.329   3.119
11080TIP3    H133181   0.485   5.262   3.086
11080TIP3    H233182   0.455   5.410   3.077
11081TIP3   OH233183   6.152   1.811   4.668
11081TIP3    H133184   6.113   1.894   4.640
11081TIP3    H233185   6.096   1.783   4.740
11082TIP3   OH233186   2.564   7.549   5.821
11082TIP3    H133187   2.587   7.610   5.891
11082TIP3    H233188   2.504   7.487   5.862
11083TIP3   OH233189   0.720   2.923   6.880
11083TIP3    H133190   0.680   2.854   6.827
11083TIP3    H233191   0.715   3.001   6.826
11084TIP3   OH233192   8.215   3.542   4.484
11084TIP3    H133193   8.295   3.535   4.432
11084TIP3    H233194   8.240   3.514   4.572
11085TIP3   OH233195   5.735   6.587   1.917
11085TIP3    H133196   5.729   6.568   1.823
11085TIP3    H233197   5.645   6.600   1.945
11086TIP3   OH233198   1.092   3.580   1.144
11086TIP3    H133199   1.083   3.628   1.061
11086TIP3    H233200   1.138   3.499   1.120
11087TIP3   OH233201   4.288   6.576   3.142
11087TIP3    H133202   4.368   6.563   3.194
11087TIP3    H233203   4.302   6.522   3.064
11088TIP3   OH233204   5.345   5.039   1.911
11088TIP3    H133205   5.440   5.035   1.922
11088TIP3    H233206   5.312   4.966   1.962
11089TIP3   OH233207   4.523   6.370   3.995
11089TIP3    H133208   4.445   6.417   3.967
11089TIP3    H233209   4.505   6.278   3.973
11090TIP3   OH233210   1.756   2.019   2.078
11090TIP3    H133211   1.781   2.107   2.050
11090TIP3    H233212   1.746   1.970   1.996
11091TIP3   OH233213   4.143   1.044   3.001
11091TIP3    H133214   4.196   0.967   2.977
11091TIP3    H233215   4.179   1.115   2.947
11092TIP3   OH233216   8.189   7.383   4.678
11092TIP3    H133217   8.252   7.390   4.606
11092TIP3    H233218   8.113   7.339   4.638
11093TIP3   OH233219   4.012   2.348   0.289
11093TIP3    H133220   4.050   2.413   0.348
11093TIP3    H233221   3.958   2.399   0.229
11094TIP3   OH233222   3.166   4.871   0.078
11094TIP3    H133223   3.085   4.821   0.087
11094TIP3    H233224   3.139   4.962   0.091
11095TIP3   OH233225   4.784   6.932   1.615
11095TIP3    H133226   4.855   6.875   1.645
11095TIP3    H233227   4.719   6.929   1.685
11096TIP3   OH233228   6.486   4.189   4.488
11096TIP3    H133229   6.520   4.277   4.499
11096TIP3    H233230   6.554   4.132   4.523
11097TIP3   OH233231   0.021   7.651   4.894
11097TIP3    H133232   0.047   7.632   4.803
11097TIP3    H233233  -0.067   7.688   4.886
11098TIP3   OH233234   2.307   5.607   5.239
11098TIP3    H133235   2.332   5.686   5.190
11098TIP3    H233236   2.212   5.608   5.239
11099TIP3   OH233237   3.939   0.481   5.037
11099TIP3    H133238   3.978   0.546   5.096
11099TIP3    H233239   3.905   0.533   4.964
11100TIP3   OH233240   7.268   6.426   5.481
11100TIP3    H133241   7.227   6.419   5.567
11100TIP3    H233242   7.264   6.520   5.461
11101TIP3   OH233243   1.490   2.628   3.365
11101TIP3    H133244   1.552   2.631   3.438
11101TIP3    H233245   1.404   2.615   3.407
11102TIP3   OH233246   1.733   0.198   0.697
11102TIP3    H133247   1.702   0.287   0.714
11102TIP3    H233248   1.824   0.210   0.670
11103TIP3   OH233249   2.261   6.694   6.542
11103TIP3    H133250   2.239   6.664   6.454
11103TIP3    H233251   2.177   6.719   6.581
11104TIP3   OH233252   2.280   4.905   1.649
11104TIP3    H133253   2.282   4.901   1.745
11104TIP3    H233254   2.371   4.897   1.622
11105TIP3   OH233255   6.736   5.881   5.735
11105TIP3    H133256   6.770   5.815   5.796
11105TIP3    H233257   6.661   5.838   5.694
11106TIP3   OH233258   5.624   1.116   0.780
11106TIP3    H133259   5.566   1.041   0.763
11106TIP3    H233260   5.712   1.079   0.773
11107TIP3   OH233261   3.367   5.463   0.103
11107TIP3    H133262   3.350   5.445   0.195
11107TIP3    H233263   3.394   5.378   0.066
11108TIP3   OH233264   2.946   6.860   6.570
11108TIP3    H133265   3.007   6.803   6.617
11108TIP3    H233266   2.866   6.808   6.563
11109TIP3   OH233267   0.909   6.413   4.573
11109TIP3    H133268   0.985   6.371   4.613
11109TIP3    H233269   0.939   6.501   4.551
11110TIP3   OH233270   4.490   4.297   3.940
11110TIP3    H133271   4.540   4.343   3.873
11110TIP3    H233272   4.478   4.209   3.904
11111TIP3   OH233273   0.440   0.701   0.352
11111TIP3    H133274   0.362   0.752   0.332
11111TIP3    H233275   0.411   0.638   0.418
11112TIP3   OH233276   5.642   4.029   1.884
11112TIP3    H133277   5.619   4.092   1.816
11112TIP3    H233278   5.700   3.966   1.841
11113TIP3   OH233279   0.886   7.383   1.487
11113TIP3    H133280   0.929   7.393   1.572
11113TIP3    H233281   0.843   7.297   1.492
11114TIP3   OH233282   2.071   6.392   1.725
11114TIP3    H133283   2.018   6.318   1.757
11114TIP3    H233284   2.154   6.353   1.700
11115TIP3   OH233285   6.070   3.376   0.417
11115TIP3    H133286   6.130   3.424   0.360
11115TIP3    H233287   5.986   3.378   0.370
11116TIP3   OH233288   7.215   0.519   3.025
11116TIP3    H133289   7.150   0.569   3.073
11116TIP3    H233290   7.168   0.442   2.993
11117TIP3   OH233291   4.255   5.397   5.590
11117TIP3    H133292   4.189   5.445   5.541
11117TIP3    H233293   4.315   5.363   5.523
11118TIP3   OH233294   3.897   0.401   2.966
11118TIP3    H133295   3.909   0.348   2.887
11118TIP3    H233296   3.843   0.347   3.023
11119TIP3   OH233297   1.140   1.574   6.025
11119TIP3    H133298   1.205   1.628   5.981
11119TIP3    H233299   1.086   1.540   5.953
11120TIP3   OH233300   2.516   4.803   3.162
11120TIP3    H133301   2.553   4.732   3.109
11120TIP3    H233302   2.496   4.872   3.099
11121TIP3   OH233303   8.089   3.881   5.944
11121TIP3    H133304   8.170   3.908   5.987
11121TIP3    H233305   8.061   3.802   5.991
11122TIP3   OH233306   7.410   0.280   2.925
11122TIP3    H133307   7.385   0.207   2.982
11122TIP3    H233308   7.420   0.354   2.984
11123TIP3   OH233309   5.901   1.552   3.226
11123TIP3    H133310   5.951   1.609   3.168
11123TIP3    H233311   5.912   1.465   3.189
11124TIP3   OH233312   6.868   0.827   1.573
11124TIP3    H133313   6.942   0.850   1.517
11124TIP3    H233314   6.823   0.757   1.525
11125TIP3   OH233315   7.306   3.561   3.211
11125TIP3    H133316   7.350   3.502   3.150
11125TIP3    H233317   7.302   3.645   3.165
11126TIP3   OH233318   2.752   0.969   3.363
11126TIP3    H133319   2.707   0.965   3.278
11126TIP3    H233320   2.785   0.880   3.377
11127TIP3   OH233321   6.211   5.112   1.285
11127TIP3    H133322   6.198   5.204   1.260
11127TIP3    H233323   6.227   5.067   1.202
11128TIP3   OH233324   7.617   0.592   1.738
11128TIP3    H133325   7.575   0.675   1.758
11128TIP3    H233326   7.616   0.587   1.643
11129TIP3   OH233327   0.946   6.649   1.680
11129TIP3    H133328   0.871   6.699   1.713
11129TIP3    H233329   0.935   6.562   1.718
11130TIP3   OH233330   1.920   0.505   0.715
11130TIP3    H133331   1.913   0.446   0.790
11130TIP3    H233332   1.951   0.449   0.644
11131TIP3   OH233333   6.371   6.896   2.163
11131TIP3    H133334   6.363   6.831   2.092
11131TIP3    H233335   6.465   6.904   2.177
11132TIP3   OH233336   2.163   2.302   2.039
11132TIP3    H133337   2.250   2.331   2.012
11132TIP3    H233338   2.152   2.338   2.126
11133TIP3   OH233339   2.642   6.024   1.536
11133TIP3    H133340   2.685   6.104   1.566
11133TIP3    H233341   2.675   6.011   1.447
11134TIP3   OH233342   7.084   0.550   2.439
11134TIP3    H133343   7.139   0.609   2.388
11134TIP3    H233344   7.136   0.529   2.516
11135TIP3   OH233345   5.109   6.759   4.259
11135TIP3    H133346   5.015   6.766   4.245
11135TIP3    H233347   5.138   6.849   4.274
11136TIP3   OH233348   3.017   1.133   0.569
11136TIP3    H133349   2.940   1.159   0.519
11136TIP3    H233350   3.081   1.105   0.503
11137TIP3   OH233351   0.713   1.495   4.218
11137TIP3    H133352   0.717   1.466   4.127
11137TIP3    H233353   0.662   1.575   4.216
11138TIP3   OH233354   8.061   5.028   3.725
11138TIP3    H133355   8.001   4.961   3.695
11138TIP3    H233356   8.104   4.991   3.802
11139TIP3   OH233357   3.205   2.977   5.282
11139TIP3    H133358   3.286   2.947   5.323
11139TIP3    H233359   3.192   3.066   5.315
11140TIP3   OH233360   6.092   7.611   3.637
11140TIP3    H133361   6.023   7.675   3.653
11140TIP3    H233362   6.053   7.527   3.663
11141TIP3   OH233363   3.851   6.818   2.326
11141TIP3    H133364   3.837   6.779   2.239
11141TIP3    H233365   3.799   6.898   2.325
11142TIP3   OH233366   0.590   3.591   1.417
11142TIP3    H133367   0.558   3.506   1.386
11142TIP3    H233368   0.637   3.628   1.342
11143TIP3   OH233369   5.753   3.959   2.320
11143TIP3    H133370   5.753   3.888   2.255
11143TIP3    H233371   5.834   3.945   2.369
11144TIP3   OH233372   8.373   6.237   0.201
11144TIP3    H133373   8.331   6.287   0.271
11144TIP3    H233374   8.307   6.231   0.132
11145TIP3   OH233375   1.100   2.820   5.410
11145TIP3    H133376   1.068   2.838   5.322
11145TIP3    H233377   1.195   2.827   5.403
11146TIP3   OH233378   1.067   5.899   3.812
11146TIP3    H133379   1.035   5.898   3.722
11146TIP3    H233380   1.044   5.813   3.847
11147TIP3   OH233381   3.447   2.365   2.403
11147TIP3    H133382   3.474   2.398   2.488
11147TIP3    H233383   3.483   2.276   2.399
11148TIP3   OH233384   7.556   5.941   4.699
11148TIP3    H133385   7.622   5.916   4.635
11148TIP3    H233386   7.605   5.949   4.781
11149TIP3   OH233387   4.334   1.480   2.926
11149TIP3    H133388   4.292   1.525   3.000
11149TIP3    H233389   4.424   1.513   2.925
11150TIP3   OH233390   4.989   3.050   1.837
11150TIP3    H133391   4.964   3.142   1.848
11150TIP3    H233392   4.963   3.028   1.748
11151TIP3   OH233393   2.010   2.405   5.900
11151TIP3    H133394   1.948   2.353   5.849
11151TIP3    H233395   1.993   2.379   5.991
11152TIP3   OH233396   2.669   4.399   5.843
11152TIP3    H133397   2.626   4.476   5.806
11152TIP3    H233398   2.637   4.393   5.933
11153TIP3   OH233399   7.741   7.542   3.107
11153TIP3    H133400   7.807   7.483   3.070
11153TIP3    H233401   7.732   7.514   3.198
11154TIP3   OH233402   1.447   4.901   4.084
11154TIP3    H133403   1.441   4.962   4.011
11154TIP3    H233404   1.425   4.816   4.047
11155TIP3   OH233405   1.603   5.921   0.420
11155TIP3    H133406   1.558   5.975   0.354
11155TIP3    H233407   1.646   5.984   0.478
11156TIP3   OH233408   1.879   5.560   6.199
11156TIP3    H133409   1.841   5.596   6.279
11156TIP3    H233410   1.926   5.482   6.227
11157TIP3   OH233411   4.651   0.864   0.730
11157TIP3    H133412   4.612   0.841   0.814
11157TIP3    H233413   4.741   0.887   0.750
11158TIP3   OH233414   7.671   4.890   4.755
11158TIP3    H133415   7.747   4.839   4.728
11158TIP3    H233416   7.641   4.933   4.675
11159TIP3   OH233417   1.016   6.524   3.015
11159TIP3    H133418   0.924   6.519   2.989
11159TIP3    H233419   1.059   6.569   2.943
11160TIP3   OH233420   4.289   4.351   3.129
11160TIP3    H133421   4.199   4.318   3.135
11160TIP3    H233422   4.309   4.348   3.035
11161TIP3   OH233423   6.346   2.669   5.869
11161TIP3    H133424   6.394   2.666   5.951
11161TIP3    H233425   6.334   2.762   5.850
11162TIP3   OH233426   2.738   6.558   2.932
11162TIP3    H133427   2.743   6.637   2.987
11162TIP3    H233428   2.674   6.580   2.864
11163TIP3   OH233429   7.687   4.884   0.266
11163TIP3    H133430   7.761   4.893   0.325
11163TIP3    H233431   7.669   4.790   0.262
11164TIP3   OH233432   0.663   4.395   5.536
11164TIP3    H133433   0.711   4.477   5.521
11164TIP3    H233434   0.571   4.419   5.526
11165TIP3   OH233435   3.087   5.733   1.990
11165TIP3    H133436   3.169   5.758   1.948
11165TIP3    H233437   3.111   5.714   2.081
11166TIP3   OH233438   0.369   3.899   2.608
11166TIP3    H133439   0.340   3.939   2.526
11166TIP3    H233440   0.406   3.815   2.581
11167TIP3   OH233441   2.568   6.073   5.035
11167TIP3    H133442   2.589   6.090   4.943
11167TIP3    H233443   2.602   6.150   5.081
11168TIP3   OH233444   2.963   6.546   5.087
11168TIP3    H133445   2.909   6.571   5.011
11168TIP3    H233446   3.051   6.577   5.065
11169TIP3   OH233447   5.878   6.524   5.266
11169TIP3    H133448   5.926   6.444   5.244
11169TIP3    H233449   5.911   6.589   5.204
11170TIP3   OH233450   2.951   2.456   1.581
11170TIP3    H133451   2.917   2.464   1.491
11170TIP3    H233452   2.977   2.364   1.589
11171TIP3   OH233453   1.620   5.287   0.749
11171TIP3    H133454   1.591   5.358   0.806
11171TIP3    H233455   1.538   5.245   0.721
11172TIP3   OH233456   2.035   4.330   1.226
11172TIP3    H133457   1.970   4.356   1.290
11172TIP3    H233458   2.078   4.254   1.265
11173TIP3   OH233459   5.872   2.161   6.547
11173TIP3    H133460   5.780   2.136   6.551
11173TIP3    H233461   5.907   2.112   6.472
11174TIP3   OH233462   6.807   4.496   3.694
11174TIP3    H133463   6.713   4.499   3.705
11174TIP3    H233464   6.820   4.471   3.602
11175TIP3   OH233465   3.998   6.997   6.437
11175TIP3    H133466   4.026   7.088   6.436
11175TIP3    H233467   4.049   6.956   6.367
11176TIP3   OH233468   3.477   2.396   6.595
11176TIP3    H133469   3.450   2.417   6.505
11176TIP3    H233470   3.474   2.480   6.641
11177TIP3   OH233471   5.323   2.875   5.814
11177TIP3    H133472   5.415   2.857   5.797
11177TIP3    H233473   5.312   2.968   5.791
11178TIP3   OH233474   6.380   3.486   0.029
11178TIP3    H133475   6.376   3.442  -0.056
11178TIP3    H233476   6.376   3.579   0.009
11179TIP3   OH233477   4.545   4.256   0.924
11179TIP3    H133478   4.601   4.191   0.967
11179TIP3    H233479   4.606   4.319   0.886
11180TIP3   OH233480   1.102   5.367   4.275
11180TIP3    H133481   1.024   5.419   4.296
11180TIP3    H233482   1.160   5.380   4.350
11181TIP3   OH233483   6.455   3.617   6.347
11181TIP3    H133484   6.542   3.586   6.324
11181TIP3    H233485   6.460   3.712   6.337
11182TIP3   OH233486   3.424   6.767   2.498
11182TIP3    H133487   3.397   6.688   2.545
11182TIP3    H233488   3.458   6.826   2.566
11183TIP3   OH233489   2.974   1.936   2.937
11183TIP3    H133490   3.061   1.930   2.977
11183TIP3    H233491   2.988   1.918   2.844
11184TIP3   OH233492   6.800   2.095   3.764
11184TIP3    H133493   6.716   2.082   3.720
11184TIP3    H233494   6.783   2.076   3.856
11185TIP3   OH233495   1.173   6.522   2.018
11185TIP3    H133496   1.197   6.434   1.987
11185TIP3    H233497   1.090   6.509   2.063
11186TIP3   OH233498   5.320   0.283   3.478
11186TIP3    H133499   5.273   0.296   3.396
11186TIP3    H233500   5.373   0.205   3.464
11187TIP3   OH233501   4.778   5.271   6.704
11187TIP3    H133502   4.770   5.176   6.699
11187TIP3    H233503   4.710   5.305   6.646
11188TIP3   OH233504   8.001   4.969   1.774
11188TIP3    H133505   7.916   4.985   1.816
11188TIP3    H233506   8.033   4.889   1.814
11189TIP3   OH233507   7.014   6.569   3.279
11189TIP3    H133508   6.972   6.591   3.195
11189TIP3    H233509   6.980   6.483   3.302
11190TIP3   OH233510   5.594   0.022   2.490
11190TIP3    H133511   5.508  -0.015   2.506
11190TIP3    H233512   5.577   0.107   2.449
11191TIP3   OH233513   4.860   5.302   1.755
11191TIP3    H133514   4.834   5.234   1.818
11191TIP3    H233515   4.940   5.268   1.715
11192TIP3   OH233516   0.263   1.076   0.960
11192TIP3    H133517   0.212   1.039   0.888
11192TIP3    H233518   0.350   1.036   0.952
11193TIP3   OH233519   1.620   7.552   3.476
11193TIP3    H133520   1.655   7.587   3.394
11193TIP3    H233521   1.625   7.626   3.537
11194TIP3   OH233522   7.124   2.777   6.141
11194TIP3    H133523   7.130   2.701   6.083
11194TIP3    H233524   7.162   2.747   6.224
11195TIP3   OH233525   7.026   6.083   5.722
11195TIP3    H133526   7.116   6.065   5.696
11195TIP3    H233527   7.011   6.028   5.799
11196TIP3   OH233528   8.039   5.975   0.056
11196TIP3    H133529   7.980   5.976   0.132
11196TIP3    H233530   8.114   5.923   0.086
11197TIP3   OH233531   7.958   0.512   4.725
11197TIP3    H133532   7.900   0.454   4.675
11197TIP3    H233533   8.038   0.462   4.738
11198TIP3   OH233534   7.506   2.801   4.500
11198TIP3    H133535   7.541   2.857   4.431
11198TIP3    H233536   7.470   2.726   4.454
11199TIP3   OH233537   7.256   0.728   2.324
11199TIP3    H133538   7.271   0.781   2.403
11199TIP3    H233539   7.343   0.702   2.296
11200TIP3   OH233540   1.778   6.607   4.286
11200TIP3    H133541   1.834   6.549   4.234
11200TIP3    H233542   1.839   6.655   4.342
11201TIP3   OH233543   7.474   4.787   1.469
11201TIP3    H133544   7.395   4.832   1.441
11201TIP3    H233545   7.446   4.697   1.485
11202TIP3   OH233546   5.583   0.819   5.668
11202TIP3    H133547   5.568   0.907   5.702
11202TIP3    H233548   5.566   0.826   5.574
11203TIP3   OH233549   5.002   1.096   2.372
11203TIP3    H133550   4.989   1.187   2.345
11203TIP3    H233551   4.914   1.065   2.394
11204TIP3   OH233552   3.803   5.211   3.342
11204TIP3    H133553   3.794   5.283   3.405
11204TIP3    H233554   3.898   5.205   3.327
11205TIP3   OH233555   4.566   1.086   5.060
11205TIP3    H133556   4.496   1.039   5.105
11205TIP3    H233557   4.566   1.173   5.100
11206TIP3   OH233558   6.298   0.499   0.671
11206TIP3    H133559   6.372   0.493   0.731
11206TIP3    H233560   6.267   0.589   0.680
11207TIP3   OH233561   1.718   2.419   5.148
11207TIP3    H133562   1.636   2.437   5.194
11207TIP3    H233563   1.749   2.504   5.119
11208TIP3   OH233564   2.332   0.103   6.780
11208TIP3    H133565   2.396   0.151   6.833
11208TIP3    H233566   2.265   0.168   6.758
11209TIP3   OH233567   2.580   5.186   6.610
11209TIP3    H133568   2.595   5.114   6.672
11209TIP3    H233569   2.525   5.248   6.658
11210TIP3   OH233570   4.957   2.399   6.735
11210TIP3    H133571   4.920   2.311   6.743
11210TIP3    H233572   4.887   2.451   6.695
11211TIP3   OH233573   2.527   5.019   4.522
11211TIP3    H133574   2.554   4.999   4.612
11211TIP3    H233575   2.564   5.106   4.505
11212TIP3   OH233576   3.582   4.959   0.299
11212TIP3    H133577   3.505   4.980   0.352
11212TIP3    H233578   3.598   5.039   0.248
11213TIP3   OH233579   0.862   4.180   3.852
11213TIP3    H133580   0.794   4.117   3.875
11213TIP3    H233581   0.944   4.137   3.876
11214TIP3   OH233582   5.344   7.523   1.345
11214TIP3    H133583   5.313   7.434   1.326
11214TIP3    H233584   5.266   7.569   1.377
11215TIP3   OH233585   4.883   6.980   5.038
11215TIP3    H133586   4.939   7.004   5.112
11215TIP3    H233587   4.866   6.887   5.050
11216TIP3   OH233588   6.037   1.225   2.755
11216TIP3    H133589   6.005   1.134   2.753
11216TIP3    H233590   6.049   1.248   2.663
11217TIP3   OH233591   8.110   1.623   1.382
11217TIP3    H133592   8.062   1.574   1.449
11217TIP3    H233593   8.096   1.715   1.405
11218TIP3   OH233594   3.134   4.870   2.834
11218TIP3    H133595   3.043   4.843   2.845
11218TIP3    H233596   3.161   4.831   2.751
11219TIP3   OH233597   4.264   0.967   2.708
11219TIP3    H133598   4.250   1.059   2.728
11219TIP3    H233599   4.227   0.955   2.620
11220TIP3   OH233600   0.025   3.458   3.177
11220TIP3    H133601   0.015   3.371   3.137
11220TIP3    H233602   0.119   3.474   3.177
11221TIP3   OH233603   4.145   7.139   6.078
11221TIP3    H133604   4.083   7.200   6.039
11221TIP3    H233605   4.106   7.052   6.065
11222TIP3   OH233606   7.910   5.286   6.190
11222TIP3    H133607   7.919   5.249   6.278
11222TIP3    H233608   7.817   5.308   6.183
11223TIP3   OH233609   1.143   6.866   1.647
11223TIP3    H133610   1.105   6.931   1.587
11223TIP3    H233611   1.086   6.790   1.639
11224TIP3   OH233612   4.396   2.457   5.672
11224TIP3    H133613   4.339   2.532   5.657
11224TIP3    H233614   4.339   2.381   5.667
11225TIP3   OH233615   5.482   1.979   4.929
11225TIP3    H133616   5.503   2.071   4.945
11225TIP3    H233617   5.391   1.980   4.900
11226TIP3   OH233618   7.663   5.715   0.807
11226TIP3    H133619   7.610   5.729   0.886
11226TIP3    H233620   7.614   5.759   0.738
11227TIP3   OH233621   7.217   1.357   1.386
11227TIP3    H133622   7.255   1.321   1.306
11227TIP3    H233623   7.254   1.445   1.393
11228TIP3   OH233624   5.817   3.886   5.240
11228TIP3    H133625   5.772   3.804   5.259
11228TIP3    H233626   5.808   3.898   5.146
11229TIP3   OH233627   7.611   0.969   5.500
11229TIP3    H133628   7.702   0.987   5.525
11229TIP3    H233629   7.606   0.874   5.497
11230TIP3   OH233630   0.328   4.876   2.701
11230TIP3    H133631   0.416   4.903   2.675
11230TIP3    H233632   0.304   4.936   2.771
11231TIP3   OH233633   0.735   4.537   3.439
11231TIP3    H133634   0.803   4.590   3.397
11231TIP3    H233635   0.783   4.463   3.478
11232TIP3   OH233636   0.072   0.535   5.190
11232TIP3    H133637   0.002   0.571   5.135
11232TIP3    H233638   0.101   0.610   5.243
11233TIP3   OH233639   7.065   0.102   0.301
11233TIP3    H133640   7.076   0.051   0.220
11233TIP3    H233641   6.994   0.163   0.281
11234TIP3   OH233642   8.301   5.315   6.153
11234TIP3    H133643   8.278   5.281   6.067
11234TIP3    H233644   8.261   5.253   6.215
11235TIP3   OH233645   2.359   6.711   0.926
11235TIP3    H133646   2.342   6.805   0.936
11235TIP3    H233647   2.361   6.697   0.832
11236TIP3   OH233648   2.811   0.892   1.670
11236TIP3    H133649   2.750   0.957   1.706
11236TIP3    H233650   2.758   0.842   1.608
11237TIP3   OH233651   7.968   5.717   2.845
11237TIP3    H133652   7.918   5.751   2.919
11237TIP3    H233653   8.059   5.722   2.874
11238TIP3   OH233654   1.170   6.991   3.598
11238TIP3    H133655   1.196   6.910   3.643
11238TIP3    H233656   1.194   6.976   3.507
11239TIP3   OH233657   4.222   5.387   3.448
11239TIP3    H133658   4.164   5.463   3.446
11239TIP3    H233659   4.279   5.402   3.524
11240TIP3   OH233660   0.853   5.461   3.908
11240TIP3    H133661   0.846   5.428   3.819
11240TIP3    H233662   0.877   5.384   3.960
11241TIP3   OH233663   4.472   7.486   5.400
11241TIP3    H133664   4.415   7.470   5.475
11241TIP3    H233665   4.560   7.488   5.436
11242TIP3   OH233666   0.142   3.642   0.049
11242TIP3    H133667   0.143   3.738   0.057
11242TIP3    H233668   0.211   3.612   0.107
11243TIP3   OH233669   2.266   5.019   5.781
11243TIP3    H133670   2.299   4.960   5.848
11243TIP3    H233671   2.201   4.968   5.733
11244TIP3   OH233672   0.739   4.719   2.739
11244TIP3    H133673   0.722   4.633   2.700
11244TIP3    H233674   0.834   4.728   2.737
11245TIP3   OH233675   5.154   0.187   1.772
11245TIP3    H133676   5.116   0.260   1.724
11245TIP3    H233677   5.080   0.132   1.795
11246TIP3   OH233678   3.841   0.766   4.156
11246TIP3    H133679   3.758   0.771   4.108
11246TIP3    H233680   3.872   0.856   4.159
11247TIP3   OH233681   6.670   2.208   6.581
11247TIP3    H133682   6.663   2.153   6.659
11247TIP3    H233683   6.728   2.161   6.522
11248TIP3   OH233684   1.832   7.731   6.475
11248TIP3    H133685   1.767   7.660   6.478
11248TIP3    H233686   1.780   7.810   6.490
11249TIP3   OH233687   0.211   5.883   6.809
11249TIP3    H133688   0.175   5.971   6.794
11249TIP3    H233689   0.250   5.859   6.724
11250TIP3   OH233690   3.368   0.550   5.565
11250TIP3    H133691   3.365   0.597   5.648
11250TIP3    H233692   3.309   0.475   5.578
11251TIP3   OH233693   5.588   1.871   6.778
11251TIP3    H133694   5.634   1.794   6.812
11251TIP3    H233695   5.497   1.844   6.771
11252TIP3   OH233696   6.366   0.106   0.061
11252TIP3    H133697   6.344   0.018   0.091
11252TIP3    H233698   6.449   0.096   0.015
11253TIP3   OH233699   6.318   5.202   0.084
11253TIP3    H133700   6.277   5.130   0.036
11253TIP3    H233701   6.412   5.189   0.072
11254TIP3   OH233702   0.246   2.933   0.998
11254TIP3    H133703   0.176   2.882   0.955
11254TIP3    H233704   0.323   2.877   0.990
11255TIP3   OH233705   7.711   5.838   6.042
11255TIP3    H133706   7.744   5.752   6.069
11255TIP3    H233707   7.738   5.846   5.950
11256TIP3   OH233708   2.697   1.924   0.110
11256TIP3    H133709   2.758   1.959   0.175
11256TIP3    H233710   2.691   1.991   0.043
11257TIP3   OH233711   2.789   2.185   4.398
11257TIP3    H133712   2.739   2.111   4.433
11257TIP3    H233713   2.730   2.260   4.405
11258TIP3   OH233714   5.718   3.807   0.023
11258TIP3    H133715   5.812   3.798   0.006
11258TIP3    H233716   5.688   3.717   0.038
11259TIP3   OH233717   5.576   1.351   3.314
11259TIP3    H133718   5.601   1.312   3.398
11259TIP3    H233719   5.590   1.281   3.250
11260TIP3   OH233720   7.443   4.547   4.574
11260TIP3    H133721   7.474   4.457   4.563
11260TIP3    H233722   7.352   4.544   4.546
11261TIP3   OH233723   8.105   6.782   4.931
11261TIP3    H133724   8.101   6.878   4.939
11261TIP3    H233725   8.106   6.751   5.021
11262TIP3   OH233726   4.557   0.449   4.172
11262TIP3    H133727   4.537   0.355   4.170
11262TIP3    H233728   4.628   0.460   4.109
11263TIP3   OH233729   6.130   6.077   0.716
11263TIP3    H133730   6.133   6.134   0.639
11263TIP3    H233731   6.195   6.115   0.776
11264TIP3   OH233732   5.334   4.024   1.786
11264TIP3    H133733   5.383   3.943   1.794
11264TIP3    H233734   5.334   4.060   1.875
11265TIP3   OH233735   1.395   7.166   2.033
11265TIP3    H133736   1.310   7.127   2.053
11265TIP3    H233737   1.376   7.231   1.965
11266TIP3   OH233738   0.539   3.604   0.843
11266TIP3    H133739   0.630   3.574   0.844
11266TIP3    H233740   0.493   3.542   0.900
11267TIP3   OH233741   3.921   4.704   2.391
11267TIP3    H133742   3.893   4.758   2.464
11267TIP3    H233743   3.917   4.614   2.424
11268TIP3   OH233744   4.177   3.626   5.354
11268TIP3    H133745   4.140   3.688   5.291
11268TIP3    H233746   4.104   3.604   5.412
11269TIP3   OH233747   7.510   3.933   3.354
11269TIP3    H133748   7.485   3.968   3.269
11269TIP3    H233749   7.588   3.983   3.378
11270TIP3   OH233750   4.193   0.777   2.313
11270TIP3    H133751   4.204   0.860   2.358
11270TIP3    H233752   4.165   0.716   2.381
11271TIP3   OH233753   8.166   0.230   1.575
11271TIP3    H133754   8.191   0.189   1.657
11271TIP3    H233755   8.212   0.179   1.508
11272TIP3   OH233756   3.071   5.883   5.152
11272TIP3    H133757   3.037   5.817   5.213
11272TIP3    H233758   2.997   5.904   5.096
11273TIP3   OH233759   2.647   2.776   0.567
11273TIP3    H133760   2.611   2.772   0.478
11273TIP3    H233761   2.709   2.849   0.564
11274TIP3   OH233762   5.112   1.096   5.394
11274TIP3    H133763   5.036   1.144   5.359
11274TIP3    H233764   5.079   1.007   5.407
11275TIP3   OH233765   6.892   7.450   2.661
11275TIP3    H133766   6.923   7.498   2.584
11275TIP3    H233767   6.891   7.515   2.731
11276TIP3   OH233768   4.785   4.689   5.220
11276TIP3    H133769   4.867   4.738   5.218
11276TIP3    H233770   4.812   4.599   5.241
11277TIP3   OH233771   0.906   2.053   0.203
11277TIP3    H133772   0.842   2.042   0.274
11277TIP3    H233773   0.950   2.136   0.224
11278TIP3   OH233774   4.379   0.622   4.360
11278TIP3    H133775   4.294   0.642   4.320
11278TIP3    H233776   4.415   0.552   4.306
11279TIP3   OH233777   2.632   7.775   4.790
11279TIP3    H133778   2.571   7.848   4.802
11279TIP3    H233779   2.576   7.697   4.785
11280TIP3   OH233780   1.444   6.807   6.421
11280TIP3    H133781   1.515   6.858   6.383
11280TIP3    H233782   1.488   6.734   6.465
11281TIP3   OH233783   7.193   0.468   1.005
11281TIP3    H133784   7.276   0.471   1.051
11281TIP3    H233785   7.215   0.476   0.913
11282TIP3   OH233786   8.352   5.631   1.416
11282TIP3    H133787   8.327   5.539   1.424
11282TIP3    H233788   8.443   5.634   1.445
11283TIP3   OH233789   0.851   1.585   1.022
11283TIP3    H133790   0.901   1.509   0.992
11283TIP3    H233791   0.916   1.654   1.032
11284TIP3   OH233792   2.891   3.350   0.812
11284TIP3    H133793   2.915   3.442   0.804
11284TIP3    H233794   2.949   3.304   0.752
11285TIP3   OH233795   3.685   0.933   5.374
11285TIP3    H133796   3.668   0.968   5.286
11285TIP3    H233797   3.675   1.007   5.432
11286TIP3   OH233798   3.917   4.398   3.419
11286TIP3    H133799   3.963   4.337   3.476
11286TIP3    H233800   3.923   4.483   3.464
11287TIP3   OH233801   0.890   6.779   2.801
11287TIP3    H133802   0.838   6.844   2.847
11287TIP3    H233803   0.969   6.770   2.854
11288TIP3   OH233804   2.382   2.375   6.273
11288TIP3    H133805   2.449   2.345   6.212
11288TIP3    H233806   2.331   2.439   6.223
11289TIP3   OH233807   7.154   6.281   1.637
11289TIP3    H133808   7.092   6.249   1.572
11289TIP3    H233809   7.103   6.291   1.717
11290TIP3   OH233810   7.776   4.405   3.410
11290TIP3    H133811   7.815   4.411   3.497
11290TIP3    H233812   7.751   4.313   3.401
11291TIP3   OH233813   0.185   4.853   4.931
11291TIP3    H133814   0.135   4.776   4.960
11291TIP3    H233815   0.118   4.916   4.905
11292TIP3   OH233816   5.755   6.996   3.084
11292TIP3    H133817   5.824   6.982   3.019
11292TIP3    H233818   5.768   6.924   3.147
11293TIP3   OH233819   8.189   5.986   3.202
11293TIP3    H133820   8.132   5.909   3.216
11293TIP3    H233821   8.240   5.992   3.283
11294TIP3   OH233822   0.985   1.374   4.676
11294TIP3    H133823   0.922   1.311   4.641
11294TIP3    H233824   0.958   1.387   4.767
11295TIP3   OH233825   3.463   0.477   2.885
11295TIP3    H133826   3.503   0.558   2.852
11295TIP3    H233827   3.371   0.499   2.898
11296TIP3   OH233828   6.736   5.797   5.387
11296TIP3    H133829   6.656   5.759   5.350
11296TIP3    H233830   6.789   5.722   5.414
11297TIP3   OH233831   7.353   3.522   6.617
11297TIP3    H133832   7.298   3.571   6.678
11297TIP3    H233833   7.323   3.550   6.530
11298TIP3   OH233834   5.157   6.626   5.426
11298TIP3    H133835   5.109   6.626   5.509
11298TIP3    H233836   5.244   6.593   5.449
11299TIP3   OH233837   2.996   3.997   4.233
11299TIP3    H133838   2.924   4.045   4.275
11299TIP3    H233839   3.066   3.995   4.298
11300TIP3   OH233840   1.272   3.961   0.243
11300TIP3    H133841   1.332   3.901   0.200
11300TIP3    H233842   1.185   3.931   0.216
11301TIP3   OH233843   0.898   0.301   0.477
11301TIP3    H133844   0.823   0.338   0.430
11301TIP3    H233845   0.931   0.231   0.419
11302TIP3   OH233846   6.972   0.314   0.889
11302TIP3    H133847   6.920   0.372   0.832
11302TIP3    H233848   7.036   0.373   0.929
11303TIP3   OH233849   8.168   3.128   6.275
11303TIP3    H133850   8.140   3.099   6.188
11303TIP3    H233851   8.239   3.190   6.259
11304TIP3   OH233852   8.297   2.373   0.021
11304TIP3    H133853   8.206   2.378  -0.008
11304TIP3    H233854   8.291   2.358   0.115
11305TIP3   OH233855   8.244   0.859   1.930
11305TIP3    H133856   8.213   0.769   1.919
11305TIP3    H233857   8.332   0.859   1.893
11306TIP3   OH233858   2.285   1.867   5.176
11306TIP3    H133859   2.323   1.780   5.165
11306TIP3    H233860   2.240   1.863   5.261
11307TIP3   OH233861   6.945   0.988   3.094
11307TIP3    H133862   7.005   1.049   3.050
11307TIP3    H233863   6.859   1.008   3.057
11308TIP3   OH233864   1.209   2.569   0.541
11308TIP3    H133865   1.248   2.620   0.612
11308TIP3    H233866   1.262   2.489   0.538
11309TIP3   OH233867   3.576   5.788   0.801
11309TIP3    H133868   3.518   5.776   0.876
11309TIP3    H233869   3.654   5.738   0.823
11310TIP3   OH233870   7.370   2.674   1.508
11310TIP3    H133871   7.411   2.633   1.584
11310TIP3    H233872   7.336   2.757   1.541
11311TIP3   OH233873   2.011   4.980   2.449
11311TIP3    H133874   1.987   5.051   2.509
11311TIP3    H233875   1.936   4.972   2.391
11312TIP3   OH233876   5.261   6.401   2.350
11312TIP3    H133877   5.303   6.329   2.302
11312TIP3    H233878   5.192   6.431   2.292
11313TIP3   OH233879   0.253   2.283   0.748
11313TIP3    H133880   0.309   2.340   0.801
11313TIP3    H233881   0.171   2.333   0.738
11314TIP3   OH233882   4.930   1.227   4.523
11314TIP3    H133883   4.898   1.316   4.506
11314TIP3    H233884   5.020   1.227   4.491
11315TIP3   OH233885   2.441   0.256   3.538
11315TIP3    H133886   2.393   0.189   3.488
11315TIP3    H233887   2.500   0.206   3.594
11316TIP3   OH233888   7.579   6.073   5.290
11316TIP3    H133889   7.546   6.123   5.365
11316TIP3    H233890   7.535   5.988   5.297
11317TIP3   OH233891   6.551   4.359   6.508
11317TIP3    H133892   6.531   4.434   6.452
11317TIP3    H233893   6.625   4.316   6.465
11318TIP3   OH233894   7.762   5.499   2.199
11318TIP3    H133895   7.850   5.469   2.179
11318TIP3    H233896   7.773   5.560   2.272
11319TIP3   OH233897   8.322   5.577   3.814
11319TIP3    H133898   8.392   5.641   3.798
11319TIP3    H233899   8.242   5.628   3.806
11320TIP3   OH233900   8.131   6.257   0.411
11320TIP3    H133901   8.151   6.234   0.501
11320TIP3    H233902   8.035   6.251   0.405
11321TIP3   OH233903   2.904   7.173   0.087
11321TIP3    H133904   2.809   7.182   0.089
11321TIP3    H233905   2.931   7.171   0.179
11322TIP3   OH233906   7.249   7.325   4.244
11322TIP3    H133907   7.181   7.325   4.177
11322TIP3    H233908   7.258   7.417   4.268
11323TIP3   OH233909   4.706   6.486   1.112
11323TIP3    H133910   4.632   6.439   1.073
11323TIP3    H233911   4.777   6.477   1.050
11324TIP3   OH233912   0.277   1.726   6.068
11324TIP3    H133913   0.263   1.672   6.146
11324TIP3    H233914   0.300   1.812   6.102
11325TIP3   OH233915   0.876   5.596   2.214
11325TIP3    H133916   0.859   5.528   2.279
11325TIP3    H233917   0.797   5.597   2.159
11326TIP3   OH233918   2.756   1.582   4.428
11326TIP3    H133919   2.771   1.604   4.519
11326TIP3    H233920   2.702   1.503   4.431
11327TIP3   OH233921   6.058   3.727   0.063
11327TIP3    H133922   6.060   3.733  -0.032
11327TIP3    H233923   6.092   3.811   0.094
11328TIP3   OH233924   5.194   7.310   6.425
11328TIP3    H133925   5.145   7.385   6.460
11328TIP3    H233926   5.284   7.342   6.416
11329TIP3   OH233927   5.676   5.189   1.069
11329TIP3    H133928   5.737   5.122   1.098
11329TIP3    H233929   5.729   5.249   1.018
11330TIP3   OH233930   1.923   4.613   1.083
11330TIP3    H133931   2.012   4.577   1.088
11330TIP3    H233932   1.927   4.675   1.010
11331TIP3   OH233933   6.639   3.709   1.720
11331TIP3    H133934   6.686   3.651   1.780
11331TIP3    H233935   6.704   3.773   1.692
11332TIP3   OH233936   5.113   5.585   6.672
11332TIP3    H133937   5.098   5.625   6.587
11332TIP3    H233938   5.096   5.655   6.735
11333TIP3   OH233939   4.494   1.182   0.061
11333TIP3    H133940   4.531   1.270   0.073
11333TIP3    H233941   4.568   1.123   0.074
11334TIP3   OH233942   4.381   4.380   2.863
11334TIP3    H133943   4.466   4.346   2.832
11334TIP3    H233944   4.372   4.464   2.818
11335TIP3   OH233945   0.127   3.080   2.722
11335TIP3    H133946   0.117   3.135   2.644
11335TIP3    H233947   0.132   2.991   2.688
11336TIP3   OH233948   5.884   3.100   6.164
11336TIP3    H133949   5.823   3.116   6.092
11336TIP3    H233950   5.856   3.160   6.233
11337TIP3   OH233951   8.382   2.507   6.629
11337TIP3    H133952   8.430   2.442   6.681
11337TIP3    H233953   8.307   2.459   6.595
11338TIP3   OH233954   7.460   6.194   2.146
11338TIP3    H133955   7.429   6.261   2.085
11338TIP3    H233956   7.497   6.126   2.089
11339TIP3   OH233957   3.830   6.086   6.306
11339TIP3    H133958   3.870   6.078   6.393
11339TIP3    H233959   3.833   5.998   6.270
11340TIP3   OH233960   1.359   1.885   0.258
11340TIP3    H133961   1.309   1.811   0.226
11340TIP3    H233962   1.344   1.954   0.193
11341TIP3   OH233963   6.048   1.997   6.388
11341TIP3    H133964   6.126   2.053   6.394
11341TIP3    H233965   6.078   1.921   6.337
11342TIP3   OH233966   5.379   7.190   1.878
11342TIP3    H133967   5.458   7.158   1.835
11342TIP3    H233968   5.407   7.271   1.922
11343TIP3   OH233969   1.615   6.566   0.985
11343TIP3    H133970   1.708   6.581   0.969
11343TIP3    H233971   1.585   6.645   1.030
11344TIP3   OH233972   7.821   4.055   6.033
11344TIP3    H133973   7.784   3.970   6.010
11344TIP3    H233974   7.850   4.044   6.124
11345TIP3   OH233975   4.146   0.298   0.599
11345TIP3    H133976   4.240   0.305   0.583
11345TIP3    H233977   4.116   0.230   0.539
11346TIP3   OH233978   7.261   6.999   6.127
11346TIP3    H133979   7.315   6.925   6.153
11346TIP3    H233980   7.173   6.978   6.160
11347TIP3   OH233981  -0.028   1.339   1.856
11347TIP3    H133982   0.063   1.367   1.866
11347TIP3    H233983  -0.023   1.257   1.808
11348TIP3   OH233984   7.095   5.505   1.528
11348TIP3    H133985   7.002   5.489   1.544
11348TIP3    H233986   7.096   5.579   1.467
11349TIP3   OH233987   7.600   4.674   2.975
11349TIP3    H133988   7.554   4.734   3.035
11349TIP3    H233989   7.530   4.638   2.920
11350TIP3   OH233990   4.000   6.501   1.274
11350TIP3    H133991   4.008   6.444   1.350
11350TIP3    H233992   4.013   6.590   1.308
11351TIP3   OH233993   6.479   2.921   5.257
11351TIP3    H133994   6.501   2.893   5.168
11351TIP3    H233995   6.386   2.941   5.254
11352TIP3   OH233996   1.785   5.206   6.630
11352TIP3    H133997   1.783   5.151   6.709
11352TIP3    H233998   1.697   5.244   6.626
11353TIP3   OH233999   2.427   0.310   0.811
11353TIP3    H134000   2.429   0.371   0.884
11353TIP3    H234001   2.485   0.239   0.837
11354TIP3   OH234002   8.109   0.831   0.244
11354TIP3    H134003   8.180   0.836   0.180
11354TIP3    H234004   8.066   0.916   0.238
11355TIP3   OH234005   2.495   2.887   6.499
11355TIP3    H134006   2.406   2.888   6.535
11355TIP3    H234007   2.483   2.875   6.405
11356TIP3   OH234008   6.927   3.467   4.174
11356TIP3    H134009   6.921   3.562   4.179
11356TIP3    H234010   7.015   3.450   4.142
11357TIP3   OH234011   8.248   3.998   4.815
11357TIP3    H134012   8.165   4.006   4.768
11357TIP3    H234013   8.298   4.076   4.790
11358TIP3   OH234014   0.643   5.644   2.051
11358TIP3    H134015   0.595   5.631   2.134
11358TIP3    H234016   0.602   5.583   1.990
11359TIP3   OH234017   5.462   6.283   4.342
11359TIP3    H134018   5.536   6.253   4.395
11359TIP3    H234019   5.411   6.203   4.326
11360TIP3   OH234020   7.817   1.230   2.506
11360TIP3    H134021   7.815   1.194   2.417
11360TIP3    H234022   7.725   1.228   2.535
11361TIP3   OH234023   5.419   5.664   1.898
11361TIP3    H134024   5.416   5.569   1.890
11361TIP3    H234025   5.334   5.688   1.936
11362TIP3   OH234026   4.643   6.654   5.307
11362TIP3    H134027   4.547   6.658   5.304
11362TIP3    H234028   4.663   6.561   5.292
11363TIP3   OH234029   7.841   6.478   2.514
11363TIP3    H134030   7.773   6.545   2.510
11363TIP3    H234031   7.871   6.469   2.423
11364TIP3   OH234032   4.317   7.396   4.838
11364TIP3    H134033   4.350   7.404   4.927
11364TIP3    H234034   4.367   7.325   4.800
11365TIP3   OH234035   5.064   6.202   5.240
11365TIP3    H134036   5.132   6.261   5.207
11365TIP3    H234037   5.047   6.142   5.167
11366TIP3   OH234038   2.696   5.632   2.582
11366TIP3    H134039   2.662   5.543   2.577
11366TIP3    H234040   2.791   5.621   2.576
11367TIP3   OH234041   5.321   5.612   0.598
11367TIP3    H134042   5.393   5.626   0.537
11367TIP3    H234043   5.248   5.662   0.562
11368TIP3   OH234044   1.051   0.782   0.912
11368TIP3    H134045   1.127   0.737   0.875
11368TIP3    H234046   1.079   0.873   0.920
11369TIP3   OH234047   0.651   2.424   4.703
11369TIP3    H134048   0.684   2.501   4.749
11369TIP3    H234049   0.700   2.351   4.740
11370TIP3   OH234050   4.384   2.274   3.840
11370TIP3    H134051   4.374   2.358   3.885
11370TIP3    H234052   4.332   2.284   3.760
11371TIP3   OH234053   3.111   2.144   1.286
11371TIP3    H134054   3.147   2.121   1.371
11371TIP3    H234055   3.021   2.169   1.304
11372TIP3   OH234056   1.757   5.320   5.911
11372TIP3    H134057   1.726   5.283   5.994
11372TIP3    H234058   1.842   5.359   5.933
11373TIP3   OH234059   2.110   7.558   6.324
11373TIP3    H134060   2.175   7.519   6.383
11373TIP3    H234061   2.138   7.649   6.314
11374TIP3   OH234062   3.691   6.091   1.938
11374TIP3    H134063   3.647   6.019   1.983
11374TIP3    H234064   3.704   6.157   2.007
11375TIP3   OH234065   3.544   4.086   2.042
11375TIP3    H134066   3.520   4.070   1.951
11375TIP3    H234067   3.468   4.057   2.092
11376TIP3   OH234068   1.826   2.826   4.943
11376TIP3    H134069   1.854   2.910   4.981
11376TIP3    H234070   1.839   2.762   5.013
11377TIP3   OH234071   4.903   5.979   0.005
11377TIP3    H134072   4.863   5.953   0.088
11377TIP3    H234073   4.833   5.971  -0.060
11378TIP3   OH234074   2.644   5.752   0.993
11378TIP3    H134075   2.662   5.745   1.087
11378TIP3    H234076   2.571   5.813   0.987
11379TIP3   OH234077   8.184   7.069   3.144
11379TIP3    H134078   8.169   7.163   3.143
11379TIP3    H234079   8.214   7.048   3.055
11380TIP3   OH234080   3.890   2.009   6.127
11380TIP3    H134081   3.884   1.915   6.111
11380TIP3    H234082   3.970   2.019   6.180
11381TIP3   OH234083   2.834   3.547   5.228
11381TIP3    H134084   2.922   3.580   5.247
11381TIP3    H234085   2.812   3.492   5.303
11382TIP3   OH234086   1.706   0.010   2.269
11382TIP3    H134087   1.793  -0.029   2.284
11382TIP3    H234088   1.664   0.008   2.355
11383TIP3   OH234089   8.375   0.596   3.046
11383TIP3    H134090   8.434   0.631   2.979
11383TIP3    H234091   8.412   0.627   3.129
11384TIP3   OH234092   8.375   5.525   2.707
11384TIP3    H134093   8.311   5.519   2.636
11384TIP3    H234094   8.332   5.579   2.773
11385TIP3   OH234095   4.090   3.945   4.424
11385TIP3    H134096   4.160   3.990   4.471
11385TIP3    H234097   4.122   3.855   4.413
11386TIP3   OH234098   4.840   7.099   3.721
11386TIP3    H134099   4.887   7.016   3.728
11386TIP3    H234100   4.887   7.147   3.653
11387TIP3   OH234101   2.605   5.887   2.510
11387TIP3    H134102   2.651   5.806   2.532
11387TIP3    H234103   2.553   5.864   2.433
11388TIP3   OH234104   1.627   2.384   2.050
11388TIP3    H134105   1.621   2.446   1.978
11388TIP3    H234106   1.636   2.299   2.007
11389TIP3   OH234107   7.113   4.656   5.980
11389TIP3    H134108   7.125   4.565   6.008
11389TIP3    H234109   7.199   4.684   5.951
11390TIP3   OH234110   0.392   0.940   4.105
11390TIP3    H134111   0.378   0.974   4.017
11390TIP3    H234112   0.327   0.870   4.113
11391TIP3   OH234113   6.896   5.199   5.498
11391TIP3    H134114   6.875   5.236   5.412
11391TIP3    H234115   6.967   5.138   5.482
11392TIP3   OH234116   0.285   3.145   1.946
11392TIP3    H134117   0.312   3.222   1.896
11392TIP3    H234118   0.293   3.073   1.884
11393TIP3   OH234119   6.791   5.887   5.045
11393TIP3    H134120   6.884   5.901   5.029
11393TIP3    H234121   6.786   5.856   5.136
11394TIP3   OH234122   3.830   7.320   4.398
11394TIP3    H134123   3.825   7.245   4.338
11394TIP3    H234124   3.905   7.300   4.455
11395TIP3   OH234125   4.282   0.425   1.401
11395TIP3    H134126   4.280   0.330   1.414
11395TIP3    H234127   4.376   0.445   1.394
11396TIP3   OH234128   3.518   1.590   0.116
11396TIP3    H134129   3.561   1.548   0.191
11396TIP3    H234130   3.468   1.521   0.075
11397TIP3   OH234131   1.915   0.912   0.444
11397TIP3    H134132   1.958   0.980   0.394
11397TIP3    H234133   1.823   0.918   0.418
11398TIP3   OH234134   8.070   5.042   2.582
11398TIP3    H134135   8.140   4.980   2.602
11398TIP3    H234136   8.093   5.078   2.497
11399TIP3   OH234137   2.914   3.023   4.221
11399TIP3    H134138   2.820   3.043   4.227
11399TIP3    H234139   2.937   2.988   4.307
11400TIP3   OH234140   3.606   2.548   2.949
11400TIP3    H134141   3.561   2.541   3.033
11400TIP3    H234142   3.699   2.544   2.972
11401TIP3   OH234143   3.684   7.202   3.685
11401TIP3    H134144   3.701   7.195   3.591
11401TIP3    H234145   3.607   7.258   3.692
11402TIP3   OH234146   3.647   1.896   3.387
11402TIP3    H134147   3.569   1.841   3.382
11402TIP3    H234148   3.642   1.952   3.309
11403TIP3   OH234149   0.736   5.352   6.049
11403TIP3    H134150   0.761   5.351   5.956
11403TIP3    H234151   0.659   5.409   6.052
11404TIP3   OH234152   3.734   0.116   4.246
11404TIP3    H134153   3.708   0.145   4.159
11404TIP3    H234154   3.748   0.197   4.295
11405TIP3   OH234155   7.945   6.942   2.242
11405TIP3    H134156   7.978   7.016   2.192
11405TIP3    H234157   7.867   6.913   2.193
11406TIP3   OH234158   0.610   0.825   3.388
11406TIP3    H134159   0.545   0.891   3.365
11406TIP3    H234160   0.645   0.853   3.472
11407TIP3   OH234161   5.011   2.695   5.881
11407TIP3    H134162   4.928   2.742   5.879
11407TIP3    H234163   5.054   2.726   5.961
11408TIP3   OH234164   3.418   6.223   2.420
11408TIP3    H134165   3.346   6.271   2.459
11408TIP3    H234166   3.495   6.279   2.433
11409TIP3   OH234167   1.228   3.774   4.463
11409TIP3    H134168   1.134   3.754   4.457
11409TIP3    H234169   1.232   3.847   4.526
11410TIP3   OH234170   4.176   4.919   3.169
11410TIP3    H134171   4.087   4.924   3.202
11410TIP3    H234172   4.169   4.871   3.087
11411TIP3   OH234173   3.906   1.518   0.518
11411TIP3    H134174   3.822   1.507   0.564
11411TIP3    H234175   3.968   1.467   0.570
11412TIP3   OH234176   1.668   1.109   4.664
11412TIP3    H134177   1.744   1.082   4.715
11412TIP3    H234178   1.593   1.093   4.722
11413TIP3   OH234179   1.678   2.242   6.457
11413TIP3    H134180   1.644   2.180   6.393
11413TIP3    H234181   1.617   2.316   6.454
11414TIP3   OH234182   6.360   3.950   0.944
11414TIP3    H134183   6.381   3.950   0.850
11414TIP3    H234184   6.341   4.041   0.964
11415TIP3   OH234185   3.126   4.284   4.426
11415TIP3    H134186   3.054   4.255   4.482
11415TIP3    H234187   3.129   4.379   4.439
11416TIP3   OH234188   3.250   1.835   0.281
11416TIP3    H134189   3.234   1.881   0.199
11416TIP3    H234190   3.339   1.862   0.306
11417TIP3   OH234191   4.607   3.479   5.917
11417TIP3    H134192   4.683   3.421   5.911
11417TIP3    H234193   4.532   3.420   5.907
11418TIP3   OH234194   0.831   0.402   3.545
11418TIP3    H134195   0.888   0.339   3.590
11418TIP3    H234196   0.758   0.416   3.605
11419TIP3   OH234197   5.311   1.248   3.300
11419TIP3    H134198   5.396   1.290   3.287
11419TIP3    H234199   5.296   1.198   3.220
11420TIP3   OH234200   7.521   6.933   5.073
11420TIP3    H134201   7.482   7.015   5.103
11420TIP3    H234202   7.457   6.866   5.096
11421TIP3   OH234203   6.859   7.134   3.720
11421TIP3    H134204   6.766   7.150   3.735
11421TIP3    H234205   6.898   7.221   3.712
11422TIP3   OH234206   6.013   1.352   0.062
11422TIP3    H134207   6.038   1.294  -0.011
11422TIP3    H234208   6.080   1.420   0.063
11423TIP3   OH234209   0.888   2.914   0.309
11423TIP3    H134210   0.903   2.915   0.404
11423TIP3    H234211   0.801   2.951   0.298
11424TIP3   OH234212   6.555   1.702   3.468
11424TIP3    H134213   6.568   1.607   3.466
11424TIP3    H234214   6.460   1.713   3.480
11425TIP3   OH234215   5.022   0.542   2.391
11425TIP3    H134216   4.997   0.612   2.450
11425TIP3    H234217   5.000   0.462   2.438
11426TIP3   OH234218   1.806   2.260   5.742
11426TIP3    H134219   1.732   2.244   5.801
11426TIP3    H234220   1.766   2.291   5.661
11427TIP3   OH234221   3.452   0.212   1.504
11427TIP3    H134222   3.443   0.159   1.424
11427TIP3    H234223   3.500   0.290   1.476
11428TIP3   OH234224   1.342   5.295   6.118
11428TIP3    H134225   1.434   5.321   6.112
11428TIP3    H234226   1.297   5.372   6.153
11429TIP3   OH234227   1.323   0.572   1.893
11429TIP3    H134228   1.230   0.582   1.916
11429TIP3    H234229   1.330   0.481   1.863
11430TIP3   OH234230   5.155   3.163   3.438
11430TIP3    H134231   5.195   3.126   3.359
11430TIP3    H234232   5.094   3.230   3.405
11431TIP3   OH234233   6.909   5.309   6.824
11431TIP3    H134234   6.856   5.364   6.767
11431TIP3    H234235   6.846   5.254   6.870
11432TIP3   OH234236   4.909   4.314   0.961
11432TIP3    H134237   4.905   4.367   0.881
11432TIP3    H234238   4.917   4.378   1.032
11433TIP3   OH234239   2.056   0.225   6.759
11433TIP3    H134240   1.975   0.181   6.784
11433TIP3    H234241   2.091   0.260   6.841
11434TIP3   OH234242   0.008   7.502   1.397
11434TIP3    H134243  -0.044   7.454   1.462
11434TIP3    H234244   0.072   7.438   1.366
11435TIP3   OH234245   8.106   5.199   1.655
11435TIP3    H134246   8.162   5.227   1.727
11435TIP3    H234247   8.061   5.121   1.688
11436TIP3   OH234248   5.968   7.112   1.423
11436TIP3    H134249   5.896   7.171   1.442
11436TIP3    H234250   5.941   7.027   1.459
11437TIP3   OH234251   0.377   3.555   4.048
11437TIP3    H134252   0.393   3.470   4.087
11437TIP3    H234253   0.442   3.563   3.978
11438TIP3   OH234254   4.885   5.026   1.546
11438TIP3    H134255   4.951   5.078   1.500
11438TIP3    H234256   4.835   4.983   1.477
11439TIP3   OH234257   8.306   4.567   4.034
11439TIP3    H134258   8.378   4.581   3.973
11439TIP3    H234259   8.349   4.536   4.114
11440TIP3   OH234260   8.261   4.228   2.914
11440TIP3    H134261   8.269   4.300   2.976
11440TIP3    H234262   8.244   4.151   2.969
11441TIP3   OH234263   3.363   4.214   5.622
11441TIP3    H134264   3.425   4.286   5.626
11441TIP3    H234265   3.416   4.135   5.625
11442TIP3   OH234266   6.788   6.279   4.710
11442TIP3    H134267   6.806   6.188   4.684
11442TIP3    H234268   6.705   6.299   4.668
11443TIP3   OH234269   5.394   2.151   3.067
11443TIP3    H134270   5.461   2.134   3.132
11443TIP3    H234271   5.330   2.206   3.112
11444TIP3   OH234272   6.755   4.235   3.737
11444TIP3    H134273   6.747   4.267   3.826
11444TIP3    H234274   6.848   4.245   3.716
11445TIP3   OH234275   5.871   4.162   4.652
11445TIP3    H134276   5.786   4.174   4.695
11445TIP3    H234277   5.848   4.139   4.562
11446TIP3   OH234278   2.606   7.784   5.992
11446TIP3    H134279   2.570   7.872   5.984
11446TIP3    H234280   2.696   7.791   5.961
11447TIP3   OH234281   4.000   6.531   6.639
11447TIP3    H134282   4.011   6.496   6.727
11447TIP3    H234283   4.003   6.455   6.582
11448TIP3   OH234284   0.418   1.014   4.765
11448TIP3    H134285   0.500   0.971   4.740
11448TIP3    H234286   0.422   1.099   4.720
11449TIP3   OH234287   0.111   0.282   4.047
11449TIP3    H134288   0.158   0.361   4.022
11449TIP3    H234289   0.042   0.313   4.106
11450TIP3   OH234290   5.016   2.723   1.504
11450TIP3    H134291   5.111   2.721   1.490
11450TIP3    H234292   4.980   2.750   1.420
11451TIP3   OH234293   2.510   6.684   6.703
11451TIP3    H134294   2.594   6.663   6.662
11451TIP3    H234295   2.445   6.655   6.640
11452TIP3   OH234296   7.899   7.338   1.656
11452TIP3    H134297   7.819   7.336   1.603
11452TIP3    H234298   7.969   7.355   1.593
11453TIP3   OH234299   6.874   5.373   4.066
11453TIP3    H134300   6.932   5.306   4.103
11453TIP3    H234301   6.899   5.377   3.974
11454TIP3   OH234302   6.994   7.130   6.697
11454TIP3    H134303   6.979   7.080   6.777
11454TIP3    H234304   7.034   7.212   6.727
11455TIP3   OH234305   4.287   6.347   4.692
11455TIP3    H134306   4.277   6.334   4.787
11455TIP3    H234307   4.286   6.259   4.656
11456TIP3   OH234308   5.076   1.620   2.374
11456TIP3    H134309   5.090   1.525   2.385
11456TIP3    H234310   5.140   1.646   2.308
11457TIP3   OH234311   0.545   3.601   3.816
11457TIP3    H134312   0.471   3.657   3.793
11457TIP3    H234313   0.581   3.572   3.732
11458TIP3   OH234314   1.532   2.826   4.893
11458TIP3    H134315   1.614   2.821   4.942
11458TIP3    H234316   1.465   2.806   4.958
11459TIP3   OH234317   2.487   3.433   4.123
11459TIP3    H134318   2.461   3.523   4.105
11459TIP3    H234319   2.534   3.438   4.206
11460TIP3   OH234320   0.882   0.133   3.408
11460TIP3    H134321   0.817   0.199   3.432
11460TIP3    H234322   0.833   0.052   3.402
11461TIP3   OH234323   4.134   1.038   5.650
11461TIP3    H134324   4.185   1.108   5.608
11461TIP3    H234325   4.047   1.046   5.611
11462TIP3   OH234326   5.781   0.723   6.744
11462TIP3    H134327   5.705   0.753   6.794
11462TIP3    H234328   5.813   0.801   6.699
11463TIP3   OH234329   0.106   2.538   2.780
11463TIP3    H134330   0.153   2.601   2.834
11463TIP3    H234331   0.015   2.566   2.785
11464TIP3   OH234332   0.428   3.868   4.689
11464TIP3    H134333   0.334   3.886   4.682
11464TIP3    H234334   0.466   3.904   4.609
11465TIP3   OH234335   4.903   5.111   5.996
11465TIP3    H134336   4.935   5.157   5.918
11465TIP3    H234337   4.978   5.059   6.025
11466TIP3   OH234338   6.783   0.910   1.248
11466TIP3    H134339   6.873   0.928   1.222
11466TIP3    H234340   6.730   0.941   1.175
11467TIP3   OH234341   2.422   1.696   0.741
11467TIP3    H134342   2.464   1.642   0.674
11467TIP3    H234343   2.491   1.757   0.768
11468TIP3   OH234344   4.747   0.554   0.193
11468TIP3    H134345   4.766   0.639   0.232
11468TIP3    H234346   4.811   0.544   0.123
11469TIP3   OH234347   1.125   2.943   2.253
11469TIP3    H134348   1.124   2.995   2.173
11469TIP3    H234349   1.088   3.002   2.319
11470TIP3   OH234350   2.693   6.154   5.492
11470TIP3    H134351   2.681   6.080   5.433
11470TIP3    H234352   2.640   6.224   5.454
11471TIP3   OH234353   1.759   6.227   6.322
11471TIP3    H134354   1.784   6.186   6.239
11471TIP3    H234355   1.702   6.162   6.364
11472TIP3   OH234356   7.021   7.854   4.799
11472TIP3    H134357   7.104   7.809   4.814
11472TIP3    H234358   7.026   7.931   4.856
11473TIP3   OH234359   3.602   7.725   5.567
11473TIP3    H134360   3.540   7.652   5.562
11473TIP3    H234361   3.561   7.788   5.625
11474TIP3   OH234362   7.981   3.844   5.701
11474TIP3    H134363   7.926   3.923   5.701
11474TIP3    H234364   8.034   3.852   5.780
11475TIP3   OH234365   2.878   2.164   6.793
11475TIP3    H134366   2.807   2.216   6.832
11475TIP3    H234367   2.844   2.075   6.793
11476TIP3   OH234368   7.602   1.697   0.342
11476TIP3    H134369   7.631   1.613   0.379
11476TIP3    H234370   7.506   1.694   0.350
11477TIP3   OH234371   5.400   7.102   0.515
11477TIP3    H134372   5.470   7.047   0.550
11477TIP3    H234373   5.436   7.137   0.434
11478TIP3   OH234374   6.957   2.629   0.405
11478TIP3    H134375   6.904   2.615   0.326
11478TIP3    H234376   7.006   2.709   0.387
11479TIP3   OH234377   3.654   5.433   6.651
11479TIP3    H134378   3.679   5.509   6.599
11479TIP3    H234379   3.573   5.459   6.696
11480TIP3   OH234380   0.879   3.566   2.606
11480TIP3    H134381   0.816   3.515   2.656
11480TIP3    H234382   0.899   3.641   2.663
11481TIP3   OH234383   3.888   1.697   3.158
11481TIP3    H134384   3.896   1.792   3.146
11481TIP3    H234385   3.849   1.666   3.077
11482TIP3   OH234386   2.982   0.473   3.174
11482TIP3    H134387   2.887   0.484   3.174
11482TIP3    H234388   2.995   0.391   3.125
11483TIP3   OH234389   1.852   2.572   2.394
11483TIP3    H134390   1.919   2.504   2.403
11483TIP3    H234391   1.769   2.524   2.397
11484TIP3   OH234392   2.768   0.424   1.783
11484TIP3    H134393   2.764   0.508   1.737
11484TIP3    H234394   2.729   0.442   1.869
11485TIP3   OH234395   0.153   1.968   5.211
11485TIP3    H134396   0.108   1.959   5.295
11485TIP3    H234397   0.193   1.883   5.196
11486TIP3   OH234398   8.052   0.985   5.347
11486TIP3    H134399   8.026   1.011   5.259
11486TIP3    H234400   8.061   1.068   5.394
11487TIP3   OH234401   7.122   7.113   5.375
11487TIP3    H134402   7.153   7.029   5.408
11487TIP3    H234403   7.202   7.161   5.354
11488TIP3   OH234404   3.452   2.231   5.121
11488TIP3    H134405   3.440   2.281   5.202
11488TIP3    H234406   3.517   2.281   5.072
11489TIP3   OH234407   5.068   0.234   3.851
11489TIP3    H134408   5.057   0.229   3.756
11489TIP3    H234409   4.993   0.285   3.881
11490TIP3   OH234410   1.368   4.166   3.884
11490TIP3    H134411   1.447   4.112   3.886
11490TIP3    H234412   1.400   4.256   3.890
11491TIP3   OH234413   5.679   4.268   5.041
11491TIP3    H134414   5.659   4.362   5.042
11491TIP3    H234415   5.662   4.241   4.951
11492TIP3   OH234416   0.246   2.942   4.825
11492TIP3    H134417   0.221   2.852   4.845
11492TIP3    H234418   0.178   2.974   4.766
11493TIP3   OH234419   6.857   3.761   5.128
11493TIP3    H134420   6.943   3.786   5.095
11493TIP3    H234421   6.795   3.793   5.062
11494TIP3   OH234422   1.781   7.946   5.834
11494TIP3    H134423   1.820   7.903   5.758
11494TIP3    H234424   1.750   7.873   5.889
11495TIP3   OH234425   4.908   3.294   0.591
11495TIP3    H134426   4.879   3.208   0.622
11495TIP3    H234427   4.876   3.300   0.501
11496TIP3   OH234428   1.075   7.695   3.770
11496TIP3    H134429   1.121   7.638   3.708
11496TIP3    H234430   1.139   7.763   3.791
11497TIP3   OH234431   2.484   1.051   4.693
11497TIP3    H134432   2.549   1.118   4.669
11497TIP3    H234433   2.402   1.099   4.698
11498TIP3   OH234434   1.013   4.794   2.286
11498TIP3    H134435   0.918   4.798   2.281
11498TIP3    H234436   1.040   4.747   2.208
11499TIP3   OH234437   0.820   6.644   2.577
11499TIP3    H134438   0.863   6.690   2.505
11499TIP3    H234439   0.836   6.699   2.653
11500TIP3   OH234440   7.444   3.147   4.693
11500TIP3    H134441   7.371   3.186   4.645
11500TIP3    H234442   7.511   3.215   4.695
11501TIP3   OH234443   5.076   7.269   4.960
11501TIP3    H134444   5.050   7.302   4.874
11501TIP3    H234445   5.126   7.190   4.941
11502TIP3   OH234446   3.049   3.425   6.481
11502TIP3    H134447   3.099   3.462   6.408
11502TIP3    H234448   3.079   3.334   6.488
11503TIP3   OH234449   1.447   6.094   0.262
11503TIP3    H134450   1.384   6.165   0.252
11503TIP3    H234451   1.502   6.100   0.184
11504TIP3   OH234452   5.215   6.990   4.424
11504TIP3    H134453   5.245   7.073   4.388
11504TIP3    H234454   5.212   7.004   4.519
11505TIP3   OH234455   3.723   2.804   1.733
11505TIP3    H134456   3.775   2.811   1.814
11505TIP3    H234457   3.662   2.732   1.749
11506TIP3   OH234458   2.166   6.030   1.208
11506TIP3    H134459   2.244   6.080   1.233
11506TIP3    H234460   2.097   6.063   1.264
11507TIP3   OH234461   3.131   7.277   3.646
11507TIP3    H134462   3.077   7.211   3.603
11507TIP3    H234463   3.212   7.279   3.596
11508TIP3   OH234464   0.012   3.589   1.475
11508TIP3    H134465   0.104   3.606   1.493
11508TIP3    H234466  -0.023   3.554   1.558
11509TIP3   OH234467   5.265   2.008   0.013
11509TIP3    H134468   5.287   1.969  -0.072
11509TIP3    H234469   5.322   1.963   0.076
11510TIP3   OH234470   5.451   7.832   0.028
11510TIP3    H134471   5.474   7.740   0.018
11510TIP3    H234472   5.382   7.847  -0.036
11511TIP3   OH234473   0.422   1.989   3.273
11511TIP3    H134474   0.361   2.052   3.313
11511TIP3    H234475   0.365   1.921   3.237
11512TIP3   OH234476   3.144   6.052   2.819
11512TIP3    H134477   3.069   5.993   2.821
11512TIP3    H234478   3.173   6.050   2.727
11513TIP3   OH234479   3.901   4.684   6.576
11513TIP3    H134480   3.981   4.724   6.541
11513TIP3    H234481   3.835   4.701   6.509
11514TIP3   OH234482   2.405   3.883   2.145
11514TIP3    H134483   2.363   3.818   2.202
11514TIP3    H234484   2.422   3.958   2.203
11515TIP3   OH234485   1.385   3.522   2.634
11515TIP3    H134486   1.476   3.518   2.662
11515TIP3    H234487   1.389   3.532   2.539
11516TIP3   OH234488   6.874   7.407   3.586
11516TIP3    H134489   6.963   7.409   3.552
11516TIP3    H234490   6.849   7.500   3.594
11517TIP3   OH234491   4.856   0.709   4.552
11517TIP3    H134492   4.907   0.775   4.505
11517TIP3    H234493   4.788   0.760   4.596
11518TIP3   OH234494   2.281   6.953   0.993
11518TIP3    H134495   2.202   6.973   0.943
11518TIP3    H234496   2.318   7.039   1.014
11519TIP3   OH234497   3.381   6.075   2.994
11519TIP3    H134498   3.334   6.068   3.077
11519TIP3    H234499   3.313   6.098   2.930
11520TIP3   OH234500   6.488   6.350   4.934
11520TIP3    H134501   6.547   6.388   5.000
11520TIP3    H234502   6.538   6.279   4.895
11521TIP3   OH234503   7.167   2.843   3.385
11521TIP3    H134504   7.104   2.799   3.329
11521TIP3    H234505   7.251   2.800   3.367
11522TIP3   OH234506   8.213   4.705   3.103
11522TIP3    H134507   8.150   4.754   3.156
11522TIP3    H234508   8.298   4.724   3.144
11523TIP3   OH234509   2.063   1.399   1.978
11523TIP3    H134510   2.155   1.416   1.959
11523TIP3    H234511   2.033   1.344   1.905
11524TIP3   OH234512   5.212   4.696   3.574
11524TIP3    H134513   5.253   4.622   3.618
11524TIP3    H234514   5.222   4.769   3.635
11525TIP3   OH234515   7.719   3.949   2.621
11525TIP3    H134516   7.716   3.858   2.651
11525TIP3    H234517   7.644   3.958   2.563
11526TIP3   OH234518   3.859   5.300   2.574
11526TIP3    H134519   3.804   5.233   2.532
11526TIP3    H234520   3.936   5.252   2.603
11527TIP3   OH234521   1.047   1.233   5.036
11527TIP3    H134522   1.046   1.167   4.966
11527TIP3    H234523   1.137   1.265   5.037
11528TIP3   OH234524   5.190   3.361   5.457
11528TIP3    H134525   5.236   3.345   5.375
11528TIP3    H234526   5.217   3.449   5.483
11529TIP3   OH234527   4.016   0.538   4.254
11529TIP3    H134528   4.000   0.447   4.230
11529TIP3    H234529   3.980   0.588   4.180
11530TIP3   OH234530   4.909   7.067   3.102
11530TIP3    H134531   4.877   6.981   3.074
11530TIP3    H234532   4.844   7.098   3.165
11531TIP3   OH234533   4.396   1.751   2.628
11531TIP3    H134534   4.423   1.772   2.718
11531TIP3    H234535   4.474   1.714   2.588
11532TIP3   OH234536   4.160   5.915   3.810
11532TIP3    H134537   4.248   5.881   3.793
11532TIP3    H234538   4.131   5.868   3.888
11533TIP3   OH234539   2.827   2.149   2.592
11533TIP3    H134540   2.889   2.090   2.549
11533TIP3    H234541   2.848   2.142   2.685
11534TIP3   OH234542   2.433   2.926   1.548
11534TIP3    H134543   2.375   2.952   1.476
11534TIP3    H234544   2.490   2.859   1.511
11535TIP3   OH234545   6.011   0.809   4.213
11535TIP3    H134546   5.930   0.860   4.216
11535TIP3    H234547   6.064   0.853   4.147
11536TIP3   OH234548   0.477   5.755   4.642
11536TIP3    H134549   0.442   5.803   4.717
11536TIP3    H234550   0.444   5.803   4.566
11537TIP3   OH234551   6.530   1.912   1.083
11537TIP3    H134552   6.503   1.838   1.030
11537TIP3    H234553   6.580   1.968   1.024
11538TIP3   OH234554   7.029   6.293   3.578
11538TIP3    H134555   7.070   6.227   3.634
11538TIP3    H234556   7.052   6.377   3.618
11539TIP3   OH234557   4.052   4.388   2.854
11539TIP3    H134558   4.071   4.403   2.947
11539TIP3    H234559   4.087   4.464   2.809
11540TIP3   OH234560   3.550   3.035   0.286
11540TIP3    H134561   3.557   3.032   0.381
11540TIP3    H234562   3.597   3.115   0.261
11541TIP3   OH234563   5.904   4.719   1.845
11541TIP3    H134564   5.913   4.794   1.785
11541TIP3    H234565   5.894   4.759   1.931
11542TIP3   OH234566   2.651   5.669   0.025
11542TIP3    H134567   2.597   5.747   0.026
11542TIP3    H234568   2.740   5.702   0.036
11543TIP3   OH234569   0.886   2.402   2.178
11543TIP3    H134570   0.790   2.407   2.175
11543TIP3    H234571   0.915   2.484   2.137
11544TIP3   OH234572   7.114   4.941   2.516
11544TIP3    H134573   7.142   4.879   2.448
11544TIP3    H234574   7.081   4.887   2.587
11545TIP3   OH234575   8.139   0.710   1.366
11545TIP3    H134576   8.198   0.735   1.294
11545TIP3    H234577   8.118   0.792   1.409
11546TIP3   OH234578   0.611   5.671   2.374
11546TIP3    H134579   0.581   5.710   2.456
11546TIP3    H234580   0.695   5.713   2.357
11547TIP3   OH234581   2.690   2.381   3.644
11547TIP3    H134582   2.741   2.457   3.671
11547TIP3    H234583   2.751   2.327   3.594
11548TIP3   OH234584   3.039   6.744   0.021
11548TIP3    H134585   3.065   6.775   0.108
11548TIP3    H234586   3.120   6.719  -0.022
11549TIP3   OH234587   7.411   7.198   6.023
11549TIP3    H134588   7.477   7.133   6.000
11549TIP3    H234589   7.329   7.148   6.028
11550TIP3   OH234590   1.780   2.684   1.469
11550TIP3    H134591   1.792   2.777   1.450
11550TIP3    H234592   1.686   2.674   1.482
11551TIP3   OH234593   5.746   3.378   6.167
11551TIP3    H134594   5.809   3.423   6.110
11551TIP3    H234595   5.773   3.403   6.256
11552TIP3   OH234596   6.240   2.910   3.228
11552TIP3    H134597   6.262   2.995   3.190
11552TIP3    H234598   6.289   2.846   3.176
11553TIP3   OH234599   7.029   3.282   4.394
11553TIP3    H134600   7.068   3.369   4.383
11553TIP3    H234601   6.975   3.289   4.472
11554TIP3   OH234602   2.872   3.497   4.571
11554TIP3    H134603   2.907   3.574   4.615
11554TIP3    H234604   2.911   3.499   4.484
11555TIP3   OH234605   8.101   1.524   3.338
11555TIP3    H134606   8.052   1.530   3.257
11555TIP3    H234607   8.036   1.501   3.404
11556TIP3   OH234608   4.033   7.088   4.089
11556TIP3    H134609   4.101   7.144   4.053
11556TIP3    H234610   3.999   7.039   4.014
11557TIP3   OH234611   0.736   2.842   5.638
11557TIP3    H134612   0.804   2.901   5.606
11557TIP3    H234613   0.661   2.858   5.580
11558TIP3   OH234614   4.382   6.277   6.236
11558TIP3    H134615   4.423   6.208   6.288
11558TIP3    H234616   4.455   6.329   6.203
11559TIP3   OH234617   7.522   7.791   2.317
11559TIP3    H134618   7.603   7.839   2.331
11559TIP3    H234619   7.538   7.705   2.355
11560TIP3   OH234620   7.568   6.182   0.250
11560TIP3    H134621   7.547   6.096   0.214
11560TIP3    H234622   7.554   6.173   0.344
11561TIP3   OH234623   7.321   1.002   4.808
11561TIP3    H134624   7.370   1.062   4.751
11561TIP3    H234625   7.320   0.920   4.760
11562TIP3   OH234626   0.223   1.258   5.985
11562TIP3    H134627   0.180   1.322   5.927
11562TIP3    H234628   0.155   1.194   6.003
11563TIP3   OH234629   4.554   0.008   4.390
11563TIP3    H134630   4.594  -0.003   4.304
11563TIP3    H234631   4.625  -0.013   4.452
11564TIP3   OH234632   2.629   0.627   2.621
11564TIP3    H134633   2.574   0.704   2.635
11564TIP3    H234634   2.583   0.576   2.554
11565TIP3   OH234635   0.362   1.290   2.342
11565TIP3    H134636   0.431   1.226   2.362
11565TIP3    H234637   0.358   1.346   2.419
11566TIP3   OH234638   3.196   5.463   0.320
11566TIP3    H134639   3.164   5.375   0.341
11566TIP3    H234640   3.147   5.521   0.379
11567TIP3   OH234641   4.021   3.041   1.855
11567TIP3    H134642   4.089   3.079   1.911
11567TIP3    H234643   4.065   3.023   1.772
11568TIP3   OH234644   0.593   3.661   5.655
11568TIP3    H134645   0.638   3.682   5.737
11568TIP3    H234646   0.600   3.741   5.603
11569TIP3   OH234647   3.454   7.005   3.679
11569TIP3    H134648   3.476   7.069   3.747
11569TIP3    H234649   3.362   7.022   3.660
11570TIP3   OH234650   1.234   0.803   4.387
11570TIP3    H134651   1.231   0.744   4.463
11570TIP3    H234652   1.191   0.755   4.317
11571TIP3   OH234653   3.816   2.489   3.804
11571TIP3    H134654   3.895   2.436   3.806
11571TIP3    H234655   3.820   2.534   3.719
11572TIP3   OH234656   0.904   1.172   2.296
11572TIP3    H134657   0.903   1.226   2.217
11572TIP3    H234658   0.981   1.203   2.345
11573TIP3   OH234659   2.310   1.309   6.224
11573TIP3    H134660   2.220   1.339   6.235
11573TIP3    H234661   2.362   1.389   6.223
11574TIP3   OH234662   2.619   6.281   5.876
11574TIP3    H134663   2.658   6.331   5.804
11574TIP3    H234664   2.554   6.340   5.913
11575TIP3   OH234665   0.649   6.953   2.055
11575TIP3    H134666   0.641   6.859   2.069
11575TIP3    H234667   0.650   6.990   2.143
11576TIP3   OH234668   4.563   6.934   6.162
11576TIP3    H134669   4.504   7.009   6.160
11576TIP3    H234670   4.599   6.933   6.250
11577TIP3   OH234671   8.271   5.153   3.940
11577TIP3    H134672   8.308   5.197   4.017
11577TIP3    H234673   8.268   5.061   3.964
11578TIP3   OH234674   0.785   2.055   6.133
11578TIP3    H134675   0.719   2.111   6.175
11578TIP3    H234676   0.751   1.966   6.143
11579TIP3   OH234677   1.373   0.644   3.591
11579TIP3    H134678   1.444   0.633   3.654
11579TIP3    H234679   1.336   0.556   3.581
11580TIP3   OH234680   6.616   5.194   0.999
11580TIP3    H134681   6.582   5.274   0.957
11580TIP3    H234682   6.564   5.123   0.960
11581TIP3   OH234683   8.018   5.307   1.116
11581TIP3    H134684   7.992   5.263   1.197
11581TIP3    H234685   8.012   5.401   1.137
11582TIP3   OH234686   6.608   1.409   5.665
11582TIP3    H134687   6.564   1.415   5.580
11582TIP3    H234688   6.626   1.316   5.677
11583TIP3   OH234689   4.587   0.052   1.901
11583TIP3    H134690   4.509   0.085   1.857
11583TIP3    H234691   4.583  -0.043   1.889
11584TIP3   OH234692   3.468   0.074   0.050
11584TIP3    H134693   3.502   0.002  -0.004
11584TIP3    H234694   3.383   0.095   0.010
11585TIP3   OH234695   2.014   2.112   6.056
11585TIP3    H134696   2.036   2.081   6.143
11585TIP3    H234697   2.093   2.098   6.004
11586TIP3   OH234698   2.643   2.427   2.255
11586TIP3    H134699   2.592   2.507   2.274
11586TIP3    H234700   2.717   2.431   2.316
11587TIP3   OH234701   1.945   0.191   5.729
11587TIP3    H134702   1.971   0.283   5.740
11587TIP3    H234703   2.027   0.143   5.730
11588TIP3   OH234704   7.763   0.130   3.895
11588TIP3    H134705   7.774   0.141   3.990
11588TIP3    H234706   7.788   0.215   3.859
11589TIP3   OH234707   5.021   6.605   0.730
11589TIP3    H134708   5.096   6.591   0.673
11589TIP3    H234709   5.058   6.640   0.811
11590TIP3   OH234710   2.454   3.406   3.413
11590TIP3    H134711   2.366   3.411   3.375
11590TIP3    H234712   2.512   3.399   3.338
11591TIP3   OH234713   5.494   5.285   4.159
11591TIP3    H134714   5.569   5.313   4.212
11591TIP3    H234715   5.456   5.367   4.126
11592TIP3   OH234716   6.329   6.546   0.791
11592TIP3    H134717   6.283   6.606   0.849
11592TIP3    H234718   6.413   6.588   0.774
11593TIP3   OH234719   0.715   4.163   5.682
11593TIP3    H134720   0.677   4.091   5.631
11593TIP3    H234721   0.684   4.242   5.639
11594TIP3   OH234722   4.652   3.632   1.172
11594TIP3    H134723   4.603   3.709   1.145
11594TIP3    H234724   4.694   3.601   1.092
11595TIP3   OH234725   0.852   2.836   3.248
11595TIP3    H134726   0.861   2.928   3.224
11595TIP3    H234727   0.759   2.826   3.271
11596TIP3   OH234728   5.733   5.709   5.245
11596TIP3    H134729   5.682   5.788   5.229
11596TIP3    H234730   5.674   5.637   5.225
11597TIP3   OH234731   0.980   5.509   0.671
11597TIP3    H134732   1.055   5.568   0.671
11597TIP3    H234733   0.921   5.545   0.737
11598TIP3   OH234734   1.453   5.038   5.139
11598TIP3    H134735   1.380   5.028   5.201
11598TIP3    H234736   1.453   4.958   5.087
11599TIP3   OH234737   4.978   3.359   3.383
11599TIP3    H134738   4.975   3.452   3.405
11599TIP3    H234739   4.906   3.320   3.432
11600TIP3   OH234740   4.933   6.738   0.212
11600TIP3    H134741   4.914   6.830   0.227
11600TIP3    H234742   5.028   6.731   0.225
11601TIP3   OH234743   2.439   2.229   2.750
11601TIP3    H134744   2.503   2.235   2.821
11601TIP3    H234745   2.363   2.278   2.781
11602TIP3   OH234746   7.380   2.425   3.934
11602TIP3    H134747   7.466   2.383   3.935
11602TIP3    H234748   7.379   2.477   3.854
11603TIP3   OH234749   2.080   4.669   3.059
11603TIP3    H134750   2.174   4.656   3.043
11603TIP3    H234751   2.072   4.760   3.085
11604TIP3   OH234752   8.091   6.969   5.144
11604TIP3    H134753   8.106   6.923   5.227
11604TIP3    H234754   8.069   7.058   5.169
11605TIP3   OH234755   0.512   6.804   5.966
11605TIP3    H134756   0.458   6.870   6.011
11605TIP3    H234757   0.600   6.816   6.003
11606TIP3   OH234758   1.230   3.924   1.559
11606TIP3    H134759   1.312   3.874   1.561
11606TIP3    H234760   1.166   3.862   1.523
11607TIP3   OH234761   5.351   2.458   1.678
11607TIP3    H134762   5.261   2.434   1.701
11607TIP3    H234763   5.403   2.383   1.705
11608TIP3   OH234764   1.499   0.506   2.769
11608TIP3    H134765   1.556   0.433   2.795
11608TIP3    H234766   1.440   0.468   2.705
11609TIP3   OH234767   5.803   5.679   3.678
11609TIP3    H134768   5.725   5.646   3.724
11609TIP3    H234769   5.822   5.763   3.721
11610TIP3   OH234770   0.691   5.127   1.119
11610TIP3    H134771   0.696   5.042   1.075
11610TIP3    H234772   0.605   5.162   1.096
11611TIP3   OH234773   7.598   3.436   5.412
11611TIP3    H134774   7.548   3.362   5.378
11611TIP3    H234775   7.598   3.423   5.507
11612TIP3   OH234776   6.197   3.210   3.668
11612TIP3    H134777   6.140   3.226   3.593
11612TIP3    H234778   6.246   3.132   3.645
11613TIP3   OH234779   5.494   1.150   2.027
11613TIP3    H134780   5.403   1.151   2.057
11613TIP3    H234781   5.491   1.105   1.942
11614TIP3   OH234782   0.789   6.888   4.449
11614TIP3    H134783   0.868   6.835   4.447
11614TIP3    H234784   0.810   6.965   4.396
11615TIP3   OH234785   0.897   7.227   4.884
11615TIP3    H134786   0.915   7.260   4.796
11615TIP3    H234787   0.932   7.294   4.942
11616TIP3   OH234788   4.769   1.418   6.103
11616TIP3    H134789   4.780   1.513   6.108
11616TIP3    H234790   4.734   1.393   6.189
11617TIP3   OH234791   2.977   0.630   5.927
11617TIP3    H134792   2.986   0.689   6.002
11617TIP3    H234793   2.941   0.685   5.858
11618TIP3   OH234794   4.435   1.150   2.137
11618TIP3    H134795   4.416   1.060   2.164
11618TIP3    H234796   4.445   1.144   2.042
11619TIP3   OH234797   2.564   5.782   6.294
11619TIP3    H134798   2.548   5.747   6.206
11619TIP3    H234799   2.505   5.732   6.350
11620TIP3   OH234800   6.848   6.933   1.299
11620TIP3    H134801   6.795   6.932   1.379
11620TIP3    H234802   6.886   6.846   1.293
11621TIP3   OH234803   4.485   5.418   1.890
11621TIP3    H134804   4.407   5.444   1.938
11621TIP3    H234805   4.502   5.328   1.920
11622TIP3   OH234806   7.374   1.339   2.254
11622TIP3    H134807   7.431   1.342   2.330
11622TIP3    H234808   7.363   1.245   2.236
11623TIP3   OH234809   3.501   7.273   4.313
11623TIP3    H134810   3.511   7.366   4.332
11623TIP3    H234811   3.523   7.265   4.220
11624TIP3   OH234812   1.466   1.296   3.374
11624TIP3    H134813   1.400   1.227   3.381
11624TIP3    H234814   1.546   1.256   3.407
11625TIP3   OH234815   4.437   4.932   3.698
11625TIP3    H134816   4.455   4.866   3.631
11625TIP3    H234817   4.393   4.883   3.769
11626TIP3   OH234818   0.958   6.768   2.006
11626TIP3    H134819   1.048   6.741   2.025
11626TIP3    H234820   0.904   6.698   2.040
11627TIP3   OH234821   1.182   7.067   6.070
11627TIP3    H134822   1.224   7.106   6.146
11627TIP3    H234823   1.172   7.140   6.008
11628TIP3   OH234824   2.314   7.081   1.981
11628TIP3    H134825   2.264   7.109   1.904
11628TIP3    H234826   2.281   7.136   2.052
11629TIP3   OH234827   8.102   3.433   5.094
11629TIP3    H134828   8.101   3.339   5.113
11629TIP3    H234829   8.023   3.467   5.136
11630TIP3   OH234830   5.419   3.080   3.518
11630TIP3    H134831   5.415   2.991   3.484
11630TIP3    H234832   5.329   3.113   3.511
11631TIP3   OH234833   7.452   3.315   1.073
11631TIP3    H134834   7.411   3.391   1.032
11631TIP3    H234835   7.501   3.272   1.003
11632TIP3   OH234836   4.570   2.739   3.178
11632TIP3    H134837   4.595   2.832   3.180
11632TIP3    H234838   4.608   2.706   3.097
11633TIP3   OH234839   8.034   7.803   1.648
11633TIP3    H134840   8.104   7.863   1.673
11633TIP3    H234841   8.071   7.716   1.664
11634TIP3   OH234842   4.911   2.721   3.903
11634TIP3    H134843   4.858   2.796   3.879
11634TIP3    H234844   4.861   2.677   3.972
11635TIP3   OH234845   1.364   6.161   6.078
11635TIP3    H134846   1.324   6.101   6.014
11635TIP3    H234847   1.361   6.246   6.035
11636TIP3   OH234848   4.572   3.502   6.693
11636TIP3    H134849   4.545   3.493   6.602
11636TIP3    H234850   4.529   3.429   6.738
11637TIP3   OH234851   2.127   4.807   6.227
11637TIP3    H134852   2.138   4.902   6.236
11637TIP3    H234853   2.059   4.797   6.161
11638TIP3   OH234854   6.070   0.418   6.241
11638TIP3    H134855   6.124   0.340   6.256
11638TIP3    H234856   5.980   0.384   6.237
11639TIP3   OH234857   1.629   1.120   4.249
11639TIP3    H134858   1.671   1.085   4.171
11639TIP3    H234859   1.604   1.209   4.225
11640TIP3   OH234860   2.978   7.305   6.254
11640TIP3    H134861   2.932   7.310   6.170
11640TIP3    H234862   3.052   7.247   6.237
11641TIP3   OH234863   3.517   0.517   5.207
11641TIP3    H134864   3.544   0.542   5.295
11641TIP3    H234865   3.485   0.598   5.168
11642TIP3   OH234866   4.226   2.893   4.354
11642TIP3    H134867   4.310   2.897   4.399
11642TIP3    H234868   4.161   2.896   4.424
11643TIP3   OH234869   4.347   6.247   0.749
11643TIP3    H134870   4.280   6.311   0.727
11643TIP3    H234871   4.327   6.171   0.695
11644TIP3   OH234872   7.383   4.829   3.120
11644TIP3    H134873   7.332   4.867   3.192
11644TIP3    H234874   7.320   4.818   3.049
11645TIP3   OH234875   6.339   5.519   0.052
11645TIP3    H134876   6.296   5.434   0.058
11645TIP3    H234877   6.374   5.522  -0.037
11646TIP3   OH234878   4.116   4.865   4.658
11646TIP3    H134879   4.149   4.953   4.640
11646TIP3    H234880   4.090   4.867   4.750
11647TIP3   OH234881   1.473   6.426   1.689
11647TIP3    H134882   1.505   6.387   1.607
11647TIP3    H234883   1.549   6.427   1.747
11648TIP3   OH234884   4.233   5.991   5.295
11648TIP3    H134885   4.228   5.939   5.215
11648TIP3    H234886   4.325   6.017   5.301
11649TIP3   OH234887   3.841   4.838   2.627
11649TIP3    H134888   3.898   4.915   2.633
11649TIP3    H234889   3.818   4.818   2.718
11650TIP3   OH234890   3.793   7.747   3.573
11650TIP3    H134891   3.699   7.756   3.586
11650TIP3    H234892   3.817   7.671   3.627
11651TIP3   OH234893   0.484   3.587   6.866
11651TIP3    H134894   0.549   3.540   6.814
11651TIP3    H234895   0.400   3.552   6.836
11652TIP3   OH234896   1.346   4.086   2.227
11652TIP3    H134897   1.375   4.126   2.308
11652TIP3    H234898   1.260   4.048   2.248
11653TIP3   OH234899   7.624   0.246   1.715
11653TIP3    H134900   7.636   0.303   1.791
11653TIP3    H234901   7.601   0.306   1.644
11654TIP3   OH234902   2.552   5.518   4.732
11654TIP3    H134903   2.521   5.497   4.820
11654TIP3    H234904   2.553   5.614   4.730
11655TIP3   OH234905   7.424   4.628   2.436
11655TIP3    H134906   7.374   4.645   2.515
11655TIP3    H234907   7.475   4.708   2.422
11656TIP3   OH234908   7.806   7.185   3.928
11656TIP3    H134909   7.776   7.224   4.010
11656TIP3    H234910   7.897   7.160   3.945
11657TIP3   OH234911   3.121   2.018   0.032
11657TIP3    H134912   3.080   1.945   0.079
11657TIP3    H234913   3.049   2.058  -0.017
11658TIP3   OH234914   1.790   5.956   1.504
11658TIP3    H134915   1.795   5.972   1.409
11658TIP3    H234916   1.752   5.869   1.512
11659TIP3   OH234917   4.116   5.937   5.547
11659TIP3    H134918   4.142   5.947   5.456
11659TIP3    H234919   4.139   6.021   5.587
11660TIP3   OH234920   4.139   1.929   0.410
11660TIP3    H134921   4.107   2.014   0.440
11660TIP3    H234922   4.061   1.886   0.373
11661TIP3   OH234923   7.990   7.305   3.286
11661TIP3    H134924   7.922   7.311   3.353
11661TIP3    H234925   8.072   7.304   3.334
11662TIP3   OH234926   2.708   3.529   1.662
11662TIP3    H134927   2.642   3.491   1.721
11662TIP3    H234928   2.752   3.453   1.624
11663TIP3   OH234929   4.749   6.719   5.539
11663TIP3    H134930   4.806   6.648   5.570
11663TIP3    H234931   4.704   6.683   5.463
11664TIP3   OH234932   2.640   3.078   4.142
11664TIP3    H134933   2.578   3.150   4.130
11664TIP3    H234934   2.685   3.070   4.057
11665TIP3   OH234935   0.404   6.053   1.770
11665TIP3    H134936   0.418   6.110   1.846
11665TIP3    H234937   0.395   5.965   1.808
11666TIP3   OH234938   7.075   2.706   4.771
11666TIP3    H134939   7.019   2.773   4.732
11666TIP3    H234940   7.046   2.624   4.732
11667TIP3   OH234941   1.830   2.694   0.068
11667TIP3    H134942   1.769   2.702   0.142
11667TIP3    H234943   1.909   2.739   0.098
11668TIP3   OH234944   8.337   0.977   5.444
11668TIP3    H134945   8.396   1.048   5.469
11668TIP3    H234946   8.272   1.019   5.387
11669TIP3   OH234947   4.630   1.142   6.555
11669TIP3    H134948   4.704   1.111   6.501
11669TIP3    H234949   4.583   1.062   6.579
11670TIP3   OH234950   2.223   4.634   1.580
11670TIP3    H134951   2.178   4.671   1.504
11670TIP3    H234952   2.281   4.704   1.610
11671TIP3   OH234953   3.839   7.162   0.742
11671TIP3    H134954   3.797   7.082   0.773
11671TIP3    H234955   3.793   7.233   0.788
11672TIP3   OH234956   1.357   5.649   2.792
11672TIP3    H134957   1.443   5.605   2.791
11672TIP3    H234958   1.372   5.729   2.842
11673TIP3   OH234959   6.845   7.083   5.368
11673TIP3    H134960   6.862   7.159   5.312
11673TIP3    H234961   6.931   7.046   5.384
11674TIP3   OH234962   7.361   4.553   1.527
11674TIP3    H134963   7.389   4.474   1.481
11674TIP3    H234964   7.385   4.538   1.618
11675TIP3   OH234965   1.977   5.200   2.038
11675TIP3    H134966   2.000   5.108   2.051
11675TIP3    H234967   1.987   5.214   1.944
11676TIP3   OH234968   0.415   0.303   1.830
11676TIP3    H134969   0.429   0.208   1.833
11676TIP3    H234970   0.367   0.317   1.748
11677TIP3   OH234971   3.858   7.784   1.144
11677TIP3    H134972   3.820   7.872   1.145
11677TIP3    H234973   3.938   7.793   1.092
11678TIP3   OH234974   0.455   1.159   5.311
11678TIP3    H134975   0.543   1.171   5.275
11678TIP3    H234976   0.464   1.183   5.403
11679TIP3   OH234977   5.093   0.649   0.264
11679TIP3    H134978   5.088   0.733   0.217
11679TIP3    H234979   5.180   0.648   0.303
11680TIP3   OH234980   4.058   7.150   3.145
11680TIP3    H134981   3.978   7.170   3.194
11680TIP3    H234982   4.122   7.212   3.178
11681TIP3   OH234983   7.818   7.885   1.993
11681TIP3    H134984   7.782   7.897   1.905
11681TIP3    H234985   7.861   7.968   2.013
11682TIP3   OH234986   4.474   2.323   0.206
11682TIP3    H134987   4.546   2.348   0.148
11682TIP3    H234988   4.466   2.397   0.266
11683TIP3   OH234989   1.287   1.582   5.327
11683TIP3    H134990   1.262   1.605   5.237
11683TIP3    H234991   1.224   1.514   5.352
11684TIP3   OH234992   5.853   0.954   3.586
11684TIP3    H134993   5.921   0.936   3.522
11684TIP3    H234994   5.825   0.867   3.616
11685TIP3   OH234995   4.415   7.447   0.344
11685TIP3    H134996   4.477   7.436   0.272
11685TIP3    H234997   4.434   7.534   0.379
11686TIP3   OH234998   6.814   1.845   0.945
11686TIP3    H134999   6.803   1.931   0.904
11686TIP3    H235000   6.906   1.824   0.929
11687TIP3   OH235001   0.477   5.981   2.828
11687TIP3    H135002   0.554   5.933   2.858
11687TIP3    H235003   0.481   6.064   2.874
11688TIP3   OH235004   7.669   1.562   3.835
11688TIP3    H135005   7.710   1.612   3.905
11688TIP3    H235006   7.612   1.499   3.880
11689TIP3   OH235007   7.471   5.171   0.918
11689TIP3    H135008   7.545   5.231   0.925
11689TIP3    H235009   7.500   5.093   0.966
11690TIP3   OH235010   7.701   0.631   6.095
11690TIP3    H135011   7.776   0.672   6.138
11690TIP3    H235012   7.647   0.600   6.167
11691TIP3   OH235013   2.338   3.068   2.717
11691TIP3    H135014   2.329   2.989   2.771
11691TIP3    H235015   2.346   3.035   2.628
11692TIP3   OH235016   6.991   7.670   3.909
11692TIP3    H135017   6.995   7.594   3.966
11692TIP3    H235018   6.902   7.704   3.919
11693TIP3   OH235019   6.035   4.381   4.647
11693TIP3    H135020   6.003   4.292   4.663
11693TIP3    H235021   6.092   4.372   4.570
11694TIP3   OH235022   1.712   3.279   2.498
11694TIP3    H135023   1.730   3.267   2.591
11694TIP3    H235024   1.620   3.255   2.488
11695TIP3   OH235025   6.059   7.594   4.260
11695TIP3    H135026   6.072   7.607   4.354
11695TIP3    H235027   6.089   7.504   4.244
11696TIP3   OH235028   1.830   1.278   2.167
11696TIP3    H135029   1.860   1.242   2.250
11696TIP3    H235030   1.818   1.202   2.110
11697TIP3   OH235031   3.723   0.182   2.442
11697TIP3    H135032   3.684   0.220   2.363
11697TIP3    H235033   3.720   0.252   2.506
11698TIP3   OH235034   6.298   5.403   4.271
11698TIP3    H135035   6.301   5.336   4.339
11698TIP3    H235036   6.387   5.440   4.271
11699TIP3   OH235037   2.622   7.130   3.558
11699TIP3    H135038   2.532   7.127   3.523
11699TIP3    H235039   2.619   7.200   3.623
11700TIP3   OH235040   1.895   1.058   6.615
11700TIP3    H135041   1.947   1.073   6.536
11700TIP3    H235042   1.810   1.096   6.596
11701TIP3   OH235043   8.340   7.011   5.018
11701TIP3    H135044   8.251   6.986   5.042
11701TIP3    H235045   8.391   6.999   5.099
11702TIP3   OH235046   0.913   4.609   3.079
11702TIP3    H135047   0.951   4.612   2.991
11702TIP3    H235048   0.819   4.596   3.065
11703TIP3   OH235049   6.631   2.659   1.124
11703TIP3    H135050   6.663   2.597   1.059
11703TIP3    H235051   6.671   2.742   1.099
11704TIP3   OH235052   3.330   2.254   6.027
11704TIP3    H135053   3.257   2.193   6.044
11704TIP3    H235054   3.355   2.286   6.113
11705TIP3   OH235055   7.979   5.895   6.204
11705TIP3    H135056   7.895   5.898   6.159
11705TIP3    H235057   8.043   5.922   6.138
11706TIP3   OH235058   4.360   0.240   0.341
11706TIP3    H135059   4.407   0.255   0.423
11706TIP3    H235060   4.387   0.311   0.284
11707TIP3   OH235061   6.757   6.882   1.893
11707TIP3    H135062   6.842   6.894   1.849
11707TIP3    H235063   6.713   6.814   1.842
11708TIP3   OH235064   1.003   3.996   0.100
11708TIP3    H135065   0.976   4.081   0.136
11708TIP3    H235066   1.030   4.016   0.011
11709TIP3   OH235067   3.228   1.545   6.723
11709TIP3    H135068   3.263   1.612   6.665
11709TIP3    H235069   3.294   1.535   6.792
11710TIP3   OH235070   3.000   5.100   5.154
11710TIP3    H135071   3.000   5.006   5.135
11710TIP3    H235072   3.060   5.109   5.229
11711TIP3   OH235073   1.087   7.244   0.305
11711TIP3    H135074   0.999   7.206   0.300
11711TIP3    H235075   1.082   7.321   0.249
11712TIP3   OH235076   4.428   0.124   6.058
11712TIP3    H135077   4.496   0.139   5.993
11712TIP3    H235078   4.356   0.181   6.032
11713TIP3   OH235079   5.501   4.405   1.165
11713TIP3    H135080   5.583   4.400   1.117
11713TIP3    H235081   5.462   4.318   1.155
11714TIP3   OH235082   1.111   2.067   6.447
11714TIP3    H135083   1.188   2.123   6.439
11714TIP3    H235084   1.056   2.092   6.373
11715TIP3   OH235085   0.384   1.950   1.388
11715TIP3    H135086   0.334   2.031   1.387
11715TIP3    H235087   0.443   1.958   1.313
11716TIP3   OH235088   3.921   6.793   0.559
11716TIP3    H135089   3.882   6.707   0.541
11716TIP3    H235090   3.852   6.856   0.540
11717TIP3   OH235091   8.024   3.415   3.011
11717TIP3    H135092   8.085   3.485   3.032
11717TIP3    H235093   8.068   3.364   2.944
11718TIP3   OH235094   2.485   3.160   5.913
11718TIP3    H135095   2.552   3.098   5.885
11718TIP3    H235096   2.521   3.199   5.993
11719TIP3   OH235097   2.629   7.751   1.159
11719TIP3    H135098   2.635   7.762   1.064
11719TIP3    H235099   2.536   7.765   1.179
11720TIP3   OH235100   0.732   3.250   5.124
11720TIP3    H135101   0.710   3.321   5.184
11720TIP3    H235102   0.756   3.293   5.042
11721TIP3   OH235103   2.220   3.301   4.176
11721TIP3    H135104   2.215   3.230   4.241
11721TIP3    H235105   2.314   3.312   4.161
11722TIP3   OH235106   6.393   5.626   6.350
11722TIP3    H135107   6.360   5.617   6.439
11722TIP3    H235108   6.318   5.605   6.295
11723TIP3   OH235109   3.569   5.489   5.966
11723TIP3    H135110   3.553   5.541   5.888
11723TIP3    H235111   3.508   5.416   5.960
11724TIP3   OH235112   2.811   4.794   6.227
11724TIP3    H135113   2.903   4.823   6.230
11724TIP3    H235114   2.811   4.711   6.275
11725TIP3   OH235115   6.727   1.865   5.777
11725TIP3    H135116   6.775   1.874   5.860
11725TIP3    H235117   6.735   1.773   5.754
11726TIP3   OH235118   5.843   2.867   5.509
11726TIP3    H135119   5.879   2.786   5.544
11726TIP3    H235120   5.850   2.856   5.414
11727TIP3   OH235121   4.793   0.761   5.109
11727TIP3    H135122   4.835   0.676   5.096
11727TIP3    H235123   4.801   0.778   5.202
11728TIP3   OH235124   3.719   4.961   6.083
11728TIP3    H135125   3.776   5.034   6.104
11728TIP3    H235126   3.631   4.990   6.109
11729TIP3   OH235127   5.312   2.312   1.409
11729TIP3    H135128   5.249   2.376   1.375
11729TIP3    H235129   5.258   2.245   1.452
11730TIP3   OH235130   7.760   3.834   0.966
11730TIP3    H135131   7.698   3.764   0.987
11730TIP3    H235132   7.836   3.787   0.931
11731TIP3   OH235133   8.219   0.089   1.838
11731TIP3    H135134   8.126   0.097   1.858
11731TIP3    H235135   8.241  -0.002   1.858
11732TIP3   OH235136   6.844   0.853   5.628
11732TIP3    H135137   6.806   0.775   5.668
11732TIP3    H235138   6.885   0.823   5.548
11733TIP3   OH235139   3.957   4.226   6.027
11733TIP3    H135140   3.958   4.321   6.025
11733TIP3    H235141   3.986   4.199   5.940
11734TIP3   OH235142   5.680   5.855   4.486
11734TIP3    H135143   5.593   5.885   4.512
11734TIP3    H235144   5.735   5.872   4.563
11735TIP3   OH235145   4.614   5.218   0.035
11735TIP3    H135146   4.623   5.168   0.117
11735TIP3    H235147   4.699   5.260   0.024
11736TIP3   OH235148   7.340   6.729   4.842
11736TIP3    H135149   7.258   6.754   4.799
11736TIP3    H235150   7.391   6.687   4.773
11737TIP3   OH235151   5.235   0.117   2.649
11737TIP3    H135152   5.160   0.095   2.705
11737TIP3    H235153   5.246   0.211   2.661
11738TIP3   OH235154   5.031   4.688   5.406
11738TIP3    H135155   5.023   4.767   5.353
11738TIP3    H235156   5.121   4.659   5.393
11739TIP3   OH235157   7.568   0.375   0.198
11739TIP3    H135158   7.501   0.411   0.139
11739TIP3    H235159   7.647   0.369   0.143
11740TIP3   OH235160   1.520   4.047   1.089
11740TIP3    H135161   1.502   4.140   1.105
11740TIP3    H235162   1.494   4.033   0.998
11741TIP3   OH235163   1.648   0.690   6.788
11741TIP3    H135164   1.608   0.637   6.857
11741TIP3    H235165   1.721   0.735   6.831
11742TIP3   OH235166   7.340   1.763   4.543
11742TIP3    H135167   7.305   1.849   4.565
11742TIP3    H235168   7.362   1.769   4.450
11743TIP3   OH235169   7.512   6.239   3.425
11743TIP3    H135170   7.492   6.259   3.517
11743TIP3    H235171   7.589   6.291   3.405
11744TIP3   OH235172   0.585   6.910   4.628
11744TIP3    H135173   0.578   6.815   4.615
11744TIP3    H235174   0.648   6.939   4.563
11745TIP3   OH235175   7.211   5.169   1.409
11745TIP3    H135176   7.237   5.212   1.490
11745TIP3    H235177   7.119   5.191   1.398
11746TIP3   OH235178   6.370   0.129   3.055
11746TIP3    H135179   6.275   0.123   3.060
11746TIP3    H235180   6.387   0.220   3.029
11747TIP3   OH235181   6.662   2.559   1.870
11747TIP3    H135182   6.659   2.647   1.909
11747TIP3    H235183   6.577   2.549   1.828
11748TIP3   OH235184   5.196   5.957   5.385
11748TIP3    H135185   5.291   5.965   5.386
11748TIP3    H235186   5.172   5.959   5.292
11749TIP3   OH235187   1.103   7.859   0.156
11749TIP3    H135188   1.018   7.817   0.142
11749TIP3    H235189   1.160   7.789   0.185
11750TIP3   OH235190   8.000   5.573   1.370
11750TIP3    H135191   7.993   5.594   1.463
11750TIP3    H235192   8.016   5.478   1.367
11751TIP3   OH235193   6.947   4.187   0.517
11751TIP3    H135194   7.028   4.137   0.522
11751TIP3    H235195   6.939   4.210   0.424
11752TIP3   OH235196   2.233   7.829   4.300
11752TIP3    H135197   2.226   7.918   4.337
11752TIP3    H235198   2.305   7.790   4.349
11753TIP3   OH235199   3.574   6.427   5.718
11753TIP3    H135200   3.584   6.350   5.662
11753TIP3    H235201   3.531   6.394   5.797
11754TIP3   OH235202   0.413   6.011   4.443
11754TIP3    H135203   0.338   6.069   4.450
11754TIP3    H235204   0.486   6.062   4.478
11755TIP3   OH235205   0.475   1.190   4.324
11755TIP3    H135206   0.488   1.231   4.410
11755TIP3    H235207   0.444   1.102   4.345
11756TIP3   OH235208   1.952   5.299   1.346
11756TIP3    H135209   1.883   5.361   1.370
11756TIP3    H235210   1.936   5.223   1.403
11757TIP3   OH235211   1.021   0.973   6.209
11757TIP3    H135212   1.015   0.936   6.297
11757TIP3    H235213   0.992   1.064   6.219
11758TIP3   OH235214   1.382   5.546   0.361
11758TIP3    H135215   1.418   5.610   0.423
11758TIP3    H235216   1.351   5.599   0.287
11759TIP3   OH235217   0.812   6.201   3.092
11759TIP3    H135218   0.801   6.126   3.034
11759TIP3    H235219   0.906   6.218   3.093
11760TIP3   OH235220   5.922   0.536   3.852
11760TIP3    H135221   5.942   0.448   3.884
11760TIP3    H235222   5.895   0.523   3.761
11761TIP3   OH235223   4.599   4.435   2.217
11761TIP3    H135224   4.678   4.391   2.185
11761TIP3    H235225   4.565   4.375   2.284
11762TIP3   OH235226   0.610   4.294   3.258
11762TIP3    H135227   0.519   4.321   3.241
11762TIP3    H235228   0.615   4.287   3.354
11763TIP3   OH235229   5.038   1.688   5.677
11763TIP3    H135230   4.998   1.608   5.713
11763TIP3    H235231   5.064   1.664   5.588
11764TIP3   OH235232   7.166   1.371   3.625
11764TIP3    H135233   7.092   1.331   3.672
11764TIP3    H235234   7.125   1.429   3.560
11765TIP3   OH235235   0.473   5.824   2.576
11765TIP3    H135236   0.476   5.886   2.649
11765TIP3    H235237   0.405   5.858   2.518
11766TIP3   OH235238   1.122   2.758   1.665
11766TIP3    H135239   1.116   2.705   1.585
11766TIP3    H235240   1.204   2.805   1.657
11767TIP3   OH235241   3.995   4.914   5.631
11767TIP3    H135242   3.986   4.939   5.723
11767TIP3    H235243   4.062   4.846   5.630
11768TIP3   OH235244   7.446   2.185   5.343
11768TIP3    H135245   7.388   2.191   5.419
11768TIP3    H235246   7.415   2.108   5.295
11769TIP3   OH235247   6.342   2.424   1.183
11769TIP3    H135248   6.339   2.398   1.275
11769TIP3    H235249   6.289   2.504   1.179
11770TIP3   OH235250   4.269   4.984   2.107
11770TIP3    H135251   4.177   4.973   2.082
11770TIP3    H235252   4.300   4.896   2.128
11771TIP3   OH235253   2.273   5.653   2.023
11771TIP3    H135254   2.194   5.656   1.969
11771TIP3    H235255   2.244   5.622   2.108
11772TIP3   OH235256   5.626   3.675   6.213
11772TIP3    H135257   5.576   3.734   6.269
11772TIP3    H235258   5.716   3.705   6.220
11773TIP3   OH235259   4.284   0.796   4.556
11773TIP3    H135260   4.336   0.742   4.497
11773TIP3    H235261   4.198   0.801   4.515
11774TIP3   OH235262   0.993   5.705   4.585
11774TIP3    H135263   0.924   5.766   4.609
11774TIP3    H235264   0.953   5.618   4.598
11775TIP3   OH235265   0.921   3.640   2.095
11775TIP3    H135266   0.848   3.637   2.033
11775TIP3    H235267   0.916   3.556   2.142
11776TIP3   OH235268   3.180   0.826   1.083
11776TIP3    H135269   3.271   0.848   1.061
11776TIP3    H235270   3.170   0.850   1.175
11777TIP3   OH235271   7.599   7.468   3.335
11777TIP3    H135272   7.563   7.441   3.420
11777TIP3    H235273   7.525   7.506   3.289
11778TIP3   OH235274   0.885   5.184   1.669
11778TIP3    H135275   0.830   5.194   1.591
11778TIP3    H235276   0.847   5.244   1.733
11779TIP3   OH235277   6.877   3.926   0.232
11779TIP3    H135278   6.806   3.976   0.272
11779TIP3    H235279   6.837   3.843   0.208
11780TIP3   OH235280   0.903   6.744   2.311
11780TIP3    H135281   0.952   6.827   2.316
11780TIP3    H235282   0.829   6.763   2.253
11781TIP3   OH235283   7.253   0.780   3.666
11781TIP3    H135284   7.302   0.752   3.743
11781TIP3    H235285   7.173   0.728   3.667
11782TIP3   OH235286   5.502   6.911   2.586
11782TIP3    H135287   5.502   6.973   2.659
11782TIP3    H235288   5.489   6.826   2.627
11783TIP3   OH235289   4.564   4.985   3.252
11783TIP3    H135290   4.514   5.049   3.302
11783TIP3    H235291   4.592   4.920   3.317
11784TIP3   OH235292   7.312   6.064   6.708
11784TIP3    H135293   7.383   6.026   6.657
11784TIP3    H235294   7.337   6.049   6.799
11785TIP3   OH235295   7.008   1.956   4.670
11785TIP3    H135296   7.066   1.891   4.709
11785TIP3    H235297   6.938   1.968   4.734
11786TIP3   OH235298   3.427   6.402   6.404
11786TIP3    H135299   3.414   6.315   6.368
11786TIP3    H235300   3.510   6.396   6.451
11787TIP3   OH235301   7.865   7.019   5.895
11787TIP3    H135302   7.882   6.939   5.944
11787TIP3    H235303   7.921   7.085   5.935
11788TIP3   OH235304   2.165   7.068   4.718
11788TIP3    H135305   2.137   7.056   4.627
11788TIP3    H235306   2.091   7.112   4.759
11789TIP3   OH235307   1.987   0.527   6.327
11789TIP3    H135308   2.061   0.467   6.339
11789TIP3    H235309   1.993   0.587   6.401
11790TIP3   OH235310   6.647   2.446   0.449
11790TIP3    H135311   6.641   2.517   0.513
11790TIP3    H235312   6.650   2.366   0.501
11791TIP3   OH235313   3.687   4.420   3.900
11791TIP3    H135314   3.599   4.385   3.885
11791TIP3    H235315   3.697   4.487   3.832
11792TIP3   OH235316   2.571   5.973   5.297
11792TIP3    H135317   2.480   6.000   5.291
11792TIP3    H235318   2.608   5.994   5.211
11793TIP3   OH235319   7.428   4.268   5.586
11793TIP3    H135320   7.433   4.336   5.652
11793TIP3    H235321   7.352   4.216   5.610
11794TIP3   OH235322   3.122   1.311   2.732
11794TIP3    H135323   3.172   1.333   2.654
11794TIP3    H235324   3.097   1.219   2.720
11795TIP3   OH235325   5.355   1.012   5.092
11795TIP3    H135326   5.424   1.033   5.029
11795TIP3    H235327   5.299   1.090   5.093
11796TIP3   OH235328   7.127   2.554   4.366
11796TIP3    H135329   7.150   2.647   4.362
11796TIP3    H235330   7.055   2.549   4.429
11797TIP3   OH235331   1.282   7.701   3.387
11797TIP3    H135332   1.323   7.787   3.382
11797TIP3    H235333   1.317   7.654   3.311
11798TIP3   OH235334   5.484   4.983   2.868
11798TIP3    H135335   5.497   5.045   2.940
11798TIP3    H235336   5.496   5.036   2.789
11799TIP3   OH235337   7.671   2.603   3.267
11799TIP3    H135338   7.730   2.666   3.309
11799TIP3    H235339   7.715   2.580   3.185
11800TIP3   OH235340   1.796   5.719   2.652
11800TIP3    H135341   1.701   5.715   2.652
11800TIP3    H235342   1.820   5.751   2.739
11801TIP3   OH235343   1.368   3.832   4.862
11801TIP3    H135344   1.461   3.818   4.846
11801TIP3    H235345   1.361   3.841   4.957
11802TIP3   OH235346   2.375   7.597   0.460
11802TIP3    H135347   2.454   7.544   0.449
11802TIP3    H235348   2.366   7.643   0.376
11803TIP3   OH235349   8.034   1.933   5.433
11803TIP3    H135350   7.988   1.874   5.493
11803TIP3    H235351   8.073   1.875   5.368
11804TIP3   OH235352   8.068   1.342   2.547
11804TIP3    H135353   8.082   1.411   2.482
11804TIP3    H235354   7.977   1.315   2.533
11805TIP3   OH235355   5.334   4.538   4.906
11805TIP3    H135356   5.352   4.563   4.815
11805TIP3    H235357   5.300   4.449   4.900
11806TIP3   OH235358   5.375   0.169   1.927
11806TIP3    H135359   5.301   0.202   1.875
11806TIP3    H235360   5.438   0.138   1.862
11807TIP3   OH235361   6.076   0.937   1.909
11807TIP3    H135362   6.119   0.853   1.924
11807TIP3    H235363   6.120   0.972   1.831
11808TIP3   OH235364   0.179   7.860   5.387
11808TIP3    H135365   0.211   7.771   5.377
11808TIP3    H235366   0.223   7.910   5.318
11809TIP3   OH235367   4.543   7.241   4.738
11809TIP3    H135368   4.628   7.222   4.776
11809TIP3    H235369   4.487   7.169   4.766
11810TIP3   OH235370   8.073   6.293   1.161
11810TIP3    H135371   7.984   6.287   1.126
11810TIP3    H235372   8.080   6.218   1.221
11811TIP3   OH235373   3.634   5.835   3.041
11811TIP3    H135374   3.632   5.923   3.078
11811TIP3    H235375   3.607   5.779   3.114
11812TIP3   OH235376   1.843   1.619   2.397
11812TIP3    H135377   1.838   1.589   2.307
11812TIP3    H235378   1.916   1.681   2.397
11813TIP3   OH235379   5.189   4.790   4.719
11813TIP3    H135380   5.246   4.836   4.658
11813TIP3    H235381   5.153   4.859   4.775
11814TIP3   OH235382   7.419   6.785   1.744
11814TIP3    H135383   7.430   6.751   1.833
11814TIP3    H235384   7.487   6.851   1.735
11815TIP3   OH235385   2.077   4.003   5.210
11815TIP3    H135386   2.072   4.096   5.232
11815TIP3    H235387   2.171   3.987   5.199
11816TIP3   OH235388   0.085   3.550   4.353
11816TIP3    H135389   0.091   3.631   4.405
11816TIP3    H235390   0.144   3.489   4.397
11817TIP3   OH235391   2.232   2.016   2.014
11817TIP3    H135392   2.203   2.063   2.092
11817TIP3    H235393   2.175   1.939   2.010
11818TIP3   OH235394   4.123   6.899   5.956
11818TIP3    H135395   4.205   6.871   5.914
11818TIP3    H235396   4.077   6.817   5.976
11819TIP3   OH235397   2.972   7.134   1.889
11819TIP3    H135398   2.966   7.059   1.948
11819TIP3    H235399   2.905   7.118   1.823
11820TIP3   OH235400   5.472   0.064   3.932
11820TIP3    H135401   5.412   0.130   3.898
11820TIP3    H235402   5.476  -0.003   3.864
11821TIP3   OH235403   6.708   5.757   1.824
11821TIP3    H135404   6.762   5.687   1.787
11821TIP3    H235405   6.765   5.801   1.887
11822TIP3   OH235406   2.305   5.831   0.116
11822TIP3    H135407   2.387   5.866   0.082
11822TIP3    H235408   2.240   5.850   0.048
11823TIP3   OH235409   1.377   7.794   1.656
11823TIP3    H135410   1.361   7.703   1.682
11823TIP3    H235411   1.296   7.821   1.612
11824TIP3   OH235412   0.163   7.167   4.571
11824TIP3    H135413   0.223   7.233   4.606
11824TIP3    H235414   0.083   7.177   4.622
11825TIP3   OH235415   1.649   7.559   5.343
11825TIP3    H135416   1.688   7.473   5.328
11825TIP3    H235417   1.676   7.611   5.268
11826TIP3   OH235418   4.419   1.956   5.076
11826TIP3    H135419   4.492   1.999   5.120
11826TIP3    H235420   4.454   1.929   4.991
11827TIP3   OH235421   6.016   3.511   6.104
11827TIP3    H135422   6.079   3.564   6.056
11827TIP3    H235423   6.065   3.434   6.132
11828TIP3   OH235424   2.605   3.169   2.716
11828TIP3    H135425   2.632   3.204   2.801
11828TIP3    H235426   2.511   3.154   2.724
11829TIP3   OH235427   1.898   0.502   2.564
11829TIP3    H135428   1.894   0.561   2.640
11829TIP3    H235429   1.813   0.513   2.522
11830TIP3   OH235430   6.330   7.036   4.290
11830TIP3    H135431   6.385   7.115   4.289
11830TIP3    H235432   6.310   7.022   4.383
11831TIP3   OH235433   4.630   2.699   6.024
11831TIP3    H135434   4.623   2.634   5.954
11831TIP3    H235435   4.688   2.766   5.988
11832TIP3   OH235436   2.929   3.619   6.212
11832TIP3    H135437   2.930   3.641   6.119
11832TIP3    H235438   2.840   3.638   6.240
11833TIP3   OH235439   6.446   1.881   0.776
11833TIP3    H135440   6.361   1.910   0.741
11833TIP3    H235441   6.501   1.959   0.772
11834TIP3   OH235442   3.569   6.935   5.042
11834TIP3    H135443   3.602   7.017   5.004
11834TIP3    H235444   3.491   6.914   4.991
11835TIP3   OH235445   5.106   1.456   2.103
11835TIP3    H135446   5.196   1.456   2.137
11835TIP3    H235447   5.088   1.363   2.086
11836TIP3   OH235448   5.038   2.984   4.940
11836TIP3    H135449   5.081   3.066   4.918
11836TIP3    H235450   4.945   2.999   4.921
11837TIP3   OH235451   4.936   5.033   1.812
11837TIP3    H135452   4.991   4.955   1.817
11837TIP3    H235453   4.908   5.036   1.720
11838TIP3   OH235454   7.433   5.275   5.542
11838TIP3    H135455   7.405   5.332   5.470
11838TIP3    H235456   7.511   5.231   5.509
11839TIP3   OH235457   2.002   7.133   3.713
11839TIP3    H135458   1.999   7.102   3.623
11839TIP3    H235459   2.053   7.067   3.760
11840TIP3   OH235460   1.943   3.204   2.135
11840TIP3    H135461   1.973   3.295   2.142
11840TIP3    H235462   2.020   3.152   2.159
11841TIP3   OH235463   4.370   5.961   2.714
11841TIP3    H135464   4.336   5.980   2.626
11841TIP3    H235465   4.465   5.958   2.703
11842TIP3   OH235466   4.772   2.911   0.344
11842TIP3    H135467   4.808   2.954   0.422
11842TIP3    H235468   4.833   2.933   0.274
11843TIP3   OH235469   5.234   2.207   2.368
11843TIP3    H135470   5.248   2.281   2.426
11843TIP3    H235471   5.231   2.245   2.280
11844TIP3   OH235472   3.878   5.267   5.289
11844TIP3    H135473   3.963   5.225   5.301
11844TIP3    H235474   3.882   5.346   5.343
11845TIP3   OH235475   7.611   0.705   3.582
11845TIP3    H135476   7.618   0.642   3.654
11845TIP3    H235477   7.537   0.673   3.529
11846TIP3   OH235478   2.713   2.985   6.615
11846TIP3    H135479   2.632   2.968   6.566
11846TIP3    H235480   2.761   3.046   6.559
11847TIP3   OH235481   5.880   2.335   6.287
11847TIP3    H135482   5.933   2.255   6.290
11847TIP3    H235483   5.890   2.367   6.198
11848TIP3   OH235484   7.220   1.296   0.855
11848TIP3    H135485   7.290   1.265   0.913
11848TIP3    H235486   7.147   1.237   0.872
11849TIP3   OH235487   2.713   4.283   1.258
11849TIP3    H135488   2.662   4.239   1.326
11849TIP3    H235489   2.790   4.227   1.247
11850TIP3   OH235490   1.754   2.450   4.000
11850TIP3    H135491   1.793   2.516   3.942
11850TIP3    H235492   1.823   2.430   4.063
11851TIP3   OH235493   1.366   2.830   6.730
11851TIP3    H135494   1.290   2.797   6.683
11851TIP3    H235495   1.432   2.761   6.721
11852TIP3   OH235496   3.618   7.819   5.263
11852TIP3    H135497   3.626   7.765   5.342
11852TIP3    H235498   3.530   7.857   5.269
11853TIP3   OH235499   1.322   2.159   3.853
11853TIP3    H135500   1.231   2.133   3.862
11853TIP3    H235501   1.370   2.076   3.843
11854TIP3   OH235502   5.060   5.975   6.069
11854TIP3    H135503   5.008   6.008   6.141
11854TIP3    H235504   5.092   6.053   6.024
11855TIP3   OH235505   6.777   4.930   5.370
11855TIP3    H135506   6.871   4.930   5.388
11855TIP3    H235507   6.749   4.840   5.383
11856TIP3   OH235508   1.590   4.974   2.114
11856TIP3    H135509   1.574   4.891   2.068
11856TIP3    H235510   1.536   5.038   2.068
11857TIP3   OH235511   1.024   3.391   3.064
11857TIP3    H135512   0.969   3.470   3.061
11857TIP3    H235513   0.969   3.325   3.105
11858TIP3   OH235514   8.014   2.667   0.655
11858TIP3    H135515   7.946   2.629   0.599
11858TIP3    H235516   7.967   2.730   0.710
11859TIP3   OH235517   4.960   6.112   4.533
11859TIP3    H135518   4.918   6.101   4.448
11859TIP3    H235519   5.031   6.174   4.517
11860TIP3   OH235520   1.746   0.634   3.067
11860TIP3    H135521   1.666   0.621   3.017
11860TIP3    H235522   1.728   0.594   3.152
11861TIP3   OH235523   2.042   6.135   3.234
11861TIP3    H135524   2.108   6.157   3.299
11861TIP3    H235525   1.983   6.210   3.232
11862TIP3   OH235526   3.419   0.414   3.616
11862TIP3    H135527   3.411   0.503   3.582
11862TIP3    H235528   3.329   0.383   3.624
11863TIP3   OH235529   0.431   1.710   0.322
11863TIP3    H135530   0.355   1.764   0.341
11863TIP3    H235531   0.495   1.734   0.388
11864TIP3   OH235532   3.396   4.278   6.761
11864TIP3    H135533   3.476   4.243   6.721
11864TIP3    H235534   3.404   4.373   6.749
11865TIP3   OH235535   6.585   1.780   6.717
11865TIP3    H135536   6.610   1.864   6.756
11865TIP3    H235537   6.501   1.798   6.674
11866TIP3   OH235538   7.425   2.652   3.107
11866TIP3    H135539   7.498   2.602   3.143
11866TIP3    H235540   7.347   2.606   3.138
11867TIP3   OH235541   4.644   0.541   4.727
11867TIP3    H135542   4.723   0.534   4.674
11867TIP3    H235543   4.573   0.519   4.667
11868TIP3   OH235544   5.438   2.310   2.109
11868TIP3    H135545   5.343   2.300   2.110
11868TIP3    H235546   5.452   2.399   2.077
11869TIP3   OH235547   5.881   4.803   5.515
11869TIP3    H135548   5.824   4.830   5.444
11869TIP3    H235549   5.824   4.799   5.592
11870TIP3   OH235550   2.325   6.584   3.212
11870TIP3    H135551   2.333   6.676   3.235
11870TIP3    H235552   2.251   6.581   3.152
11871TIP3   OH235553   2.077   3.893   2.405
11871TIP3    H135554   2.066   3.973   2.354
11871TIP3    H235555   2.121   3.832   2.346
11872TIP3   OH235556   2.284   1.720   5.890
11872TIP3    H135557   2.253   1.789   5.948
11872TIP3    H235558   2.205   1.685   5.849
11873TIP3   OH235559   6.115   0.526   3.129
11873TIP3    H135560   6.041   0.481   3.169
11873TIP3    H235561   6.125   0.484   3.043
11874TIP3   OH235562   0.998   4.628   6.160
11874TIP3    H135563   1.009   4.629   6.065
11874TIP3    H235564   1.022   4.716   6.188
11875TIP3   OH235565   3.422   0.385   4.521
11875TIP3    H135566   3.466   0.382   4.436
11875TIP3    H235567   3.406   0.293   4.543
11876TIP3   OH235568   5.305   3.939   5.933
11876TIP3    H135569   5.227   3.992   5.915
11876TIP3    H235570   5.271   3.850   5.942
11877TIP3   OH235571   1.113   6.997   3.085
11877TIP3    H135572   1.159   7.062   3.032
11877TIP3    H235573   1.171   6.921   3.086
11878TIP3   OH235574   0.427   6.825   2.673
11878TIP3    H135575   0.461   6.860   2.756
11878TIP3    H235576   0.460   6.735   2.671
11879TIP3   OH235577   2.503   6.493   6.356
11879TIP3    H135578   2.495   6.565   6.294
11879TIP3    H235579   2.571   6.437   6.320
11880TIP3   OH235580   2.531   5.443   1.106
11880TIP3    H135581   2.501   5.354   1.088
11880TIP3    H235582   2.618   5.447   1.068
11881TIP3   OH235583   3.904   3.709   3.263
11881TIP3    H135584   3.981   3.763   3.248
11881TIP3    H235585   3.937   3.632   3.309
11882TIP3   OH235586   1.446   0.717   5.742
11882TIP3    H135587   1.404   0.651   5.687
11882TIP3    H235588   1.379   0.785   5.754
11883TIP3   OH235589   4.287   2.723   3.103
11883TIP3    H135590   4.372   2.765   3.120
11883TIP3    H235591   4.308   2.649   3.046
11884TIP3   OH235592   0.510   4.001   3.110
11884TIP3    H135593   0.501   4.021   3.016
11884TIP3    H235594   0.544   3.912   3.112
11885TIP3   OH235595   8.159   2.114   6.342
11885TIP3    H135596   8.108   2.082   6.268
11885TIP3    H235597   8.249   2.087   6.323
11886TIP3   OH235598   1.449   0.063   6.847
11886TIP3    H135599   1.533   0.018   6.844
11886TIP3    H235600   1.424   0.072   6.755
11887TIP3   OH235601   5.571   1.405   5.008
11887TIP3    H135602   5.508   1.410   4.936
11887TIP3    H235603   5.603   1.495   5.018
11888TIP3   OH235604   8.227   6.687   4.430
11888TIP3    H135605   8.309   6.712   4.387
11888TIP3    H235606   8.245   6.696   4.524
11889TIP3   OH235607   3.566   3.459   3.801
11889TIP3    H135608   3.526   3.373   3.812
11889TIP3    H235609   3.658   3.440   3.782
11890TIP3   OH235610   4.844   1.062   5.066
11890TIP3    H135611   4.869   0.972   5.084
11890TIP3    H235612   4.749   1.061   5.062
11891TIP3   OH235613   3.993   2.524   2.375
11891TIP3    H135614   4.077   2.570   2.364
11891TIP3    H235615   3.973   2.534   2.468
11892TIP3   OH235616   2.302   5.604   1.063
11892TIP3    H135617   2.333   5.687   1.027
11892TIP3    H235618   2.382   5.554   1.080
11893TIP3   OH235619   6.633   7.264   2.431
11893TIP3    H135620   6.660   7.352   2.457
11893TIP3    H235621   6.543   7.255   2.463
11894TIP3   OH235622   3.260   0.586   4.515
11894TIP3    H135623   3.313   0.506   4.512
11894TIP3    H235624   3.248   0.603   4.608
11895TIP3   OH235625   0.836   7.759   0.505
11895TIP3    H135626   0.852   7.678   0.457
11895TIP3    H235627   0.809   7.731   0.592
11896TIP3   OH235628   6.010   1.346   4.983
11896TIP3    H135629   6.042   1.283   5.047
11896TIP3    H235630   6.067   1.334   4.907
11897TIP3   OH235631   7.900   0.815   3.638
11897TIP3    H135632   7.805   0.801   3.634
11897TIP3    H235633   7.909   0.903   3.676
11898TIP3   OH235634   4.090   2.123   6.300
11898TIP3    H135635   4.060   2.126   6.391
11898TIP3    H235636   4.185   2.124   6.305
11899TIP3   OH235637   7.610   3.992   6.361
11899TIP3    H135638   7.615   4.081   6.327
11899TIP3    H235639   7.700   3.960   6.357
11900TIP3   OH235640   3.176   2.943   0.402
11900TIP3    H135641   3.139   3.001   0.469
11900TIP3    H235642   3.232   3.000   0.349
11901TIP3   OH235643   1.605   4.327   4.043
11901TIP3    H135644   1.581   4.412   4.080
11901TIP3    H235645   1.642   4.278   4.117
11902TIP3   OH235646   2.595   5.922   1.785
11902TIP3    H135647   2.688   5.929   1.808
11902TIP3    H235648   2.593   5.946   1.692
11903TIP3   OH235649   2.892   2.809   5.031
11903TIP3    H135650   2.987   2.799   5.020
11903TIP3    H235651   2.877   2.903   5.030
11904TIP3   OH235652   6.100   2.992   2.124
11904TIP3    H135653   6.064   2.942   2.049
11904TIP3    H235654   6.191   2.963   2.130
11905TIP3   OH235655   7.172   5.478   6.538
11905TIP3    H135656   7.194   5.498   6.629
11905TIP3    H235657   7.205   5.553   6.489
11906TIP3   OH235658   2.750   1.866   3.519
11906TIP3    H135659   2.825   1.845   3.575
11906TIP3    H235660   2.674   1.834   3.568
11907TIP3   OH235661   2.900   7.681   2.450
11907TIP3    H135662   2.858   7.767   2.457
11907TIP3    H235663   2.984   7.692   2.496
11908TIP3   OH235664  -0.002   2.753   1.882
11908TIP3    H135665   0.090   2.741   1.903
11908TIP3    H235666  -0.029   2.670   1.843
11909TIP3   OH235667   5.339   4.769   6.067
11909TIP3    H135668   5.341   4.814   5.982
11909TIP3    H235669   5.362   4.837   6.130
11910TIP3   OH235670   7.328   1.009   5.770
11910TIP3    H135671   7.417   1.042   5.758
11910TIP3    H235672   7.329   0.922   5.729
11911TIP3   OH235673   4.669   7.491   4.313
11911TIP3    H135674   4.584   7.493   4.356
11911TIP3    H235675   4.732   7.487   4.384
11912TIP3   OH235676   4.220   7.695   3.981
11912TIP3    H135677   4.205   7.774   4.033
11912TIP3    H235678   4.206   7.724   3.891
11913TIP3   OH235679   4.490   6.113   5.340
11913TIP3    H135680   4.574   6.071   5.322
11913TIP3    H235681   4.511   6.185   5.399
11914TIP3   OH235682   0.301   2.390   3.783
11914TIP3    H135683   0.275   2.376   3.692
11914TIP3    H235684   0.375   2.449   3.778
11915TIP3   OH235685   2.388   0.223   3.978
11915TIP3    H135686   2.388   0.285   4.052
11915TIP3    H235687   2.300   0.230   3.942
11916TIP3   OH235688   2.851   0.562   6.344
11916TIP3    H135689   2.932   0.549   6.294
11916TIP3    H235690   2.787   0.591   6.279
11917TIP3   OH235691   2.233   2.456   6.845
11917TIP3    H135692   2.174   2.414   6.783
11917TIP3    H235693   2.231   2.549   6.820
11918TIP3   OH235694   7.054   4.132   0.138
11918TIP3    H135695   7.077   4.102   0.050
11918TIP3    H235696   6.999   4.062   0.174
11919TIP3   OH235697   0.101   0.702   2.772
11919TIP3    H135698   0.050   0.654   2.707
11919TIP3    H235699   0.061   0.789   2.775
11920TIP3   OH235700   5.590   4.984   6.121
11920TIP3    H135701   5.569   5.029   6.203
11920TIP3    H235702   5.672   5.025   6.093
11921TIP3   OH235703   6.466   3.670   0.747
11921TIP3    H135704   6.559   3.668   0.726
11921TIP3    H235705   6.438   3.759   0.725
11922TIP3   OH235706   8.318   4.242   4.743
11922TIP3    H135707   8.274   4.308   4.689
11922TIP3    H235708   8.410   4.268   4.742
11923TIP3   OH235709   1.853   1.520   4.578
11923TIP3    H135710   1.837   1.453   4.512
11923TIP3    H235711   1.945   1.543   4.567
11924TIP3   OH235712   0.518   2.444   6.766
11924TIP3    H135713   0.505   2.349   6.762
11924TIP3    H235714   0.592   2.455   6.826
11925TIP3   OH235715   6.737   4.854   5.710
11925TIP3    H135716   6.693   4.852   5.796
11925TIP3    H235717   6.701   4.932   5.667
11926TIP3   OH235718   3.472   5.055   4.720
11926TIP3    H135719   3.459   5.110   4.797
11926TIP3    H235720   3.463   4.965   4.751
11927TIP3   OH235721   1.677   5.247   4.970
11927TIP3    H135722   1.723   5.165   4.986
11927TIP3    H235723   1.600   5.243   5.028
11928TIP3   OH235724   4.049   3.484   4.238
11928TIP3    H135725   4.047   3.396   4.201
11928TIP3    H235726   4.062   3.541   4.162
11929TIP3   OH235727   4.928   4.084   3.460
11929TIP3    H135728   4.970   4.050   3.381
11929TIP3    H235729   4.927   4.179   3.447
11930TIP3   OH235730   2.729   6.369   6.218
11930TIP3    H135731   2.689   6.285   6.196
11930TIP3    H235732   2.760   6.404   6.134
11931TIP3   OH235733   0.678   7.179   5.632
11931TIP3    H135734   0.671   7.107   5.694
11931TIP3    H235735   0.661   7.258   5.683
11932TIP3   OH235736   8.262   5.719   2.882
11932TIP3    H135737   8.353   5.739   2.907
11932TIP3    H235738   8.222   5.688   2.962
11933TIP3   OH235739   1.766   2.660   6.072
11933TIP3    H135740   1.792   2.569   6.086
11933TIP3    H235741   1.845   2.711   6.091
11934TIP3   OH235742   7.288   3.141   4.420
11934TIP3    H135743   7.277   3.057   4.374
11934TIP3    H235744   7.206   3.187   4.404
11935TIP3   OH235745   6.980   3.023   0.965
11935TIP3    H135746   7.007   3.018   0.873
11935TIP3    H235747   7.043   3.081   1.006
11936TIP3   OH235748   6.475   7.757   2.966
11936TIP3    H135749   6.561   7.755   2.925
11936TIP3    H235750   6.416   7.787   2.898
11937TIP3   OH235751   2.564   7.395   4.296
11937TIP3    H135752   2.472   7.382   4.270
11937TIP3    H235753   2.569   7.488   4.318
11938TIP3   OH235754   2.520   6.746   3.571
11938TIP3    H135755   2.564   6.733   3.487
11938TIP3    H235756   2.431   6.712   3.556
11939TIP3   OH235757   0.782   6.579   5.916
11939TIP3    H135758   0.862   6.610   5.872
11939TIP3    H235759   0.807   6.571   6.008
11940TIP3   OH235760   3.631   4.395   3.557
11940TIP3    H135761   3.558   4.435   3.509
11940TIP3    H235762   3.677   4.469   3.597
11941TIP3   OH235763   3.656   4.277   0.745
11941TIP3    H135764   3.744   4.265   0.710
11941TIP3    H235765   3.598   4.245   0.675
11942TIP3   OH235766   0.744   0.913   3.643
11942TIP3    H135767   0.682   0.888   3.712
11942TIP3    H235768   0.828   0.922   3.688
11943TIP3   OH235769   4.494   7.299   4.164
11943TIP3    H135770   4.439   7.223   4.148
11943TIP3    H235771   4.567   7.266   4.216
11944TIP3   OH235772   1.131   1.132   2.093
11944TIP3    H135773   1.043   1.159   2.066
11944TIP3    H235774   1.121   1.043   2.125
11945TIP3   OH235775   3.169   0.840   0.415
11945TIP3    H135776   3.217   0.762   0.387
11945TIP3    H235777   3.213   0.867   0.496
11946TIP3   OH235778   5.804   5.411   5.132
11946TIP3    H135779   5.865   5.466   5.083
11946TIP3    H235780   5.848   5.325   5.135
11947TIP3   OH235781   5.309   6.627   4.078
11947TIP3    H135782   5.344   6.665   4.159
11947TIP3    H235783   5.384   6.624   4.019
11948TIP3   OH235784   8.304   0.421   2.604
11948TIP3    H135785   8.264   0.507   2.619
11948TIP3    H235786   8.250   0.360   2.655
11949TIP3   OH235787   1.249   4.691   2.014
11949TIP3    H135788   1.286   4.652   2.094
11949TIP3    H235789   1.247   4.619   1.952
11950TIP3   OH235790   0.771   2.130   2.295
11950TIP3    H135791   0.843   2.182   2.330
11950TIP3    H235792   0.721   2.191   2.242
11951TIP3   OH235793   3.347   7.864   0.520
11951TIP3    H135794   3.252   7.874   0.525
11951TIP3    H235795   3.378   7.949   0.491
11952TIP3   OH235796   8.116   4.172   5.713
11952TIP3    H135797   8.043   4.129   5.668
11952TIP3    H235798   8.107   4.265   5.689
11953TIP3   OH235799   1.057   2.682   3.855
11953TIP3    H135800   1.055   2.778   3.859
11953TIP3    H235801   1.114   2.663   3.781
11954TIP3   OH235802   1.427   2.552   4.725
11954TIP3    H135803   1.492   2.572   4.657
11954TIP3    H235804   1.383   2.636   4.742
11955TIP3   OH235805   3.675   7.055   6.027
11955TIP3    H135806   3.739   7.009   6.082
11955TIP3    H235807   3.674   7.004   5.946
11956TIP3   OH235808   7.856   3.841   1.552
11956TIP3    H135809   7.867   3.906   1.622
11956TIP3    H235810   7.769   3.859   1.516
11957TIP3   OH235811   0.600   1.342   2.144
11957TIP3    H135812   0.523   1.333   2.087
11957TIP3    H235813   0.580   1.287   2.220
11958TIP3   OH235814   3.120   2.103   3.647
11958TIP3    H135815   3.180   2.177   3.656
11958TIP3    H235816   3.108   2.071   3.737
11959TIP3   OH235817   2.124   7.532   5.664
11959TIP3    H135818   2.211   7.527   5.625
11959TIP3    H235819   2.071   7.575   5.597
11960TIP3   OH235820   7.888   3.706   2.819
11960TIP3    H135821   7.981   3.729   2.825
11960TIP3    H235822   7.850   3.732   2.903
11961TIP3   OH235823   0.375   1.482   4.403
11961TIP3    H135824   0.355   1.550   4.339
11961TIP3    H235825   0.401   1.529   4.481
11962TIP3   OH235826   3.880   3.124   0.111
11962TIP3    H135827   3.875   3.210   0.152
11962TIP3    H235828   3.798   3.116   0.062
11963TIP3   OH235829   3.637   7.420   4.053
11963TIP3    H135830   3.590   7.481   3.996
11963TIP3    H235831   3.656   7.470   4.132
11964TIP3   OH235832   0.285   2.731   2.895
11964TIP3    H135833   0.332   2.792   2.952
11964TIP3    H235834   0.289   2.772   2.808
11965TIP3   OH235835   5.805   5.767   3.418
11965TIP3    H135836   5.790   5.732   3.506
11965TIP3    H235837   5.887   5.815   3.425
11966TIP3   OH235838   1.712   4.376   2.629
11966TIP3    H135839   1.690   4.461   2.667
11966TIP3    H235840   1.691   4.385   2.536
11967TIP3   OH235841   8.251   2.094   4.850
11967TIP3    H135842   8.204   2.012   4.836
11967TIP3    H235843   8.339   2.066   4.876
11968TIP3   OH235844   6.256   2.811   4.331
11968TIP3    H135845   6.344   2.813   4.370
11968TIP3    H235846   6.213   2.736   4.372
11969TIP3   OH235847   4.960   5.732   1.963
11969TIP3    H135848   4.892   5.722   1.896
11969TIP3    H235849   4.922   5.795   2.025
11970TIP3   OH235850   0.865   4.235   3.390
11970TIP3    H135851   0.800   4.170   3.365
11970TIP3    H235852   0.863   4.300   3.320
11971TIP3   OH235853   5.894   5.948   0.491
11971TIP3    H135854   5.984   5.961   0.460
11971TIP3    H235855   5.839   5.973   0.416
11972TIP3   OH235856   4.939   7.405   1.056
11972TIP3    H135857   4.942   7.501   1.060
11972TIP3    H235858   5.029   7.378   1.074
11973TIP3   OH235859   1.192   6.831   4.208
11973TIP3    H135860   1.142   6.852   4.287
11973TIP3    H235861   1.133   6.777   4.156
11974TIP3   OH235862   3.544   1.490   6.100
11974TIP3    H135863   3.492   1.423   6.145
11974TIP3    H235864   3.479   1.552   6.067
11975TIP3   OH235865   1.202   5.239   5.010
11975TIP3    H135866   1.209   5.148   4.981
11975TIP3    H235867   1.128   5.239   5.071
11976TIP3   OH235868   7.300   1.749   3.968
11976TIP3    H135869   7.205   1.751   3.961
11976TIP3    H235870   7.325   1.665   3.930
11977TIP3   OH235871   4.934   1.383   3.636
11977TIP3    H135872   4.940   1.384   3.732
11977TIP3    H235873   5.025   1.379   3.607
11978TIP3   OH235874   3.448   3.621   5.124
11978TIP3    H135875   3.360   3.583   5.126
11978TIP3    H235876   3.506   3.546   5.136
11979TIP3   OH235877   6.108   7.009   2.684
11979TIP3    H135878   6.094   7.067   2.758
11979TIP3    H235879   6.075   6.924   2.713
11980TIP3   OH235880   4.294   6.347   5.307
11980TIP3    H135881   4.200   6.363   5.300
11980TIP3    H235882   4.311   6.273   5.249
11981TIP3   OH235883   4.467   6.640   3.823
11981TIP3    H135884   4.530   6.585   3.777
11981TIP3    H235885   4.392   6.582   3.839
11982TIP3   OH235886   0.954   1.309   2.898
11982TIP3    H135887   0.878   1.349   2.856
11982TIP3    H235888   1.027   1.330   2.841
11983TIP3   OH235889   0.023   5.068   2.676
11983TIP3    H135890  -0.005   5.152   2.711
11983TIP3    H235891   0.042   5.015   2.754
11984TIP3   OH235892   3.488   2.272   5.794
11984TIP3    H135893   3.477   2.202   5.858
11984TIP3    H235894   3.400   2.305   5.779
11985TIP3   OH235895   3.342   1.182   1.669
11985TIP3    H135896   3.436   1.200   1.662
11985TIP3    H235897   3.304   1.218   1.589
11986TIP3   OH235898   7.234   3.012   1.186
11986TIP3    H135899   7.162   2.949   1.192
11986TIP3    H235900   7.200   3.091   1.229
11987TIP3   OH235901   5.986   5.054   3.979
11987TIP3    H135902   6.081   5.056   3.994
11987TIP3    H235903   5.960   4.966   4.004
11988TIP3   OH235904   7.896   3.999   6.308
11988TIP3    H135905   7.964   4.063   6.291
11988TIP3    H235906   7.943   3.917   6.324
11989TIP3   OH235907   1.387   5.201   1.242
11989TIP3    H135908   1.463   5.166   1.288
11989TIP3    H235909   1.334   5.243   1.310
11990TIP3   OH235910   0.177   4.313   4.624
11990TIP3    H135911   0.172   4.405   4.599
11990TIP3    H235912   0.249   4.309   4.686
11991TIP3   OH235913   0.836   1.089   5.666
11991TIP3    H135914   0.760   1.032   5.681
11991TIP3    H235915   0.888   1.043   5.601
11992TIP3   OH235916   4.533   5.787   2.040
11992TIP3    H135917   4.559   5.771   1.949
11992TIP3    H235918   4.599   5.742   2.092
11993TIP3   OH235919   5.301   4.752   2.550
11993TIP3    H135920   5.392   4.781   2.553
11993TIP3    H235921   5.267   4.787   2.468
11994TIP3   OH235922   6.857   4.454   3.425
11994TIP3    H135923   6.885   4.462   3.334
11994TIP3    H235924   6.798   4.379   3.425
11995TIP3   OH235925   3.429   5.668   1.020
11995TIP3    H135926   3.348   5.652   0.970
11995TIP3    H235927   3.424   5.607   1.094
11996TIP3   OH235928   3.655   7.709   6.028
11996TIP3    H135929   3.696   7.632   6.067
11996TIP3    H235930   3.565   7.707   6.059
11997TIP3   OH235931   7.270   1.291   2.556
11997TIP3    H135932   7.192   1.336   2.523
11997TIP3    H235933   7.280   1.323   2.646
11998TIP3   OH235934   2.216   0.127   4.658
11998TIP3    H135935   2.220   0.223   4.652
11998TIP3    H235936   2.270   0.106   4.735
11999TIP3   OH235937   4.133   5.933   2.357
11999TIP3    H135938   4.190   5.881   2.301
11999TIP3    H235939   4.095   5.999   2.298
12000TIP3   OH235940   5.133   1.126   4.111
12000TIP3    H135941   5.104   1.144   4.200
12000TIP3    H235942   5.215   1.077   4.121
12001TIP3   OH235943   4.684   2.954   3.971
12001TIP3    H135944   4.614   2.963   3.907
12001TIP3    H235945   4.761   2.990   3.928
12002TIP3   OH235946   4.691   6.384   4.206
12002TIP3    H135947   4.642   6.462   4.231
12002TIP3    H235948   4.661   6.365   4.117
12003TIP3   OH235949   0.107   0.671   4.510
12003TIP3    H135950   0.112   0.720   4.592
12003TIP3    H235951   0.175   0.604   4.519
12004TIP3   OH235952   6.576   7.703   0.112
12004TIP3    H135953   6.627   7.779   0.082
12004TIP3    H235954   6.485   7.730   0.105
12005TIP3   OH235955   7.786   5.552   5.668
12005TIP3    H135956   7.752   5.640   5.651
12005TIP3    H235957   7.710   5.503   5.700
12006TIP3   OH235958   0.632   0.083   0.838
12006TIP3    H135959   0.726   0.074   0.822
12006TIP3    H235960   0.597   0.121   0.758
12007TIP3   OH235961   6.327   6.266   3.615
12007TIP3    H135962   6.285   6.345   3.580
12007TIP3    H235963   6.345   6.288   3.707
12008TIP3   OH235964   5.773   6.509   6.275
12008TIP3    H135965   5.849   6.566   6.283
12008TIP3    H235966   5.699   6.569   6.264
12009TIP3   OH235967   3.327   0.126   2.317
12009TIP3    H135968   3.350   0.038   2.348
12009TIP3    H235969   3.353   0.126   2.225
12010TIP3   OH235970   1.628   2.513   2.566
12010TIP3    H135971   1.643   2.420   2.554
12010TIP3    H235972   1.548   2.531   2.518
12011TIP3   OH235973   5.514   2.303   5.817
12011TIP3    H135974   5.608   2.287   5.823
12011TIP3    H235975   5.486   2.316   5.907
12012TIP3   OH235976   5.638   2.975   2.746
12012TIP3    H135977   5.645   2.893   2.696
12012TIP3    H235978   5.669   3.042   2.686
12013TIP3   OH235979   1.053   2.543   6.399
12013TIP3    H135980   0.963   2.573   6.398
12013TIP3    H235981   1.086   2.561   6.311
12014TIP3   OH235982   2.851   7.301   0.825
12014TIP3    H135983   2.916   7.241   0.787
12014TIP3    H235984   2.880   7.315   0.915
12015TIP3   OH235985   4.388   4.125   4.230
12015TIP3    H135986   4.356   4.037   4.207
12015TIP3    H235987   4.435   4.154   4.152
12016TIP3   OH235988   6.325   0.119   3.837
12016TIP3    H135989   6.417   0.114   3.861
12016TIP3    H235990   6.295   0.202   3.873
12017TIP3   OH235991   6.320   2.909   1.179
12017TIP3    H135992   6.269   2.981   1.216
12017TIP3    H235993   6.409   2.924   1.211
12018TIP3   OH235994   3.644   2.056   3.164
12018TIP3    H135995   3.642   2.139   3.211
12018TIP3    H235996   3.591   2.071   3.086
12019TIP3   OH235997   0.954   3.501   1.785
12019TIP3    H135998   1.020   3.521   1.717
12019TIP3    H235999   0.877   3.551   1.758
12020TIP3   OH236000   1.226   5.915   5.594
12020TIP3    H136001   1.292   5.964   5.546
12020TIP3    H236002   1.245   5.823   5.575
12021TIP3   OH236003   3.219   3.557   0.271
12021TIP3    H136004   3.237   3.463   0.282
12021TIP3    H236005   3.303   3.600   0.288
12022TIP3   OH236006   0.292   2.894   6.372
12022TIP3    H136007   0.276   2.986   6.394
12022TIP3    H236008   0.205   2.859   6.349
12023TIP3   OH236009   6.793   0.683   4.184
12023TIP3    H136010   6.833   0.768   4.166
12023TIP3    H236011   6.703   0.704   4.209
12024TIP3   OH236012   5.372   0.516   0.193
12024TIP3    H136013   5.370   0.421   0.199
12024TIP3    H236014   5.312   0.537   0.121
12025TIP3   OH236015   1.280   2.693   4.156
12025TIP3    H136016   1.194   2.665   4.127
12025TIP3    H236017   1.263   2.766   4.215
12026TIP3   OH236018   1.527   4.186   4.888
12026TIP3    H136019   1.588   4.127   4.932
12026TIP3    H236020   1.544   4.173   4.795
12027TIP3   OH236021   2.188   4.556   1.159
12027TIP3    H136022   2.153   4.474   1.192
12027TIP3    H236023   2.186   4.615   1.235
12028TIP3   OH236024   5.532   2.966   2.104
12028TIP3    H136025   5.626   2.978   2.089
12028TIP3    H236026   5.493   3.048   2.073
12029TIP3   OH236027   4.682   4.885   0.019
12029TIP3    H136028   4.742   4.930   0.078
12029TIP3    H236029   4.695   4.928  -0.066
12030TIP3   OH236030   4.103   6.077   0.260
12030TIP3    H136031   4.064   6.033   0.185
12030TIP3    H236032   4.114   6.008   0.326
12031TIP3   OH236033   5.266   1.923   3.032
12031TIP3    H136034   5.332   1.992   3.042
12031TIP3    H236035   5.313   1.843   3.055
12032TIP3   OH236036   4.487   3.249   6.845
12032TIP3    H136037   4.424   3.319   6.865
12032TIP3    H236038   4.436   3.184   6.797
12033TIP3   OH236039   5.103   3.698   5.305
12033TIP3    H136040   5.082   3.761   5.374
12033TIP3    H236041   5.055   3.619   5.329
12034TIP3   OH236042   6.824   1.266   3.347
12034TIP3    H136043   6.918   1.267   3.331
12034TIP3    H236044   6.784   1.285   3.262
12035TIP3   OH236045   5.526   7.393   1.982
12035TIP3    H136046   5.598   7.421   1.925
12035TIP3    H236047   5.557   7.410   2.071
12036TIP3   OH236048   2.784   3.916   4.577
12036TIP3    H136049   2.690   3.907   4.594
12036TIP3    H236050   2.793   3.900   4.483
12037TIP3   OH236051   6.077   5.888   0.905
12037TIP3    H136052   6.074   5.803   0.861
12037TIP3    H236053   6.092   5.951   0.834
12038TIP3   OH236054   4.591   3.841   3.140
12038TIP3    H136055   4.542   3.783   3.081
12038TIP3    H236056   4.594   3.925   3.094
12039TIP3   OH236057   3.621   5.123   1.174
12039TIP3    H136058   3.555   5.172   1.126
12039TIP3    H236059   3.615   5.156   1.264
12040TIP3   OH236060   6.392   6.794   1.901
12040TIP3    H136061   6.404   6.865   1.838
12040TIP3    H236062   6.331   6.735   1.858
12041TIP3   OH236063   7.643   6.959   1.307
12041TIP3    H136064   7.592   6.906   1.368
12041TIP3    H236065   7.588   6.966   1.229
12042TIP3   OH236066   2.486   4.558   0.610
12042TIP3    H136067   2.474   4.467   0.583
12042TIP3    H236068   2.581   4.568   0.616
12043TIP3   OH236069   1.139   3.333   6.755
12043TIP3    H136070   1.128   3.392   6.829
12043TIP3    H236071   1.108   3.248   6.787
12044TIP3   OH236072   2.744   6.780   1.809
12044TIP3    H136073   2.737   6.721   1.734
12044TIP3    H236074   2.739   6.868   1.771
12045TIP3   OH236075   5.068   5.058   3.056
12045TIP3    H136076   5.090   5.121   2.988
12045TIP3    H236077   5.141   4.996   3.056
12046TIP3   OH236078   0.210   4.208   1.639
12046TIP3    H136079   0.251   4.215   1.725
12046TIP3    H236080   0.153   4.285   1.634
12047TIP3   OH236081   6.751   7.794   0.373
12047TIP3    H136082   6.820   7.728   0.388
12047TIP3    H236083   6.695   7.755   0.306
12048TIP3   OH236084   1.916   6.765   0.480
12048TIP3    H136085   1.978   6.791   0.548
12048TIP3    H236086   1.967   6.765   0.399
12049TIP3   OH236087   1.274   2.233   2.368
12049TIP3    H136088   1.356   2.187   2.348
12049TIP3    H236089   1.248   2.273   2.286
12050TIP3   OH236090   6.618   1.976   4.827
12050TIP3    H136091   6.614   1.975   4.731
12050TIP3    H236092   6.708   1.949   4.847
12051TIP3   OH236093   7.084   5.470   0.546
12051TIP3    H136094   7.163   5.500   0.500
12051TIP3    H236095   7.042   5.551   0.575
12052TIP3   OH236096   6.140   0.040   1.835
12052TIP3    H136097   6.106   0.097   1.904
12052TIP3    H236098   6.233   0.031   1.855
12053TIP3   OH236099   5.874   2.858   0.214
12053TIP3    H136100   5.947   2.817   0.260
12053TIP3    H236101   5.909   2.942   0.184
12054TIP3   OH236102   2.781   3.824   2.335
12054TIP3    H136103   2.827   3.827   2.419
12054TIP3    H236104   2.777   3.731   2.312
12055TIP3   OH236105   0.457   0.564   2.081
12055TIP3    H136106   0.382   0.514   2.115
12055TIP3    H236107   0.450   0.649   2.124
12056TIP3   OH236108   3.896  -0.042   4.379
12056TIP3    H136109   3.839  -0.009   4.310
12056TIP3    H236110   3.948   0.035   4.405
12057TIP3   OH236111   5.281   7.338   6.047
12057TIP3    H136112   5.187   7.353   6.042
12057TIP3    H236113   5.314   7.409   6.102
12058TIP3   OH236114   0.954   3.138   3.109
12058TIP3    H136115   0.876   3.091   3.082
12058TIP3    H236116   1.024   3.102   3.055
12059TIP3   OH236117   1.061   7.316   5.288
12059TIP3    H136118   0.991   7.341   5.228
12059TIP3    H236119   1.017   7.299   5.371
12060TIP3   OH236120   6.195   6.248   0.520
12060TIP3    H136121   6.157   6.225   0.435
12060TIP3    H236122   6.178   6.342   0.528
12061TIP3   OH236123   0.920   2.610   0.600
12061TIP3    H136124   0.899   2.587   0.690
12061TIP3    H236125   1.015   2.606   0.595
12062TIP3   OH236126   3.020   7.634   0.557
12062TIP3    H136127   3.019   7.578   0.479
12062TIP3    H236128   3.018   7.723   0.522
12063TIP3   OH236129   2.133   4.550   0.265
12063TIP3    H136130   2.161   4.511   0.347
12063TIP3    H236131   2.081   4.626   0.291
12064TIP3   OH236132   7.247   3.450   5.243
12064TIP3    H136133   7.315   3.517   5.245
12064TIP3    H236134   7.228   3.431   5.334
12065TIP3   OH236135   2.295   1.468   3.397
12065TIP3    H136136   2.292   1.520   3.317
12065TIP3    H236137   2.204   1.452   3.420
12066TIP3   OH236138   6.035   1.206   3.371
12066TIP3    H136139   6.086   1.232   3.447
12066TIP3    H236140   6.049   1.111   3.365
12067TIP3   OH236141   7.733   5.107   1.829
12067TIP3    H136142   7.637   5.103   1.822
12067TIP3    H236143   7.750   5.178   1.890
12068TIP3   OH236144   2.016   7.569   0.299
12068TIP3    H136145   2.106   7.559   0.267
12068TIP3    H236146   1.962   7.554   0.222
12069TIP3   OH236147   5.720   0.648   4.034
12069TIP3    H136148   5.788   0.625   3.971
12069TIP3    H236149   5.752   0.726   4.079
12070TIP3   OH236150   2.934   1.965   4.095
12070TIP3    H136151   2.841   1.968   4.072
12070TIP3    H236152   2.952   1.871   4.106
12071TIP3   OH236153   3.732   1.777   2.351
12071TIP3    H136154   3.666   1.829   2.306
12071TIP3    H236155   3.790   1.746   2.282
12072TIP3   OH236156   3.436   0.498   1.702
12072TIP3    H136157   3.475   0.446   1.772
12072TIP3    H236158   3.491   0.482   1.626
12073TIP3   OH236159   5.826   2.341   4.459
12073TIP3    H136160   5.813   2.432   4.430
12073TIP3    H236161   5.737   2.304   4.463
12074TIP3   OH236162   2.427   4.858   5.630
12074TIP3    H136163   2.377   4.939   5.645
12074TIP3    H236164   2.408   4.835   5.539
12075TIP3   OH236165   1.462   6.507   4.558
12075TIP3    H136166   1.546   6.473   4.524
12075TIP3    H236167   1.413   6.533   4.480
12076TIP3   OH236168   1.897   4.965   5.165
12076TIP3    H136169   1.915   4.995   5.254
12076TIP3    H236170   1.810   4.999   5.145
12077TIP3   OH236171   3.310   7.610   3.032
12077TIP3    H136172   3.237   7.649   2.985
12077TIP3    H236173   3.304   7.646   3.120
12078TIP3   OH236174   5.739   4.938   0.638
12078TIP3    H136175   5.783   4.998   0.578
12078TIP3    H236176   5.654   4.978   0.654
12079TIP3   OH236177   7.414   0.025   1.301
12079TIP3    H136178   7.403   0.023   1.206
12079TIP3    H236179   7.326   0.016   1.336
12080TIP3   OH236180   1.825   2.651   3.823
12080TIP3    H136181   1.917   2.671   3.806
12080TIP3    H236182   1.794   2.722   3.878
12081TIP3   OH236183   3.652   2.705   4.585
12081TIP3    H136184   3.622   2.699   4.494
12081TIP3    H236185   3.575   2.684   4.637
12082TIP3   OH236186   4.723   0.140   4.984
12082TIP3    H136187   4.678   0.224   4.982
12082TIP3    H236188   4.755   0.132   5.073
12083TIP3   OH236189   5.674   7.226   2.526
12083TIP3    H136190   5.657   7.203   2.618
12083TIP3    H236191   5.766   7.252   2.524
12084TIP3   OH236192   6.218   6.671   1.732
12084TIP3    H136193   6.235   6.664   1.638
12084TIP3    H236194   6.162   6.596   1.753
12085TIP3   OH236195   1.401   3.555   2.337
12085TIP3    H136196   1.359   3.488   2.283
12085TIP3    H236197   1.494   3.548   2.317
12086TIP3   OH236198   0.177   7.094   6.437
12086TIP3    H136199   0.168   7.004   6.404
12086TIP3    H236200   0.218   7.085   6.523
12087TIP3   OH236201   8.195   6.218   6.079
12087TIP3    H136202   8.201   6.254   5.991
12087TIP3    H236203   8.202   6.123   6.068
12088TIP3   OH236204   7.454   0.266   6.260
12088TIP3    H136205   7.434   0.224   6.176
12088TIP3    H236206   7.527   0.215   6.296
12089TIP3   OH236207   3.298   4.923   5.726
12089TIP3    H136208   3.364   4.948   5.791
12089TIP3    H236209   3.234   4.995   5.728
12090TIP3   OH236210   0.252   5.091   2.872
12090TIP3    H136211   0.262   5.072   2.966
12090TIP3    H236212   0.187   5.161   2.869
12091TIP3   OH236213   3.757   1.844   1.916
12091TIP3    H136214   3.804   1.916   1.875
12091TIP3    H236215   3.826   1.790   1.956
12092TIP3   OH236216   0.018   5.846   6.397
12092TIP3    H136217   0.061   5.788   6.460
12092TIP3    H236218  -0.060   5.798   6.371
12093TIP3   OH236219   3.495   2.923   3.482
12093TIP3    H136220   3.538   2.981   3.418
12093TIP3    H236221   3.567   2.872   3.519
12094TIP3   OH236222   3.780   5.347   0.746
12094TIP3    H136223   3.719   5.406   0.702
12094TIP3    H236224   3.749   5.259   0.725
12095TIP3   OH236225   2.298   4.045   5.642
12095TIP3    H136226   2.392   4.024   5.639
12095TIP3    H236227   2.286   4.111   5.573
12096TIP3   OH236228   1.550   0.143   3.517
12096TIP3    H136229   1.552   0.072   3.582
12096TIP3    H236230   1.642   0.161   3.499
12097TIP3   OH236231   8.211   2.166   6.605
12097TIP3    H136232   8.173   2.171   6.517
12097TIP3    H236233   8.299   2.132   6.591
12098TIP3   OH236234   1.799   7.410   1.438
12098TIP3    H136235   1.762   7.389   1.352
12098TIP3    H236236   1.887   7.443   1.418
12099TIP3   OH236237   0.426   7.831   1.329
12099TIP3    H136238   0.504   7.870   1.290
12099TIP3    H236239   0.398   7.895   1.395
12100TIP3   OH236240   1.717   6.039   4.205
12100TIP3    H136241   1.735   6.005   4.292
12100TIP3    H236242   1.699   6.132   4.219
12101TIP3   OH236243   3.920   5.234   4.733
12101TIP3    H136244   3.887   5.281   4.657
12101TIP3    H236245   3.868   5.153   4.736
12102TIP3   OH236246   1.839   3.727   5.789
12102TIP3    H136247   1.889   3.726   5.870
12102TIP3    H236248   1.857   3.812   5.750
12103TIP3   OH236249   7.833   4.204   0.819
12103TIP3    H136250   7.857   4.292   0.846
12103TIP3    H236251   7.916   4.161   0.799
12104TIP3   OH236252   7.124   2.154   6.427
12104TIP3    H136253   7.149   2.241   6.395
12104TIP3    H236254   7.179   2.094   6.376
12105TIP3   OH236255   2.954   7.531   1.844
12105TIP3    H136256   2.944   7.623   1.818
12105TIP3    H236257   2.951   7.532   1.939
12106TIP3   OH236258   2.278   0.926   5.106
12106TIP3    H136259   2.350   0.891   5.053
12106TIP3    H236260   2.272   0.867   5.181
12107TIP3   OH236261   7.625   3.738   4.896
12107TIP3    H136262   7.639   3.832   4.898
12107TIP3    H236263   7.694   3.705   4.838
12108TIP3   OH236264   1.337   3.180   5.405
12108TIP3    H136265   1.291   3.252   5.362
12108TIP3    H236266   1.364   3.217   5.489
12109TIP3   OH236267   8.015   1.333   2.823
12109TIP3    H136268   7.930   1.292   2.840
12109TIP3    H236269   8.023   1.332   2.727
12110TIP3   OH236270   2.989   6.441   5.615
12110TIP3    H136271   2.983   6.345   5.620
12110TIP3    H236272   3.038   6.466   5.693
12111TIP3   OH236273   2.435   4.290   5.224
12111TIP3    H136274   2.509   4.342   5.257
12111TIP3    H236275   2.470   4.201   5.217
12112TIP3   OH236276   5.625   3.751   1.392
12112TIP3    H136277   5.718   3.748   1.370
12112TIP3    H236278   5.585   3.796   1.318
12113TIP3   OH236279   4.538   1.602   5.400
12113TIP3    H136280   4.514   1.597   5.308
12113TIP3    H236281   4.546   1.510   5.427
12114TIP3   OH236282   5.272   2.746   1.509
12114TIP3    H136283   5.282   2.826   1.560
12114TIP3    H236284   5.317   2.678   1.561
12115TIP3   OH236285   5.726   1.656   4.778
12115TIP3    H136286   5.763   1.669   4.691
12115TIP3    H236287   5.720   1.743   4.816
12116TIP3   OH236288   6.049   0.084   0.173
12116TIP3    H136289   6.143   0.101   0.164
12116TIP3    H236290   6.024   0.131   0.252
12117TIP3   OH236291   7.625   2.575   4.634
12117TIP3    H136292   7.705   2.529   4.661
12117TIP3    H236293   7.657   2.645   4.578
12118TIP3   OH236294   1.714   5.934   5.767
12118TIP3    H136295   1.635   5.918   5.716
12118TIP3    H236296   1.765   5.996   5.714
12119TIP3   OH236297   6.430   0.260   1.618
12119TIP3    H136298   6.452   0.193   1.554
12119TIP3    H236299   6.339   0.240   1.644
12120TIP3   OH236300   7.912   3.777   6.539
12120TIP3    H136301   7.841   3.818   6.589
12120TIP3    H236302   7.906   3.684   6.561
12121TIP3   OH236303   0.302   0.310   4.302
12121TIP3    H136304   0.261   0.350   4.225
12121TIP3    H236305   0.374   0.259   4.267
12122TIP3   OH236306   7.869   0.694   1.132
12122TIP3    H136307   7.915   0.611   1.140
12122TIP3    H236308   7.926   0.748   1.076
12123TIP3   OH236309   0.114   4.709   1.257
12123TIP3    H136310   0.052   4.766   1.302
12123TIP3    H236311   0.101   4.728   1.164
12124TIP3   OH236312   0.628   2.075   4.881
12124TIP3    H136313   0.537   2.079   4.853
12124TIP3    H236314   0.667   2.005   4.828
12125TIP3   OH236315   1.595   3.571   4.289
12125TIP3    H136316   1.543   3.492   4.302
12125TIP3    H236317   1.601   3.581   4.194
12126TIP3   OH236318   2.243   3.669   1.861
12126TIP3    H136319   2.228   3.649   1.954
12126TIP3    H236320   2.275   3.587   1.824
12127TIP3   OH236321   3.035   6.232   5.980
12127TIP3    H136322   3.047   6.242   6.074
12127TIP3    H236323   3.047   6.320   5.944
12128TIP3   OH236324   7.403   4.289   6.550
12128TIP3    H136325   7.484   4.329   6.517
12128TIP3    H236326   7.369   4.240   6.476
12129TIP3   OH236327   1.159   1.673   3.095
12129TIP3    H136328   1.221   1.637   3.158
12129TIP3    H236329   1.199   1.656   3.010
12130TIP3   OH236330   0.109   0.861   5.654
12130TIP3    H136331   0.066   0.905   5.580
12130TIP3    H236332   0.041   0.855   5.721
12131TIP3   OH236333   0.419   1.438   5.189
12131TIP3    H136334   0.411   1.343   5.174
12131TIP3    H236335   0.432   1.475   5.102
12132TIP3   OH236336   4.623   4.203   1.595
12132TIP3    H136337   4.537   4.196   1.637
12132TIP3    H236338   4.661   4.282   1.633
12133TIP3   OH236339   4.110   1.986   4.940
12133TIP3    H136340   4.166   2.051   4.897
12133TIP3    H236341   4.028   2.032   4.957
12134TIP3   OH236342   7.819   3.020   5.560
12134TIP3    H136343   7.888   2.966   5.599
12134TIP3    H236344   7.854   3.109   5.563
12135TIP3   OH236345   5.754   0.905   4.185
12135TIP3    H136346   5.765   0.971   4.116
12135TIP3    H236347   5.746   0.956   4.265
12136TIP3   OH236348   5.861   0.332   2.805
12136TIP3    H136349   5.807   0.317   2.883
12136TIP3    H236350   5.819   0.281   2.736
12137TIP3   OH236351   2.069   3.917   4.956
12137TIP3    H136352   2.069   3.955   5.044
12137TIP3    H236353   2.014   3.839   4.964
12138TIP3   OH236354   6.799   3.911   2.322
12138TIP3    H136355   6.826   3.983   2.266
12138TIP3    H236356   6.717   3.879   2.282
12139TIP3   OH236357   2.569   6.461   1.834
12139TIP3    H136358   2.644   6.460   1.894
12139TIP3    H236359   2.529   6.547   1.848
12140TIP3   OH236360   1.630   3.729   0.910
12140TIP3    H136361   1.582   3.692   0.984
12140TIP3    H236362   1.715   3.686   0.913
12141TIP3   OH236363   6.742   5.499   0.793
12141TIP3    H136364   6.667   5.460   0.838
12141TIP3    H236365   6.807   5.429   0.790
12142TIP3   OH236366   2.952   2.011   4.980
12142TIP3    H136367   2.944   2.007   4.885
12142TIP3    H236368   2.994   1.927   5.003
12143TIP3   OH236369   1.892   6.899   5.972
12143TIP3    H136370   1.808   6.887   5.928
12143TIP3    H236371   1.923   6.985   5.944
12144TIP3   OH236372   6.079   7.731   2.349
12144TIP3    H136373   6.130   7.662   2.307
12144TIP3    H236374   6.130   7.811   2.334
12145TIP3   OH236375   4.429   1.697   1.114
12145TIP3    H136376   4.399   1.764   1.175
12145TIP3    H236377   4.356   1.685   1.054
12146TIP3   OH236378   2.090   0.999   1.531
12146TIP3    H136379   2.055   0.910   1.540
12146TIP3    H236380   2.043   1.049   1.597
12147TIP3   OH236381   3.820   5.301   4.481
12147TIP3    H136382   3.783   5.376   4.528
12147TIP3    H236383   3.905   5.334   4.449
12148TIP3   OH236384   5.133   7.434   2.503
12148TIP3    H136385   5.136   7.339   2.517
12148TIP3    H236386   5.218   7.466   2.533
12149TIP3   OH236387   6.917   3.121   2.861
12149TIP3    H136388   6.972   3.103   2.785
12149TIP3    H236389   6.933   3.047   2.920
12150TIP3   OH236390   6.993   1.525   6.757
12150TIP3    H136391   6.982   1.437   6.720
12150TIP3    H236392   6.908   1.545   6.796
12151TIP3   OH236393   2.959   5.321   0.010
12151TIP3    H136394   3.011   5.240   0.006
12151TIP3    H236395   2.885   5.305  -0.048
12152TIP3   OH236396   8.181   1.577   0.190
12152TIP3    H136397   8.099   1.592   0.143
12152TIP3    H236398   8.244   1.637   0.149
12153TIP3   OH236399   4.383   0.554   3.818
12153TIP3    H136400   4.355   0.546   3.727
12153TIP3    H236401   4.323   0.618   3.856
12154TIP3   OH236402   2.929   0.452   1.443
12154TIP3    H136403   2.983   0.490   1.512
12154TIP3    H236404   2.980   0.467   1.363
12155TIP3   OH236405   5.613   7.344   5.432
12155TIP3    H136406   5.536   7.399   5.448
12155TIP3    H236407   5.683   7.406   5.415
12156TIP3   OH236408   5.685   7.425   6.232
12156TIP3    H136409   5.640   7.345   6.206
12156TIP3    H236410   5.777   7.399   6.241
12157TIP3   OH236411   7.489   7.436   5.915
12157TIP3    H136412   7.437   7.373   5.966
12157TIP3    H236413   7.452   7.431   5.827
12158TIP3   OH236414   7.125   3.829   5.469
12158TIP3    H136415   7.036   3.807   5.495
12158TIP3    H236416   7.115   3.889   5.396
12159TIP3   OH236417   7.803   1.287   5.671
12159TIP3    H136418   7.709   1.286   5.691
12159TIP3    H236419   7.831   1.197   5.684
12160TIP3   OH236420   4.018   6.499   2.765
12160TIP3    H136421   4.083   6.569   2.756
12160TIP3    H236422   3.943   6.540   2.807
12161TIP3   OH236423   0.657   3.220   6.071
12161TIP3    H136424   0.701   3.188   6.150
12161TIP3    H236425   0.583   3.160   6.059
12162TIP3   OH236426   0.265   2.752   5.465
12162TIP3    H136427   0.280   2.673   5.517
12162TIP3    H236428   0.204   2.724   5.396
12163TIP3   OH236429   4.592   0.396   3.569
12163TIP3    H136430   4.598   0.316   3.621
12163TIP3    H236431   4.506   0.392   3.527
12164TIP3   OH236432   2.578   4.907   6.000
12164TIP3    H136433   2.592   5.001   6.005
12164TIP3    H236434   2.622   4.872   6.077
12165TIP3   OH236435   2.450   5.303   2.719
12165TIP3    H136436   2.397   5.224   2.726
12165TIP3    H236437   2.444   5.343   2.806
12166TIP3   OH236438   3.923   6.385   1.509
12166TIP3    H136439   3.946   6.323   1.579
12166TIP3    H236440   3.860   6.337   1.456
12167TIP3   OH236441   0.210   1.479   1.879
12167TIP3    H136442   0.185   1.566   1.911
12167TIP3    H236443   0.282   1.453   1.937
12168TIP3   OH236444   8.228   2.415   1.811
12168TIP3    H136445   8.217   2.324   1.837
12168TIP3    H236446   8.236   2.413   1.716
12169TIP3   OH236447   5.201   7.080   4.746
12169TIP3    H136448   5.249   7.162   4.734
12169TIP3    H236449   5.220   7.054   4.836
12170TIP3   OH236450   0.875   1.937   2.604
12170TIP3    H136451   0.896   1.988   2.526
12170TIP3    H236452   0.873   2.001   2.676
12171TIP3   OH236453   0.603   6.646   5.051
12171TIP3    H136454   0.616   6.555   5.078
12171TIP3    H236455   0.551   6.640   4.971
12172TIP3   OH236456   4.753   3.037   4.905
12172TIP3    H136457   4.723   3.030   4.814
12172TIP3    H236458   4.696   2.977   4.954
12173TIP3   OH236459   2.445   0.020   6.183
12173TIP3    H136460   2.417   0.104   6.149
12173TIP3    H236461   2.539   0.017   6.166
12174TIP3   OH236462   6.154   6.553   2.597
12174TIP3    H136463   6.184   6.631   2.551
12174TIP3    H236464   6.062   6.545   2.573
12175TIP3   OH236465   6.405   4.139   6.555
12175TIP3    H136466   6.459   4.218   6.556
12175TIP3    H236467   6.330   4.162   6.500
12176TIP3   OH236468   1.016   7.080   4.383
12176TIP3    H136469   1.020   7.019   4.457
12176TIP3    H236470   1.105   7.115   4.376
12177TIP3   OH236471   3.151   5.502   4.595
12177TIP3    H136472   3.169   5.517   4.688
12177TIP3    H236473   3.160   5.407   4.583
12178TIP3   OH236474   6.554   3.153   0.513
12178TIP3    H136475   6.506   3.076   0.481
12178TIP3    H236476   6.531   3.159   0.605
12179TIP3   OH236477   2.035   1.801   1.105
12179TIP3    H136478   2.079   1.880   1.076
12179TIP3    H236479   1.961   1.790   1.045
12180TIP3   OH236480   1.288   6.750   2.502
12180TIP3    H136481   1.316   6.810   2.571
12180TIP3    H236482   1.315   6.663   2.533
12181TIP3   OH236483   0.975   3.331   6.542
12181TIP3    H136484   1.045   3.349   6.606
12181TIP3    H236485   0.901   3.383   6.573
12182TIP3   OH236486   3.125   0.191   1.471
12182TIP3    H136487   3.154   0.229   1.388
12182TIP3    H236488   3.122   0.265   1.531
12183TIP3   OH236489   3.805   1.002   4.061
12183TIP3    H136490   3.868   1.074   4.054
12183TIP3    H236491   3.736   1.024   3.999
12184TIP3   OH236492   8.258   3.788   3.335
12184TIP3    H136493   8.181   3.844   3.342
12184TIP3    H236494   8.332   3.849   3.342
12185TIP3   OH236495   1.785   7.591   4.893
12185TIP3    H136496   1.761   7.512   4.941
12185TIP3    H236497   1.707   7.611   4.840
12186TIP3   OH236498   0.028   0.457   1.068
12186TIP3    H136499   0.095   0.500   1.016
12186TIP3    H236500  -0.017   0.529   1.112
12187TIP3   OH236501   1.707   0.494   2.229
12187TIP3    H136502   1.645   0.465   2.161
12187TIP3    H236503   1.697   0.429   2.299
12188TIP3   OH236504   6.767   6.998   2.486
12188TIP3    H136505   6.686   6.961   2.520
12188TIP3    H236506   6.740   7.077   2.439
12189TIP3   OH236507   4.626   1.003   6.192
12189TIP3    H136508   4.562   0.936   6.167
12189TIP3    H236509   4.574   1.081   6.209
12190TIP3   OH236510   1.251   0.689   1.114
12190TIP3    H136511   1.274   0.675   1.022
12190TIP3    H236512   1.315   0.754   1.145
12191TIP3   OH236513   4.768   4.792   6.611
12191TIP3    H136514   4.848   4.817   6.656
12191TIP3    H236515   4.794   4.781   6.519
12192TIP3   OH236516   7.189   5.994   0.056
12192TIP3    H136517   7.150   5.927   0.112
12192TIP3    H236518   7.205   6.068   0.114
12193TIP3   OH236519   1.905   0.634   1.281
12193TIP3    H136520   1.811   0.639   1.264
12193TIP3    H236521   1.929   0.544   1.260
12194TIP3   OH236522   4.286   6.183   3.561
12194TIP3    H136523   4.232   6.108   3.584
12194TIP3    H236524   4.256   6.209   3.474
12195TIP3   OH236525   6.130   4.241   1.850
12195TIP3    H136526   6.056   4.270   1.903
12195TIP3    H236527   6.149   4.316   1.793
12196TIP3   OH236528   0.880   2.094   5.874
12196TIP3    H136529   0.954   2.154   5.865
12196TIP3    H236530   0.857   2.098   5.966
12197TIP3   OH236531   6.944   3.858   4.515
12197TIP3    H136532   6.855   3.884   4.490
12197TIP3    H236533   6.970   3.795   4.447
12198TIP3   OH236534   2.415   6.065   4.571
12198TIP3    H136535   2.388   6.133   4.509
12198TIP3    H236536   2.473   6.008   4.521
12199TIP3   OH236537   3.206   0.932   4.506
12199TIP3    H136538   3.145   0.900   4.440
12199TIP3    H236539   3.278   0.971   4.456
12200TIP3   OH236540   6.916   2.558   0.666
12200TIP3    H136541   6.924   2.583   0.574
12200TIP3    H236542   6.886   2.637   0.711
12201TIP3   OH236543   7.569   7.144   4.815
12201TIP3    H136544   7.560   7.164   4.908
12201TIP3    H236545   7.663   7.136   4.801
12202TIP3   OH236546   4.832   4.539   3.954
12202TIP3    H136547   4.767   4.571   4.016
12202TIP3    H236548   4.882   4.617   3.929
12203TIP3   OH236549   1.118   4.601   4.543
12203TIP3    H136550   1.148   4.531   4.485
12203TIP3    H236551   1.058   4.652   4.488
12204TIP3   OH236552   2.756   6.280   2.352
12204TIP3    H136553   2.678   6.228   2.373
12204TIP3    H236554   2.739   6.315   2.265
12205TIP3   OH236555   4.393   3.151   3.169
12205TIP3    H136556   4.469   3.097   3.144
12205TIP3    H236557   4.403   3.231   3.118
12206TIP3   OH236558   2.356   7.036   5.804
12206TIP3    H136559   2.410   7.097   5.754
12206TIP3    H236560   2.385   7.047   5.895
12207TIP3   OH236561   0.796   4.394   1.205
12207TIP3    H136562   0.700   4.395   1.197
12207TIP3    H236563   0.824   4.475   1.162
12208TIP3   OH236564   7.889   4.608   3.265
12208TIP3    H136565   7.980   4.609   3.297
12208TIP3    H236566   7.843   4.552   3.328
12209TIP3   OH236567   1.176   0.763   0.457
12209TIP3    H136568   1.183   0.775   0.363
12209TIP3    H236569   1.167   0.668   0.469
12210TIP3   OH236570   3.273   2.168   2.758
12210TIP3    H136571   3.233   2.139   2.840
12210TIP3    H236572   3.338   2.101   2.738
12211TIP3   OH236573   7.740   0.087   5.997
12211TIP3    H136574   7.739   0.066   6.090
12211TIP3    H236575   7.791   0.168   5.991
12212TIP3   OH236576   2.999   2.809   3.361
12212TIP3    H136577   2.969   2.797   3.451
12212TIP3    H236578   3.048   2.891   3.363
12213TIP3   OH236579   0.444   6.738   3.771
12213TIP3    H136580   0.419   6.667   3.829
12213TIP3    H236581   0.536   6.721   3.750
12214TIP3   OH236582   5.336   2.003   6.119
12214TIP3    H136583   5.381   1.924   6.147
12214TIP3    H236584   5.297   1.981   6.034
12215TIP3   OH236585   2.793   2.541   5.852
12215TIP3    H136586   2.871   2.486   5.853
12215TIP3    H236587   2.770   2.553   5.944
12216TIP3   OH236588   1.196   0.150   4.976
12216TIP3    H136589   1.287   0.132   4.951
12216TIP3    H236590   1.148   0.073   4.946
12217TIP3   OH236591   1.716   2.158   6.728
12217TIP3    H136592   1.638   2.159   6.784
12217TIP3    H236593   1.683   2.170   6.639
12218TIP3   OH236594   4.466   7.773   2.822
12218TIP3    H136595   4.489   7.848   2.767
12218TIP3    H236596   4.415   7.809   2.894
12219TIP3   OH236597   2.445   0.753   4.403
12219TIP3    H136598   2.480   0.676   4.359
12219TIP3    H236599   2.520   0.811   4.414
12220TIP3   OH236600   7.963   5.930   2.512
12220TIP3    H136601   7.887   5.942   2.568
12220TIP3    H236602   8.008   5.854   2.548
12221TIP3   OH236603   2.105   1.160   3.758
12221TIP3    H136604   2.086   1.100   3.686
12221TIP3    H236605   2.020   1.173   3.801
12222TIP3   OH236606   4.992   6.942   6.271
12222TIP3    H136607   5.018   6.853   6.246
12222TIP3    H236608   4.970   6.935   6.364
12223TIP3   OH236609   1.052   1.648   0.688
12223TIP3    H136610   1.112   1.580   0.659
12223TIP3    H236611   1.085   1.674   0.774
12224TIP3   OH236612   5.601   3.673   3.002
12224TIP3    H136613   5.666   3.609   3.031
12224TIP3    H236614   5.650   3.754   2.993
12225TIP3   OH236615   5.021   0.114   4.940
12225TIP3    H136616   5.054   0.077   5.022
12225TIP3    H236617   4.933   0.145   4.962
12226TIP3   OH236618   3.108   0.930   2.714
12226TIP3    H136619   3.029   0.983   2.706
12226TIP3    H236620   3.077   0.839   2.708
12227TIP3   OH236621   3.269   0.153   6.732
12227TIP3    H136622   3.300   0.195   6.652
12227TIP3    H236623   3.229   0.072   6.702
12228TIP3   OH236624   5.090   4.532   5.738
12228TIP3    H136625   5.135   4.491   5.812
12228TIP3    H236626   5.136   4.499   5.660
12229TIP3   OH236627   8.202   2.418   4.354
12229TIP3    H136628   8.146   2.489   4.385
12229TIP3    H236629   8.287   2.459   4.338
12230TIP3   OH236630   3.675   5.276   5.603
12230TIP3    H136631   3.666   5.367   5.575
12230TIP3    H236632   3.766   5.268   5.631
12231TIP3   OH236633   0.526   1.713   1.863
12231TIP3    H136634   0.556   1.804   1.859
12231TIP3    H236635   0.570   1.677   1.940
12232TIP3   OH236636   6.563   7.091   0.659
12232TIP3    H136637   6.579   7.115   0.751
12232TIP3    H236638   6.552   7.175   0.614
12233TIP3   OH236639   5.040   2.573   4.741
12233TIP3    H136640   5.121   2.566   4.691
12233TIP3    H236641   4.971   2.561   4.676
12234TIP3   OH236642   4.784   7.795   1.005
12234TIP3    H136643   4.715   7.861   1.018
12234TIP3    H236644   4.801   7.798   0.911
12235TIP3   OH236645   7.083   3.103   3.370
12235TIP3    H136646   7.070   3.160   3.446
12235TIP3    H236647   7.145   3.037   3.399
12236TIP3   OH236648   7.810   1.838   4.681
12236TIP3    H136649   7.748   1.814   4.751
12236TIP3    H236650   7.798   1.932   4.670
12237TIP3   OH236651   1.745   6.158   5.316
12237TIP3    H136652   1.729   6.238   5.365
12237TIP3    H236653   1.697   6.090   5.365
12238TIP3   OH236654   5.950   1.135   4.248
12238TIP3    H136655   6.034   1.167   4.280
12238TIP3    H236656   5.961   1.131   4.153
12239TIP3   OH236657   6.386   2.014   2.486
12239TIP3    H136658   6.385   1.962   2.567
12239TIP3    H236659   6.455   1.973   2.433
12240TIP3   OH236660   2.593   2.130   3.248
12240TIP3    H136661   2.584   2.114   3.342
12240TIP3    H236662   2.681   2.165   3.238
12241TIP3   OH236663   2.215   6.504   2.058
12241TIP3    H136664   2.120   6.493   2.050
12241TIP3    H236665   2.245   6.422   2.099
12242TIP3   OH236666   0.198   2.611   2.425
12242TIP3    H136667   0.173   2.523   2.455
12242TIP3    H236668   0.288   2.600   2.394
12243TIP3   OH236669   2.358   1.120   5.982
12243TIP3    H136670   2.274   1.074   5.979
12243TIP3    H236671   2.348   1.183   6.053
12244TIP3   OH236672   3.387   7.033   1.719
12244TIP3    H136673   3.481   7.019   1.711
12244TIP3    H236674   3.353   6.951   1.754
12245TIP3   OH236675   3.692   5.180   0.164
12245TIP3    H136676   3.779   5.220   0.171
12245TIP3    H236677   3.636   5.235   0.218
12246TIP3   OH236678   4.854   5.485   3.250
12246TIP3    H136679   4.921   5.457   3.313
12246TIP3    H236680   4.785   5.419   3.258
12247TIP3   OH236681   2.280   2.811   4.251
12247TIP3    H136682   2.322   2.755   4.317
12247TIP3    H236683   2.204   2.760   4.222
12248TIP3   OH236684   7.519   6.812   2.308
12248TIP3    H136685   7.448   6.849   2.361
12248TIP3    H236686   7.541   6.730   2.352
12249TIP3   OH236687   1.434   7.830   4.293
12249TIP3    H136688   1.370   7.826   4.222
12249TIP3    H236689   1.458   7.739   4.309
12250TIP3   OH236690   4.298   1.530   4.304
12250TIP3    H136691   4.244   1.537   4.383
12250TIP3    H236692   4.240   1.556   4.233
12251TIP3   OH236693   5.600   2.673   6.160
12251TIP3    H136694   5.535   2.642   6.098
12251TIP3    H236695   5.604   2.604   6.227
12252TIP3   OH236696   7.579   0.768   4.853
12252TIP3    H136697   7.581   0.847   4.799
12252TIP3    H236698   7.584   0.801   4.943
12253TIP3   OH236699   5.289   7.796   2.520
12253TIP3    H136700   5.371   7.841   2.539
12253TIP3    H236701   5.264   7.756   2.603
12254TIP3   OH236702   4.565   6.027   3.714
12254TIP3    H136703   4.624   6.049   3.642
12254TIP3    H236704   4.524   6.110   3.738
12255TIP3   OH236705   3.006   5.120   6.552
12255TIP3    H136706   2.979   5.181   6.621
12255TIP3    H236707   3.075   5.068   6.592
12256TIP3   OH236708   3.126   5.379   5.275
12256TIP3    H136709   3.062   5.360   5.206
12256TIP3    H236710   3.178   5.299   5.283
12257TIP3   OH236711   6.658   0.736   4.756
12257TIP3    H136712   6.709   0.719   4.835
12257TIP3    H236713   6.719   0.721   4.684
12258TIP3   OH236714   7.641   5.345   5.854
12258TIP3    H136715   7.560   5.386   5.822
12258TIP3    H236716   7.667   5.398   5.929
12259TIP3   OH236717   5.540   1.383   0.834
12259TIP3    H136718   5.551   1.288   0.831
12259TIP3    H236719   5.496   1.399   0.918
12260TIP3   OH236720   3.757   0.593   4.862
12260TIP3    H136721   3.699   0.603   4.786
12260TIP3    H236722   3.753   0.678   4.906
12261TIP3   OH236723   3.492   5.592   0.494
12261TIP3    H136724   3.453   5.652   0.557
12261TIP3    H236725   3.428   5.584   0.424
12262TIP3   OH236726   1.067   5.294   3.758
12262TIP3    H136727   1.027   5.365   3.707
12262TIP3    H236728   0.994   5.254   3.805
12263TIP3   OH236729   4.034   5.648   0.535
12263TIP3    H136730   4.125   5.653   0.564
12263TIP3    H236731   4.004   5.562   0.563
12264TIP3   OH236732   6.156   4.717   0.355
12264TIP3    H136733   6.105   4.756   0.284
12264TIP3    H236734   6.093   4.661   0.402
12265TIP3   OH236735   4.939   5.792   5.140
12265TIP3    H136736   4.880   5.722   5.167
12265TIP3    H236737   4.902   5.871   5.180
12266TIP3   OH236738   2.325   6.500   0.217
12266TIP3    H136739   2.321   6.453   0.300
12266TIP3    H236740   2.233   6.509   0.191
12267TIP3   OH236741   6.236   6.246   5.030
12267TIP3    H136742   6.317   6.295   5.017
12267TIP3    H236743   6.171   6.312   5.052
12268TIP3   OH236744   6.224   6.782   0.152
12268TIP3    H136745   6.272   6.760   0.232
12268TIP3    H236746   6.291   6.782   0.084
12269TIP3   OH236747   4.428   6.035   4.271
12269TIP3    H136748   4.341   6.009   4.241
12269TIP3    H236749   4.482   6.034   4.192
12270TIP3   OH236750   2.642   0.444   0.545
12270TIP3    H136751   2.670   0.514   0.604
12270TIP3    H236752   2.676   0.470   0.460
12271TIP3   OH236753   1.868   2.799   2.243
12271TIP3    H136754   1.858   2.733   2.312
12271TIP3    H236755   1.879   2.881   2.291
12272TIP3   OH236756   0.723   3.433   4.902
12272TIP3    H136757   0.659   3.460   4.835
12272TIP3    H236758   0.792   3.390   4.852
12273TIP3   OH236759   6.205   4.452   1.628
12273TIP3    H136760   6.292   4.415   1.643
12273TIP3    H236761   6.222   4.542   1.599
12274TIP3   OH236762   6.464   5.067   6.319
12274TIP3    H136763   6.395   5.130   6.342
12274TIP3    H236764   6.545   5.112   6.342
12275TIP3   OH236765   4.737   4.182   5.926
12275TIP3    H136766   4.694   4.268   5.919
12275TIP3    H236767   4.820   4.194   5.880
12276TIP3   OH236768   4.276   5.632   0.676
12276TIP3    H136769   4.280   5.711   0.730
12276TIP3    H236770   4.291   5.560   0.737
12277TIP3   OH236771   4.013   7.237   3.638
12277TIP3    H136772   3.926   7.265   3.666
12277TIP3    H236773   4.072   7.273   3.703
12278TIP3   OH236774   5.176   7.409   2.839
12278TIP3    H136775   5.118   7.484   2.823
12278TIP3    H236776   5.116   7.337   2.859
12279TIP3   OH236777   3.209   4.529   5.174
12279TIP3    H136778   3.192   4.437   5.154
12279TIP3    H236779   3.266   4.527   5.251
12280TIP3   OH236780   5.922   7.791   3.783
12280TIP3    H136781   5.876   7.873   3.768
12280TIP3    H236782   5.948   7.794   3.875
12281TIP3   OH236783   7.853   0.491   5.470
12281TIP3    H136784   7.886   0.464   5.385
12281TIP3    H236785   7.923   0.468   5.531
12282TIP3   OH236786   0.217   2.935   5.656
12282TIP3    H136787   0.212   2.900   5.567
12282TIP3    H236788   0.283   2.881   5.699
12283TIP3   OH236789   0.367   2.460   5.915
12283TIP3    H136790   0.456   2.493   5.911
12283TIP3    H236791   0.365   2.406   5.995
12284TIP3   OH236792   2.450   5.430   3.008
12284TIP3    H136793   2.460   5.502   3.070
12284TIP3    H236794   2.479   5.353   3.057
12285TIP3   OH236795   5.579   7.191   2.871
12285TIP3    H136796   5.641   7.264   2.863
12285TIP3    H236797   5.601   7.152   2.956
12286TIP3   OH236798   1.343   1.751   2.871
12286TIP3    H136799   1.251   1.756   2.847
12286TIP3    H236800   1.366   1.840   2.898
12287TIP3   OH236801   4.639   7.567   0.988
12287TIP3    H136802   4.698   7.642   0.999
12287TIP3    H236803   4.657   7.534   0.900
12288TIP3   OH236804   5.679   7.210   5.932
12288TIP3    H136805   5.605   7.217   5.992
12288TIP3    H236806   5.659   7.133   5.878
12289TIP3   OH236807   3.492   4.954   4.349
12289TIP3    H136808   3.463   4.916   4.266
12289TIP3    H236809   3.541   5.032   4.324
12290TIP3   OH236810   0.749   7.419   4.579
12290TIP3    H136811   0.720   7.510   4.578
12290TIP3    H236812   0.845   7.424   4.580
12291TIP3   OH236813   3.082   1.171   3.631
12291TIP3    H136814   3.071   1.120   3.711
12291TIP3    H236815   3.136   1.246   3.658
12292TIP3   OH236816   0.263   7.009   6.680
12292TIP3    H136817   0.346   7.055   6.685
12292TIP3    H236818   0.261   6.954   6.759
12293TIP3   OH236819   5.479   7.108   0.805
12293TIP3    H136820   5.515   7.189   0.841
12293TIP3    H236821   5.434   7.135   0.725
12294TIP3   OH236822   2.770   0.037   6.739
12294TIP3    H136823   2.842  -0.009   6.781
12294TIP3    H236824   2.797   0.128   6.737
12295TIP3   OH236825   1.344   4.577   2.924
12295TIP3    H136826   1.317   4.518   2.994
12295TIP3    H236827   1.312   4.663   2.951
12296TIP3   OH236828   3.410   1.943   4.121
12296TIP3    H136829   3.348   1.989   4.066
12296TIP3    H236830   3.496   1.963   4.084
12297TIP3   OH236831   4.087   6.741   5.322
12297TIP3    H136832   4.126   6.756   5.409
12297TIP3    H236833   4.090   6.827   5.280
12298TIP3   OH236834   2.818   5.576   6.670
12298TIP3    H136835   2.824   5.657   6.618
12298TIP3    H236836   2.738   5.533   6.639
12299TIP3   OH236837   4.062   1.516   0.285
12299TIP3    H136838   4.007   1.502   0.208
12299TIP3    H236839   4.005   1.496   0.359
12300TIP3   OH236840   2.701   1.197   4.993
12300TIP3    H136841   2.750   1.277   5.010
12300TIP3    H236842   2.611   1.226   4.978
12301TIP3   OH236843   8.166   4.381   1.127
12301TIP3    H136844   8.081   4.336   1.129
12301TIP3    H236845   8.230   4.311   1.110
12302TIP3   OH236846   0.430   1.459   4.129
12302TIP3    H136847   0.409   1.385   4.185
12302TIP3    H236848   0.507   1.431   4.080
12303TIP3   OH236849   6.577   7.917   4.822
12303TIP3    H136850   6.515   7.847   4.841
12303TIP3    H236851   6.532   7.972   4.757
12304TIP3   OH236852   6.155   6.369   4.451
12304TIP3    H136853   6.138   6.406   4.537
12304TIP3    H236854   6.123   6.279   4.456
12305TIP3   OH236855   0.389   7.696   4.962
12305TIP3    H136856   0.315   7.652   5.004
12305TIP3    H236857   0.459   7.631   4.963
12306TIP3   OH236858   4.590   4.246   0.065
12306TIP3    H136859   4.567   4.231  -0.027
12306TIP3    H236860   4.506   4.265   0.107
12307TIP3   OH236861   7.446   7.237   2.982
12307TIP3    H136862   7.435   7.301   3.053
12307TIP3    H236863   7.367   7.183   2.986
12308TIP3   OH236864   0.079   5.391   0.592
12308TIP3    H136865   0.000   5.390   0.646
12308TIP3    H236866   0.117   5.304   0.603
12309TIP3   OH236867   7.693   4.241   6.245
12309TIP3    H136868   7.732   4.293   6.316
12309TIP3    H236869   7.763   4.234   6.179
12310TIP3   OH236870   3.849   2.159   2.453
12310TIP3    H136871   3.807   2.104   2.387
12310TIP3    H236872   3.785   2.228   2.472
12311TIP3   OH236873   4.636   2.991   3.112
12311TIP3    H136874   4.671   3.009   3.025
12311TIP3    H236875   4.693   3.040   3.172
12312TIP3   OH236876   4.890   0.549   2.986
12312TIP3    H136877   4.871   0.635   3.024
12312TIP3    H236878   4.806   0.504   2.984
12313TIP3   OH236879   7.170   0.296   0.507
12313TIP3    H136880   7.212   0.263   0.427
12313TIP3    H236881   7.086   0.251   0.511
12314TIP3   OH236882   8.300   3.207   1.624
12314TIP3    H136883   8.247   3.282   1.598
12314TIP3    H236884   8.268   3.184   1.711
12315TIP3   OH236885   0.597   5.733   0.114
12315TIP3    H136886   0.619   5.721   0.206
12315TIP3    H236887   0.525   5.796   0.115
12316TIP3   OH236888   1.853   7.547   2.204
12316TIP3    H136889   1.832   7.524   2.295
12316TIP3    H236890   1.883   7.465   2.165
12317TIP3   OH236891   6.901   0.398   2.272
12317TIP3    H136892   6.936   0.430   2.189
12317TIP3    H236893   6.974   0.409   2.334
12318TIP3   OH236894   6.120   6.986   3.753
12318TIP3    H136895   6.105   7.066   3.702
12318TIP3    H236896   6.183   7.013   3.819
12319TIP3   OH236897   1.526   5.770   4.245
12319TIP3    H136898   1.484   5.855   4.236
12319TIP3    H236899   1.587   5.765   4.171
12320TIP3   OH236900   6.332   2.298   2.024
12320TIP3    H136901   6.293   2.319   1.939
12320TIP3    H236902   6.298   2.211   2.045
12321TIP3   OH236903   0.369   7.128   4.825
12321TIP3    H136904   0.293   7.112   4.769
12321TIP3    H236905   0.336   7.118   4.914
12322TIP3   OH236906   3.850   5.648   5.184
12322TIP3    H136907   3.942   5.642   5.207
12322TIP3    H236908   3.806   5.591   5.248
12323TIP3   OH236909   4.439   4.840   0.436
12323TIP3    H136910   4.503   4.777   0.406
12323TIP3    H236911   4.475   4.874   0.518
12324TIP3   OH236912   2.051   2.696   0.215
12324TIP3    H136913   2.140   2.711   0.246
12324TIP3    H236914   2.048   2.601   0.200
12325TIP3   OH236915   0.650   0.579   5.761
12325TIP3    H136916   0.627   0.507   5.819
12325TIP3    H236917   0.731   0.614   5.798
12326TIP3   OH236918   4.288   4.050   3.426
12326TIP3    H136919   4.334   4.120   3.472
12326TIP3    H236920   4.331   4.047   3.340
12327TIP3   OH236921   7.946   1.508   1.600
12327TIP3    H136922   7.987   1.459   1.671
12327TIP3    H236923   7.859   1.469   1.591
12328TIP3   OH236924   4.166   1.765   5.149
12328TIP3    H136925   4.217   1.839   5.115
12328TIP3    H236926   4.092   1.757   5.090
12329TIP3   OH236927   0.966   0.083   0.321
12329TIP3    H136928   0.880   0.045   0.341
12329TIP3    H236929   1.022   0.057   0.394
12330TIP3   OH236930   8.268   6.687   4.722
12330TIP3    H136931   8.265   6.592   4.711
12330TIP3    H236932   8.206   6.705   4.793
12331TIP3   OH236933   3.797   7.470   6.105
12331TIP3    H136934   3.868   7.499   6.048
12331TIP3    H236935   3.759   7.395   6.059
12332TIP3   OH236936   2.140   3.176   3.447
12332TIP3    H136937   2.158   3.225   3.527
12332TIP3    H236938   2.160   3.238   3.376
12333TIP3   OH236939   1.648   4.901   1.586
12333TIP3    H136940   1.603   4.817   1.574
12333TIP3    H236941   1.643   4.918   1.681
12334TIP3   OH236942   0.435   7.697   1.831
12334TIP3    H136943   0.394   7.766   1.780
12334TIP3    H236944   0.417   7.617   1.782
12335TIP3   OH236945   0.188   6.581   4.764
12335TIP3    H136946   0.161   6.588   4.673
12335TIP3    H236947   0.130   6.641   4.811
12336TIP3   OH236948   3.404   5.060   4.094
12336TIP3    H136949   3.432   5.151   4.099
12336TIP3    H236950   3.311   5.062   4.116
12337TIP3   OH236951   3.259   7.130   4.368
12337TIP3    H136952   3.276   7.139   4.462
12337TIP3    H236953   3.326   7.184   4.327
12338TIP3   OH236954   5.519   5.364   5.072
12338TIP3    H136955   5.508   5.374   4.978
12338TIP3    H236956   5.614   5.370   5.086
12339TIP3   OH236957   1.635   2.026   5.546
12339TIP3    H136958   1.662   1.957   5.607
12339TIP3    H236959   1.717   2.052   5.503
12340TIP3   OH236960   7.816   0.288   3.043
12340TIP3    H136961   7.902   0.324   3.063
12340TIP3    H236962   7.789   0.245   3.125
12341TIP3   OH236963   3.206   6.119   5.294
12341TIP3    H136964   3.213   6.031   5.330
12341TIP3    H236965   3.116   6.124   5.260
12342TIP3   OH236966   2.138   5.438   1.181
12342TIP3    H136967   2.070   5.395   1.129
12342TIP3    H236968   2.183   5.495   1.120
12343TIP3   OH236969   4.208   5.331   5.308
12343TIP3    H136970   4.274   5.268   5.337
12343TIP3    H236971   4.190   5.305   5.218
12344TIP3   OH236972   3.529   7.328   5.757
12344TIP3    H136973   3.609   7.278   5.741
12344TIP3    H236974   3.468   7.265   5.793
12345TIP3   OH236975   7.575   7.170   5.420
12345TIP3    H136976   7.498   7.202   5.373
12345TIP3    H236977   7.544   7.093   5.468
12346TIP3   OH236978   3.307   0.620   0.325
12346TIP3    H136979   3.306   0.525   0.335
12346TIP3    H236980   3.371   0.636   0.255
12347TIP3   OH236981   7.270   2.036   4.547
12347TIP3    H136982   7.197   2.020   4.487
12347TIP3    H236983   7.266   2.130   4.565
12348TIP3   OH236984   1.632   2.192   1.863
12348TIP3    H136985   1.601   2.103   1.848
12348TIP3    H236986   1.661   2.222   1.777
12349TIP3   OH236987   3.840   5.115   5.039
12349TIP3    H136988   3.864   5.162   5.119
12349TIP3    H236989   3.790   5.178   4.988
12350TIP3   OH236990   7.943   2.639   1.270
12350TIP3    H136991   7.900   2.719   1.298
12350TIP3    H236992   7.988   2.662   1.189
12351TIP3   OH236993   3.686   5.841   6.782
12351TIP3    H136994   3.690   5.783   6.858
12351TIP3    H236995   3.659   5.925   6.818
12352TIP3   OH236996   6.215   1.917   1.649
12352TIP3    H136997   6.281   1.966   1.599
12352TIP3    H236998   6.266   1.866   1.711
12353TIP3   OH236999   2.903   6.686   2.685
12353TIP3    H137000   2.824   6.718   2.641
12353TIP3    H237001   2.870   6.626   2.752
12354TIP3   OH237002   1.908   0.552   2.052
12354TIP3    H137003   1.920   0.646   2.060
12354TIP3    H237004   1.814   0.538   2.068
12355TIP3   OH237005   5.497   4.171   5.931
12355TIP3    H137006   5.508   4.112   5.856
12355TIP3    H237007   5.472   4.255   5.892
12356TIP3   OH237008   2.024   2.389   3.628
12356TIP3    H137009   1.960   2.343   3.573
12356TIP3    H237010   2.106   2.382   3.579
12357TIP3   OH237011   1.105   4.888   6.379
12357TIP3    H137012   1.115   4.855   6.469
12357TIP3    H237013   1.189   4.869   6.337
12358TIP3   OH237014   1.083   5.387   1.569
12358TIP3    H137015   1.018   5.316   1.564
12358TIP3    H237016   1.109   5.401   1.478
12359TIP3   OH237017   5.357   4.857   5.801
12359TIP3    H137018   5.334   4.948   5.819
12359TIP3    H237019   5.276   4.817   5.769
12360TIP3   OH237020   1.484   1.707   6.234
12360TIP3    H137021   1.392   1.726   6.254
12360TIP3    H237022   1.534   1.765   6.292
12361TIP3   OH237023   1.088   4.696   3.736
12361TIP3    H137024   1.080   4.619   3.679
12361TIP3    H237025   1.079   4.661   3.825
12362TIP3   OH237026   7.226   4.530   3.594
12362TIP3    H137027   7.242   4.456   3.536
12362TIP3    H237028   7.304   4.584   3.587
12363TIP3   OH237029   7.050   3.756  -0.011
12363TIP3    H137030   7.116   3.710   0.040
12363TIP3    H237031   7.090   3.840  -0.032
12364TIP3   OH237032   7.859   2.110   4.720
12364TIP3    H137033   7.786   2.161   4.756
12364TIP3    H237034   7.862   2.134   4.628
12365TIP3   OH237035   6.564   7.413   2.182
12365TIP3    H137036   6.614   7.332   2.191
12365TIP3    H237037   6.523   7.425   2.268
12366TIP3   OH237038   3.040   3.119   3.386
12366TIP3    H137039   3.087   3.150   3.309
12366TIP3    H237040   3.108   3.076   3.439
12367TIP3   OH237041   0.353   2.684   2.154
12367TIP3    H137042   0.421   2.697   2.220
12367TIP3    H237043   0.305   2.766   2.152
12368TIP3   OH237044   2.455   7.624   2.768
12368TIP3    H137045   2.551   7.626   2.763
12368TIP3    H237046   2.433   7.531   2.759
12369TIP3   OH237047   5.923   5.575   1.454
12369TIP3    H137048   5.952   5.575   1.362
12369TIP3    H237049   5.841   5.625   1.453
12370TIP3   OH237050   5.495   0.349   0.927
12370TIP3    H137051   5.405   0.327   0.949
12370TIP3    H237052   5.491   0.440   0.897
12371TIP3   OH237053   1.030   6.080   1.001
12371TIP3    H137054   1.121   6.099   1.023
12371TIP3    H237055   0.994   6.164   0.972
12372TIP3   OH237056   8.166   7.589   6.547
12372TIP3    H137057   8.186   7.680   6.566
12372TIP3    H237058   8.091   7.569   6.602
12373TIP3   OH237059   3.743   5.680   1.287
12373TIP3    H137060   3.673   5.645   1.342
12373TIP3    H237061   3.706   5.761   1.250
12374TIP3   OH237062   4.865   6.243   0.668
12374TIP3    H137063   4.779   6.284   0.660
12374TIP3    H237064   4.857   6.184   0.743
12375TIP3   OH237065   4.099   4.020   6.115
12375TIP3    H137066   4.069   3.947   6.060
12375TIP3    H237067   4.036   4.090   6.097
12376TIP3   OH237068   4.714   5.790   4.317
12376TIP3    H137069   4.749   5.813   4.403
12376TIP3    H237070   4.702   5.874   4.273
12377TIP3   OH237071   1.775   3.522   5.294
12377TIP3    H137072   1.824   3.467   5.356
12377TIP3    H237073   1.823   3.605   5.292
12378TIP3   OH237074   5.593   1.370   6.087
12378TIP3    H137075   5.629   1.431   6.152
12378TIP3    H237076   5.670   1.341   6.037
12379TIP3   OH237077   4.404   3.400   4.217
12379TIP3    H137078   4.480   3.349   4.244
12379TIP3    H237079   4.383   3.455   4.293
12380TIP3   OH237080   0.354   7.594   5.740
12380TIP3    H137081   0.327   7.510   5.702
12380TIP3    H237082   0.402   7.569   5.819
12381TIP3   OH237083   6.784   2.873   4.057
12381TIP3    H137084   6.783   2.819   3.978
12381TIP3    H237085   6.819   2.957   4.028
12382TIP3   OH237086   0.935   2.673   2.646
12382TIP3    H137087   0.850   2.714   2.629
12382TIP3    H237088   0.915   2.596   2.699
12383TIP3   OH237089   3.762   7.226   1.761
12383TIP3    H137090   3.669   7.202   1.764
12383TIP3    H237091   3.795   7.205   1.848
12384TIP3   OH237092  -0.027   2.016   1.369
12384TIP3    H137093  -0.016   2.101   1.410
12384TIP3    H237094   0.028   1.957   1.421
12385TIP3   OH237095   7.566   5.939   2.976
12385TIP3    H137096   7.498   5.999   3.007
12385TIP3    H237097   7.647   5.972   3.016
12386TIP3   OH237098   0.052   2.619   6.390
12386TIP3    H137099  -0.016   2.599   6.325
12386TIP3    H237100   0.008   2.614   6.474
12387TIP3   OH237101   6.411   6.577   4.787
12387TIP3    H137102   6.458   6.535   4.859
12387TIP3    H237103   6.318   6.571   4.811
12388TIP3   OH237104   8.415   5.303   3.742
12388TIP3    H137105   8.386   5.392   3.764
12388TIP3    H237106   8.384   5.249   3.814
12389TIP3   OH237107   6.236   6.263   2.562
12389TIP3    H137108   6.172   6.227   2.500
12389TIP3    H237109   6.202   6.350   2.582
12390TIP3   OH237110   2.721   4.299   6.630
12390TIP3    H137111   2.713   4.247   6.710
12390TIP3    H237112   2.772   4.244   6.570
12391TIP3   OH237113   1.307   2.850   2.437
12391TIP3    H137114   1.237   2.867   2.374
12391TIP3    H237115   1.387   2.876   2.391
12392TIP3   OH237116   3.702   1.457   3.952
12392TIP3    H137117   3.783   1.419   3.917
12392TIP3    H237118   3.725   1.485   4.041
12393TIP3   OH237119   0.505   3.223   6.542
12393TIP3    H137120   0.556   3.303   6.526
12393TIP3    H237121   0.448   3.247   6.615
12394TIP3   OH237122   2.195   4.660   0.615
12394TIP3    H137123   2.274   4.631   0.659
12394TIP3    H237124   2.215   4.652   0.521
12395TIP3   OH237125   2.451   6.357   6.767
12395TIP3    H137126   2.395   6.359   6.689
12395TIP3    H237127   2.430   6.273   6.808
12396TIP3   OH237128   5.893   0.151   5.602
12396TIP3    H137129   5.810   0.104   5.610
12396TIP3    H237130   5.903   0.165   5.507
12397TIP3   OH237131   5.445   5.363   1.131
12397TIP3    H137132   5.450   5.438   1.191
12397TIP3    H237133   5.465   5.288   1.186
12398TIP3   OH237134   4.840   6.756   2.358
12398TIP3    H137135   4.825   6.834   2.411
12398TIP3    H237136   4.816   6.783   2.269
12399TIP3   OH237137   1.234   1.787   4.216
12399TIP3    H137138   1.263   1.771   4.306
12399TIP3    H237139   1.309   1.762   4.162
12400TIP3   OH237140   4.815   6.717   3.662
12400TIP3    H137141   4.868   6.781   3.613
12400TIP3    H237142   4.825   6.743   3.754
12401TIP3   OH237143   7.450   3.217   5.298
12401TIP3    H137144   7.396   3.266   5.236
12401TIP3    H237145   7.388   3.164   5.348
12402TIP3   OH237146   0.858   2.028   3.417
12402TIP3    H137147   0.873   2.027   3.512
12402TIP3    H237148   0.945   2.034   3.379
12403TIP3   OH237149   2.723   1.904   6.065
12403TIP3    H137150   2.782   1.979   6.065
12403TIP3    H237151   2.640   1.939   6.032
12404TIP3   OH237152   4.643   2.228   5.576
12404TIP3    H137153   4.691   2.168   5.519
12404TIP3    H237154   4.576   2.174   5.617
12405TIP3   OH237155   5.667   0.420   1.306
12405TIP3    H137156   5.679   0.407   1.212
12405TIP3    H237157   5.736   0.367   1.347
12406TIP3   OH237158   5.912   7.376   5.135
12406TIP3    H137159   5.845   7.316   5.168
12406TIP3    H237160   5.989   7.357   5.189
12407TIP3   OH237161   1.388   3.750   4.248
12407TIP3    H137162   1.342   3.762   4.331
12407TIP3    H237163   1.439   3.670   4.260
12408TIP3   OH237164   6.682   1.322   5.078
12408TIP3    H137165   6.615   1.360   5.021
12408TIP3    H237166   6.663   1.357   5.165
12409TIP3   OH237167   6.560   4.515   4.215
12409TIP3    H137168   6.538   4.522   4.307
12409TIP3    H237169   6.495   4.570   4.170
12410TIP3   OH237170   0.251   7.608   5.213
12410TIP3    H137171   0.229   7.518   5.189
12410TIP3    H237172   0.323   7.599   5.275
12411TIP3   OH237173   6.492   6.106   3.063
12411TIP3    H137174   6.542   6.175   3.107
12411TIP3    H237175   6.434   6.153   3.003
12412TIP3   OH237176   3.286   0.348   0.358
12412TIP3    H137177   3.374   0.318   0.335
12412TIP3    H237178   3.277   0.324   0.451
12413TIP3   OH237179   1.828   1.179   3.841
12413TIP3    H137180   1.841   1.224   3.924
12413TIP3    H237181   1.753   1.225   3.801
12414TIP3   OH237182   1.452   3.454   4.925
12414TIP3    H137183   1.389   3.418   4.987
12414TIP3    H237184   1.528   3.478   4.979
12415TIP3   OH237185   0.570   7.188   1.918
12415TIP3    H137186   0.622   7.178   1.998
12415TIP3    H237187   0.635   7.188   1.847
12416TIP3   OH237188   1.226   5.654   0.669
12416TIP3    H137189   1.293   5.657   0.600
12416TIP3    H237190   1.205   5.746   0.686
12417TIP3   OH237191   4.280   3.917   1.610
12417TIP3    H137192   4.246   3.849   1.552
12417TIP3    H237193   4.229   3.908   1.690
12418TIP3   OH237194   6.914   2.874   2.039
12418TIP3    H137195   6.966   2.904   2.113
12418TIP3    H237196   6.960   2.907   1.962
12419TIP3   OH237197   1.717   4.908   1.226
12419TIP3    H137198   1.680   4.820   1.230
12419TIP3    H237199   1.743   4.919   1.134
12420TIP3   OH237200   4.018   1.555   0.801
12420TIP3    H137201   4.038   1.648   0.792
12420TIP3    H237202   3.925   1.552   0.820
12421TIP3   OH237203   6.005   5.642   6.648
12421TIP3    H137204   5.934   5.682   6.699
12421TIP3    H237205   5.976   5.552   6.633
12422TIP3   OH237206   2.057   0.584   3.367
12422TIP3    H137207   2.131   0.618   3.417
12422TIP3    H237208   2.091   0.506   3.324
12423TIP3   OH237209   5.386   6.707   6.079
12423TIP3    H137210   5.393   6.660   5.996
12423TIP3    H237211   5.442   6.658   6.139
12424TIP3   OH237212   4.515   6.816   0.773
12424TIP3    H137213   4.469   6.850   0.696
12424TIP3    H237214   4.607   6.834   0.755
12425TIP3   OH237215   2.303   6.473   1.294
12425TIP3    H137216   2.236   6.526   1.251
12425TIP3    H237217   2.304   6.504   1.385
12426TIP3   OH237218   6.846   3.097   1.358
12426TIP3    H137219   6.828   3.114   1.265
12426TIP3    H237220   6.773   3.138   1.404
12427TIP3   OH237221   3.119   3.410   1.018
12427TIP3    H137222   3.053   3.387   0.953
12427TIP3    H237223   3.159   3.326   1.041
12428TIP3   OH237224   0.975   3.755   4.646
12428TIP3    H137225   0.936   3.732   4.562
12428TIP3    H237226   0.989   3.671   4.690
12429TIP3   OH237227   7.795   4.053   0.101
12429TIP3    H137228   7.732   4.104   0.049
12429TIP3    H237229   7.764   3.963   0.094
12430TIP3   OH237230   5.475   4.938   6.529
12430TIP3    H137231   5.389   4.900   6.509
12430TIP3    H237232   5.477   4.944   6.624
12431TIP3   OH237233   2.219   1.727   1.761
12431TIP3    H137234   2.297   1.678   1.734
12431TIP3    H237235   2.206   1.704   1.853
12432TIP3   OH237236   3.113   5.239   4.591
12432TIP3    H137237   3.173   5.177   4.549
12432TIP3    H237238   3.077   5.190   4.666
12433TIP3   OH237239   5.939   2.049   5.345
12433TIP3    H137240   5.903   2.136   5.329
12433TIP3    H237241   6.007   2.063   5.412
12434TIP3   OH237242   4.292   4.354   4.419
12434TIP3    H137243   4.335   4.276   4.385
12434TIP3    H237244   4.289   4.340   4.514
12435TIP3   OH237245   1.831   6.350   3.203
12435TIP3    H137246   1.736   6.357   3.207
12435TIP3    H237247   1.857   6.405   3.129
12436TIP3   OH237248   7.126   3.986   0.434
12436TIP3    H137249   7.204   3.950   0.391
12436TIP3    H237250   7.083   3.909   0.472
12437TIP3   OH237251   0.868   6.340   5.572
12437TIP3    H137252   0.934   6.272   5.585
12437TIP3    H237253   0.919   6.419   5.552
12438TIP3   OH237254   7.928   4.287   1.217
12438TIP3    H137255   7.898   4.249   1.299
12438TIP3    H237256   7.864   4.354   1.196
12439TIP3   OH237257   3.385   3.424   5.982
12439TIP3    H137258   3.346   3.512   5.978
12439TIP3    H237259   3.476   3.437   5.952
12440TIP3   OH237260   8.334   6.332   5.487
12440TIP3    H137261   8.320   6.386   5.565
12440TIP3    H237262   8.426   6.345   5.465
12441TIP3   OH237263   3.081   4.264   5.623
12441TIP3    H137264   3.051   4.317   5.697
12441TIP3    H237265   3.177   4.262   5.634
12442TIP3   OH237266   7.936   4.617   4.418
12442TIP3    H137267   7.879   4.632   4.343
12442TIP3    H237268   7.973   4.530   4.403
12443TIP3   OH237269   5.483   3.317   2.437
12443TIP3    H137270   5.540   3.251   2.398
12443TIP3    H237271   5.419   3.337   2.369
12444TIP3   OH237272   6.228   6.546   5.262
12444TIP3    H137273   6.202   6.631   5.298
12444TIP3    H237274   6.324   6.549   5.264
12445TIP3   OH237275   5.301   2.857   2.175
12445TIP3    H137276   5.304   2.844   2.270
12445TIP3    H237277   5.383   2.903   2.154
12446TIP3   OH237278   1.486   4.782   3.436
12446TIP3    H137279   1.503   4.814   3.525
12446TIP3    H237280   1.569   4.742   3.409
12447TIP3   OH237281   7.927   6.334   5.538
12447TIP3    H137282   7.958   6.356   5.626
12447TIP3    H237283   7.865   6.262   5.552
12448TIP3   OH237284   7.139   4.926   3.581
12448TIP3    H137285   7.208   4.924   3.647
12448TIP3    H237286   7.058   4.910   3.631
12449TIP3   OH237287   1.998   3.527   4.528
12449TIP3    H137288   1.946   3.487   4.458
12449TIP3    H237289   1.939   3.529   4.603
12450TIP3   OH237290   0.489   1.605   3.494
12450TIP3    H137291   0.405   1.581   3.455
12450TIP3    H237292   0.496   1.699   3.480
12451TIP3   OH237293   2.317   0.021   3.485
12451TIP3    H137294   2.249   0.010   3.419
12451TIP3    H237295   2.278  -0.009   3.567
12452TIP3   OH237296   6.911   6.897   3.117
12452TIP3    H137297   6.902   6.896   3.212
12452TIP3    H237298   6.826   6.869   3.084
12453TIP3   OH237299   5.034   6.182   3.695
12453TIP3    H137300   5.115   6.215   3.734
12453TIP3    H237301   5.062   6.138   3.615
12454TIP3   OH237302   7.340   4.361   3.438
12454TIP3    H137303   7.388   4.387   3.359
12454TIP3    H237304   7.394   4.291   3.476
12455TIP3   OH237305   7.256   6.965   3.416
12455TIP3    H137306   7.216   7.010   3.342
12455TIP3    H237307   7.209   6.882   3.423
12456TIP3   OH237308   1.141   1.390   5.501
12456TIP3    H137309   1.095   1.465   5.539
12456TIP3    H237310   1.212   1.371   5.563
12457TIP3   OH237311   5.180   4.570   0.601
12457TIP3    H137312   5.227   4.570   0.517
12457TIP3    H237313   5.133   4.653   0.601
12458TIP3   OH237314   6.004   5.463   3.950
12458TIP3    H137315   6.018   5.497   3.862
12458TIP3    H237316   5.991   5.540   4.005
12459TIP3   OH237317   0.599   4.922   2.649
12459TIP3    H137318   0.668   4.962   2.595
12459TIP3    H237319   0.637   4.839   2.678
12460TIP3   OH237320   7.950   7.373   3.707
12460TIP3    H137321   7.910   7.456   3.682
12460TIP3    H237322   7.896   7.306   3.664
12461TIP3   OH237323   0.666   0.508   6.567
12461TIP3    H137324   0.714   0.456   6.632
12461TIP3    H237325   0.593   0.451   6.540
12462TIP3   OH237326   2.132   4.394   1.658
12462TIP3    H137327   2.036   4.399   1.651
12462TIP3    H237328   2.160   4.485   1.663
12463TIP3   OH237329   2.863   0.251   0.426
12463TIP3    H137330   2.784   0.306   0.430
12463TIP3    H237331   2.924   0.293   0.487
12464TIP3   OH237332   5.626   5.282   5.971
12464TIP3    H137333   5.687   5.208   5.981
12464TIP3    H237334   5.652   5.322   5.888
12465TIP3   OH237335   1.793   0.142   5.231
12465TIP3    H137336   1.782   0.168   5.322
12465TIP3    H237337   1.712   0.094   5.210
12466TIP3   OH237338   4.810   4.207   2.393
12466TIP3    H137339   4.900   4.222   2.364
12466TIP3    H237340   4.796   4.113   2.378
12467TIP3   OH237341   5.326   4.552   0.926
12467TIP3    H137342   5.322   4.549   0.831
12467TIP3    H237343   5.375   4.474   0.952
12468TIP3   OH237344   7.585   7.771   4.153
12468TIP3    H137345   7.553   7.828   4.222
12468TIP3    H237346   7.593   7.828   4.077
12469TIP3   OH237347   0.754   7.149   1.602
12469TIP3    H137348   0.829   7.113   1.650
12469TIP3    H237349   0.737   7.084   1.533
12470TIP3   OH237350   6.708   7.464   0.748
12470TIP3    H137351   6.638   7.470   0.813
12470TIP3    H237352   6.735   7.555   0.734
12471TIP3   OH237353   0.015   0.968   2.811
12471TIP3    H137354   0.083   1.025   2.775
12471TIP3    H237355  -0.054   0.966   2.745
12472TIP3   OH237356   3.246  -0.039   6.463
12472TIP3    H137357   3.174   0.005   6.419
12472TIP3    H237358   3.324  -0.007   6.419
12473TIP3   OH237359   3.254   1.801   3.829
12473TIP3    H137360   3.190   1.734   3.853
12473TIP3    H237361   3.230   1.827   3.740
12474TIP3   OH237362   3.567   5.474   4.315
12474TIP3    H137363   3.536   5.550   4.364
12474TIP3    H237364   3.514   5.401   4.349
12475TIP3   OH237365   1.602   3.206   6.432
12475TIP3    H137366   1.577   3.295   6.407
12475TIP3    H237367   1.550   3.149   6.374
12476TIP3   OH237368   6.389   5.507   2.857
12476TIP3    H137369   6.428   5.521   2.771
12476TIP3    H237370   6.451   5.546   2.919
12477TIP3   OH237371   4.696   0.785   5.395
12477TIP3    H137372   4.685   0.728   5.471
12477TIP3    H237373   4.789   0.811   5.397
12478TIP3   OH237374   7.318   7.613   3.277
12478TIP3    H137375   7.374   7.690   3.271
12478TIP3    H237376   7.230   7.648   3.289
12479TIP3   OH237377   2.739   0.809   0.959
12479TIP3    H137378   2.680   0.765   1.020
12479TIP3    H237379   2.694   0.891   0.939
12480TIP3   OH237380   6.951   6.658   0.214
12480TIP3    H137381   6.937   6.715   0.289
12480TIP3    H237382   6.987   6.716   0.146
12481TIP3   OH237383   2.446   1.184   1.093
12481TIP3    H137384   2.396   1.257   1.129
12481TIP3    H237385   2.411   1.106   1.136
12482TIP3   OH237386   7.751   6.891   5.253
12482TIP3    H137387   7.785   6.974   5.221
12482TIP3    H237388   7.669   6.879   5.206
12483TIP3   OH237389   0.847   0.882   2.585
12483TIP3    H137390   0.816   0.962   2.627
12483TIP3    H237391   0.832   0.896   2.492
12484TIP3   OH237392   0.320   3.635   0.260
12484TIP3    H137393   0.286   3.673   0.341
12484TIP3    H237394   0.408   3.674   0.251
12485TIP3   OH237395   8.224   4.795   2.570
12485TIP3    H137396   8.140   4.777   2.528
12485TIP3    H237397   8.224   4.740   2.649
12486TIP3   OH237398   0.339   0.354   1.570
12486TIP3    H137399   0.287   0.360   1.490
12486TIP3    H237400   0.417   0.406   1.552
12487TIP3   OH237401   3.712   4.161   4.544
12487TIP3    H137402   3.762   4.192   4.468
12487TIP3    H237403   3.777   4.156   4.614
12488TIP3   OH237404   4.287   1.895   2.019
12488TIP3    H137405   4.223   1.860   2.081
12488TIP3    H237406   4.251   1.872   1.933
12489TIP3   OH237407   4.805   6.086   6.167
12489TIP3    H137408   4.739   6.048   6.109
12489TIP3    H237409   4.755   6.139   6.229
12490TIP3   OH237410   0.680   4.035   3.343
12490TIP3    H137411   0.621   4.058   3.272
12490TIP3    H237412   0.717   3.950   3.318
12491TIP3   OH237413   7.402   1.147   0.302
12491TIP3    H137414   7.424   1.090   0.229
12491TIP3    H237415   7.486   1.187   0.327
12492TIP3   OH237416   2.072   3.055   2.479
12492TIP3    H137417   2.121   2.983   2.519
12492TIP3    H237418   2.100   3.055   2.387
12493TIP3   OH237419   8.270   0.563   4.010
12493TIP3    H137420   8.232   0.619   3.942
12493TIP3    H237421   8.293   0.624   4.080
12494TIP3   OH237422   3.985   5.499   0.841
12494TIP3    H137423   3.903   5.457   0.813
12494TIP3    H237424   4.054   5.441   0.808
12495TIP3   OH237425   6.016   1.360   0.560
12495TIP3    H137426   6.078   1.389   0.494
12495TIP3    H237427   5.973   1.283   0.522
12496TIP3   OH237428   7.929   5.294   4.212
12496TIP3    H137429   7.986   5.312   4.138
12496TIP3    H237430   7.962   5.212   4.249
12497TIP3   OH237431   6.531   6.579   5.261
12497TIP3    H137432   6.568   6.633   5.330
12497TIP3    H237433   6.558   6.490   5.284
12498TIP3   OH237434   4.348   4.939   0.704
12498TIP3    H137435   4.388   5.016   0.664
12498TIP3    H237436   4.387   4.932   0.790
12499TIP3   OH237437   7.644   6.828   4.854
12499TIP3    H137438   7.592   6.850   4.932
12499TIP3    H237439   7.589   6.767   4.805
12500TIP3   OH237440   4.421   2.933   1.865
12500TIP3    H137441   4.357   2.877   1.909
12500TIP3    H237442   4.461   2.984   1.936
12501TIP3   OH237443   6.637   5.234   5.910
12501TIP3    H137444   6.602   5.270   5.991
12501TIP3    H237445   6.675   5.150   5.935
12502TIP3   OH237446   5.066   5.889   3.285
12502TIP3    H137447   5.122   5.829   3.334
12502TIP3    H237448   5.041   5.956   3.349
12503TIP3   OH237449   6.580   0.729   5.182
12503TIP3    H137450   6.652   0.730   5.119
12503TIP3    H237451   6.563   0.636   5.198
12504TIP3   OH237452   7.215   4.457   0.886
12504TIP3    H137453   7.256   4.469   0.800
12504TIP3    H237454   7.122   4.446   0.866
12505TIP3   OH237455   2.113   0.938   0.708
12505TIP3    H137456   2.041   0.876   0.718
12505TIP3    H237457   2.120   0.981   0.793
12506TIP3   OH237458   2.584   2.528   6.653
12506TIP3    H137459   2.629   2.566   6.577
12506TIP3    H237460   2.532   2.600   6.688
12507TIP3   OH237461   8.032   7.165   6.584
12507TIP3    H137462   8.097   7.234   6.595
12507TIP3    H237463   7.972   7.199   6.518
12508TIP3   OH237464   0.589   2.759   2.670
12508TIP3    H137465   0.498   2.762   2.641
12508TIP3    H237466   0.623   2.676   2.637
12509TIP3   OH237467   0.355   3.306   0.559
12509TIP3    H137468   0.432   3.362   0.560
12509TIP3    H237469   0.285   3.362   0.526
12510TIP3   OH237470   4.562   2.076   4.251
12510TIP3    H137471   4.648   2.085   4.212
12510TIP3    H237472   4.533   1.988   4.226
12511TIP3   OH237473   6.124   0.624   6.059
12511TIP3    H137474   6.216   0.613   6.036
12511TIP3    H237475   6.103   0.548   6.114
12512TIP3   OH237476   4.679   2.515   1.271
12512TIP3    H137477   4.693   2.488   1.180
12512TIP3    H237478   4.621   2.447   1.306
12513TIP3   OH237479   7.995   2.550   5.698
12513TIP3    H137480   7.993   2.512   5.786
12513TIP3    H237481   7.917   2.514   5.655
12514TIP3   OH237482   0.994   5.238   1.289
12514TIP3    H137483   1.058   5.310   1.292
12514TIP3    H237484   0.960   5.239   1.200
12515TIP3   OH237485   0.861   6.680   5.505
12515TIP3    H137486   0.927   6.618   5.474
12515TIP3    H237487   0.820   6.714   5.425
12516TIP3   OH237488   7.525   4.735   0.534
12516TIP3    H137489   7.451   4.734   0.473
12516TIP3    H237490   7.489   4.772   0.615
12517TIP3   OH237491   6.825   4.084   5.609
12517TIP3    H137492   6.888   4.143   5.567
12517TIP3    H237493   6.880   4.027   5.663
12518TIP3   OH237494   2.735   6.676   6.533
12518TIP3    H137495   2.669   6.700   6.468
12518TIP3    H237496   2.740   6.581   6.528
12519TIP3   OH237497   6.470   1.648   0.329
12519TIP3    H137498   6.491   1.572   0.275
12519TIP3    H237499   6.427   1.709   0.270
12520TIP3   OH237500   2.190   0.086   5.779
12520TIP3    H137501   2.244   0.024   5.730
12520TIP3    H237502   2.252   0.155   5.806
12521TIP3   OH237503   7.242   5.789   3.604
12521TIP3    H137504   7.198   5.787   3.689
12521TIP3    H237505   7.216   5.872   3.565
12522TIP3   OH237506   6.122   2.573   4.887
12522TIP3    H137507   6.060   2.622   4.942
12522TIP3    H237508   6.167   2.641   4.837
12523TIP3   OH237509   1.006   3.368   3.865
12523TIP3    H137510   0.969   3.455   3.850
12523TIP3    H237511   1.071   3.382   3.934
12524TIP3   OH237512   4.167   0.574   5.629
12524TIP3    H137513   4.079   0.561   5.667
12524TIP3    H237514   4.156   0.553   5.536
12525TIP3   OH237515   3.095   5.195   3.171
12525TIP3    H137516   3.087   5.229   3.260
12525TIP3    H237517   3.166   5.132   3.175
12526TIP3   OH237518   3.463   2.717   5.574
12526TIP3    H137519   3.533   2.774   5.606
12526TIP3    H237520   3.419   2.687   5.654
12527TIP3   OH237521   3.532   4.551   1.476
12527TIP3    H137522   3.610   4.517   1.520
12527TIP3    H237523   3.482   4.473   1.452
12528TIP3   OH237524   1.968   5.112   1.120
12528TIP3    H137525   1.877   5.114   1.090
12528TIP3    H237526   1.972   5.179   1.187
12529TIP3   OH237527   0.679   7.397   1.249
12529TIP3    H137528   0.772   7.376   1.255
12529TIP3    H237529   0.651   7.357   1.167
12530TIP3   OH237530   6.024   7.079   4.564
12530TIP3    H137531   6.037   7.018   4.636
12530TIP3    H237532   6.100   7.138   4.567
12531TIP3   OH237533   5.442   4.643   0.413
12531TIP3    H137534   5.380   4.644   0.340
12531TIP3    H237535   5.450   4.735   0.439
12532TIP3   OH237536   1.937   0.801   4.336
12532TIP3    H137537   1.998   0.803   4.261
12532TIP3    H237538   1.981   0.746   4.401
12533TIP3   OH237539   2.927   6.911   5.182
12533TIP3    H137540   2.851   6.953   5.140
12533TIP3    H237541   2.956   6.845   5.118
12534TIP3   OH237542   4.191   2.047   2.862
12534TIP3    H137543   4.251   2.122   2.862
12534TIP3    H237544   4.170   2.035   2.955
12535TIP3   OH237545   0.967   2.699   3.444
12535TIP3    H137546   0.935   2.756   3.375
12535TIP3    H237547   0.992   2.618   3.399
12536TIP3   OH237548   3.357   6.174   6.678
12536TIP3    H137549   3.441   6.213   6.654
12536TIP3    H237550   3.375   6.123   6.756
12537TIP3   OH237551   0.344   4.541   0.586
12537TIP3    H137552   0.298   4.524   0.504
12537TIP3    H237553   0.292   4.607   0.630
12538TIP3   OH237554   5.438   2.996   6.044
12538TIP3    H137555   5.527   3.020   6.019
12538TIP3    H237556   5.448   2.946   6.125
12539TIP3   OH237557   4.846   0.537   1.015
12539TIP3    H137558   4.901   0.496   1.081
12539TIP3    H237559   4.908   0.565   0.947
12540TIP3   OH237560   4.902   1.513   4.493
12540TIP3    H137561   4.879   1.490   4.403
12540TIP3    H237562   4.954   1.593   4.485
12541TIP3   OH237563   2.507   2.980   3.002
12541TIP3    H137564   2.456   2.912   2.958
12541TIP3    H237565   2.590   2.938   3.024
12542TIP3   OH237566   0.674   6.683   2.161
12542TIP3    H137567   0.604   6.640   2.209
12542TIP3    H237568   0.716   6.613   2.111
12543TIP3   OH237569   5.285   4.121   6.763
12543TIP3    H137570   5.316   4.177   6.692
12543TIP3    H237571   5.349   4.050   6.768
12544TIP3   OH237572   1.314   0.892   0.237
12544TIP3    H137573   1.389   0.841   0.267
12544TIP3    H237574   1.292   0.853   0.152
12545TIP3   OH237575   5.316   5.394   0.332
12545TIP3    H137576   5.329   5.483   0.299
12545TIP3    H237577   5.256   5.405   0.406
12546TIP3   OH237578   1.668   3.803   6.437
12546TIP3    H137579   1.572   3.801   6.443
12546TIP3    H237580   1.686   3.818   6.345
12547TIP3   OH237581   3.914   4.186   4.339
12547TIP3    H137582   3.925   4.094   4.314
12547TIP3    H237583   3.881   4.229   4.260
12548TIP3   OH237584   1.684   5.193   1.033
12548TIP3    H137585   1.631   5.113   1.032
12548TIP3    H237586   1.705   5.209   0.941
12549TIP3   OH237587   3.739   3.548   2.653
12549TIP3    H137588   3.696   3.489   2.591
12549TIP3    H237589   3.833   3.533   2.640
12550TIP3   OH237590   7.566   1.245   0.031
12550TIP3    H137591   7.581   1.272   0.122
12550TIP3    H237592   7.651   1.257  -0.011
12551TIP3   OH237593   3.624   5.866   5.940
12551TIP3    H137594   3.716   5.878   5.916
12551TIP3    H237595   3.625   5.853   6.034
12552TIP3   OH237596   3.124   6.690   5.519
12552TIP3    H137597   3.077   6.609   5.499
12552TIP3    H237598   3.212   6.678   5.482
12553TIP3   OH237599   1.258   5.494   1.736
12553TIP3    H137600   1.215   5.575   1.708
12553TIP3    H237601   1.219   5.426   1.681
12554TIP3   OH237602   7.423   0.085   0.558
12554TIP3    H137603   7.358   0.137   0.605
12554TIP3    H237604   7.429   0.127   0.472
12555TIP3   OH237605   3.655   4.309   6.473
12555TIP3    H137606   3.587   4.261   6.425
12555TIP3    H237607   3.719   4.243   6.496
12556TIP3   OH237608   6.938   5.627   4.148
12556TIP3    H137609   6.853   5.655   4.180
12556TIP3    H237610   6.918   5.562   4.081
12557TIP3   OH237611   8.360   5.218   5.729
12557TIP3    H137612   8.276   5.221   5.683
12557TIP3    H237613   8.357   5.136   5.779
12558TIP3   OH237614   6.073   5.885   6.259
12558TIP3    H137615   6.030   5.871   6.344
12558TIP3    H237616   6.117   5.969   6.268
12559TIP3   OH237617   7.906   6.756   0.937
12559TIP3    H137618   7.885   6.778   0.846
12559TIP3    H237619   7.999   6.734   0.936
12560TIP3   OH237620   2.025   6.232   6.164
12560TIP3    H137621   1.952   6.281   6.202
12560TIP3    H237622   2.055   6.286   6.091
12561TIP3   OH237623   6.377   3.634   2.215
12561TIP3    H137624   6.331   3.711   2.184
12561TIP3    H237625   6.308   3.577   2.248
12562TIP3   OH237626   1.759   7.000   5.203
12562TIP3    H137627   1.817   6.988   5.127
12562TIP3    H237628   1.749   6.912   5.239
12563TIP3   OH237629   2.489   5.442   5.005
12563TIP3    H137630   2.447   5.488   5.077
12563TIP3    H237631   2.555   5.387   5.048
12564TIP3   OH237632   4.416   5.399   5.819
12564TIP3    H137633   4.381   5.416   5.732
12564TIP3    H237634   4.339   5.393   5.876
12565TIP3   OH237635   2.706   2.554   1.043
12565TIP3    H137636   2.687   2.576   1.134
12565TIP3    H237637   2.765   2.622   1.013
12566TIP3   OH237638   4.348   2.597   1.060
12566TIP3    H137639   4.374   2.679   1.017
12566TIP3    H237640   4.316   2.624   1.146
12567TIP3   OH237641   1.311   5.056   6.579
12567TIP3    H137642   1.378   5.028   6.642
12567TIP3    H237643   1.251   4.982   6.573
12568TIP3   OH237644   0.191   1.046   5.236
12568TIP3    H137645   0.268   1.103   5.241
12568TIP3    H237646   0.189   1.015   5.146
12569TIP3   OH237647   5.008   4.228   6.461
12569TIP3    H137648   4.997   4.213   6.555
12569TIP3    H237649   4.957   4.307   6.443
12570TIP3   OH237650   0.273   1.369   6.229
12570TIP3    H137651   0.322   1.314   6.167
12570TIP3    H237652   0.210   1.416   6.175
12571TIP3   OH237653   0.595   0.494   1.554
12571TIP3    H137654   0.676   0.458   1.589
12571TIP3    H237655   0.621   0.576   1.513
12572TIP3   OH237656   6.450   0.697   2.173
12572TIP3    H137657   6.487   0.736   2.252
12572TIP3    H237658   6.490   0.610   2.168
12573TIP3   OH237659   3.578   5.270   1.965
12573TIP3    H137660   3.599   5.229   2.049
12573TIP3    H237661   3.514   5.211   1.925
12574TIP3   OH237662   2.898   5.829   0.344
12574TIP3    H137663   2.821   5.843   0.398
12574TIP3    H237664   2.883   5.744   0.302
12575TIP3   OH237665   6.182   0.967   4.068
12575TIP3    H137666   6.120   1.037   4.048
12575TIP3    H237667   6.179   0.910   3.992
12576TIP3   OH237668   7.763   5.994   5.126
12576TIP3    H137669   7.752   5.900   5.112
12576TIP3    H237670   7.713   6.012   5.205
12577TIP3   OH237671   1.679   4.938   2.639
12577TIP3    H137672   1.592   4.979   2.637
12577TIP3    H237673   1.740   5.012   2.638
12578TIP3   OH237674   2.327   4.543   6.018
12578TIP3    H137675   2.412   4.502   6.031
12578TIP3    H237676   2.347   4.635   6.000
12579TIP3   OH237677   1.827   4.754   3.597
12579TIP3    H137678   1.772   4.756   3.676
12579TIP3    H237679   1.783   4.693   3.538
12580TIP3   OH237680   0.510   2.813   0.723
12580TIP3    H137681   0.489   2.821   0.817
12580TIP3    H237682   0.534   2.902   0.696
12581TIP3   OH237683   4.833   6.708   5.103
12581TIP3    H137684   4.858   6.622   5.069
12581TIP3    H237685   4.766   6.689   5.169
12582TIP3   OH237686   2.697   2.068   1.455
12582TIP3    H137687   2.690   2.153   1.497
12582TIP3    H237688   2.750   2.084   1.376
12583TIP3   OH237689   7.435   1.933   1.393
12583TIP3    H137690   7.424   1.941   1.488
12583TIP3    H237691   7.513   1.985   1.374
12584TIP3   OH237692   2.785   3.579   6.537
12584TIP3    H137693   2.728   3.530   6.477
12584TIP3    H237694   2.869   3.533   6.533
12585TIP3   OH237695   2.301   6.409   3.820
12585TIP3    H137696   2.334   6.356   3.749
12585TIP3    H237697   2.365   6.398   3.891
12586TIP3   OH237698   4.056   0.977   4.237
12586TIP3    H137699   4.128   1.038   4.220
12586TIP3    H237700   4.016   1.010   4.317
12587TIP3   OH237701   5.271   7.327   3.882
12587TIP3    H137702   5.241   7.276   3.807
12587TIP3    H237703   5.276   7.417   3.849
12588TIP3   OH237704   2.460   7.337   6.014
12588TIP3    H137705   2.425   7.249   6.019
12588TIP3    H237706   2.383   7.394   6.015
12589TIP3   OH237707   4.992   1.609   1.837
12589TIP3    H137708   4.917   1.651   1.879
12589TIP3    H237709   5.023   1.546   1.902
12590TIP3   OH237710   6.414   3.312   5.612
12590TIP3    H137711   6.486   3.252   5.590
12590TIP3    H237712   6.423   3.326   5.707
12591TIP3   OH237713   3.478   1.054   4.913
12591TIP3    H137714   3.385   1.074   4.924
12591TIP3    H237715   3.479   0.982   4.850
12592TIP3   OH237716   5.842   3.756   5.911
12592TIP3    H137717   5.902   3.689   5.879
12592TIP3    H237718   5.886   3.839   5.892
12593TIP3   OH237719   5.390   2.662   0.883
12593TIP3    H137720   5.477   2.623   0.877
12593TIP3    H237721   5.390   2.707   0.968
12594TIP3   OH237722   6.861   0.441   4.305
12594TIP3    H137723   6.854   0.511   4.240
12594TIP3    H237724   6.825   0.479   4.385
12595TIP3   OH237725   5.177   6.207   3.213
12595TIP3    H137726   5.086   6.230   3.231
12595TIP3    H237727   5.226   6.250   3.283
12596TIP3   OH237728   6.994   5.103   4.205
12596TIP3    H137729   7.052   5.150   4.265
12596TIP3    H237730   6.917   5.081   4.257
12597TIP3   OH237731   2.599   2.287   5.749
12597TIP3    H137732   2.675   2.230   5.733
12597TIP3    H237733   2.636   2.362   5.795
12598TIP3   OH237734   3.319   7.201   4.636
12598TIP3    H137735   3.298   7.214   4.728
12598TIP3    H237736   3.389   7.136   4.636
12599TIP3   OH237737   6.070   2.688   2.176
12599TIP3    H137738   6.103   2.677   2.087
12599TIP3    H237739   6.015   2.610   2.191
12600TIP3   OH237740   3.120   0.648   6.481
12600TIP3    H137741   3.113   0.741   6.463
12600TIP3    H237742   3.053   0.607   6.427
12601TIP3   OH237743   0.548   7.296   6.186
12601TIP3    H137744   0.636   7.261   6.201
12601TIP3    H237745   0.528   7.345   6.266
12602TIP3   OH237746   6.989   3.920   2.793
12602TIP3    H137747   6.938   3.999   2.773
12602TIP3    H237748   7.054   3.915   2.723
12603TIP3   OH237749   2.936   3.253   3.614
12603TIP3    H137750   2.846   3.250   3.583
12603TIP3    H237751   2.986   3.200   3.552
12604TIP3   OH237752   2.277   4.128   2.438
12604TIP3    H137753   2.199   4.182   2.424
12604TIP3    H237754   2.253   4.069   2.509
12605TIP3   OH237755   6.322   6.716   5.992
12605TIP3    H137756   6.390   6.749   5.933
12605TIP3    H237757   6.362   6.721   6.080
12606TIP3   OH237758   6.675   4.935   3.892
12606TIP3    H137759   6.623   5.011   3.920
12606TIP3    H237760   6.618   4.860   3.907
12607TIP3   OH237761   2.676   0.925   4.413
12607TIP3    H137762   2.632   1.009   4.403
12607TIP3    H237763   2.715   0.929   4.501
12608TIP3   OH237764   6.930   7.846   1.766
12608TIP3    H137765   6.906   7.910   1.700
12608TIP3    H237766   6.982   7.781   1.719
12609TIP3   OH237767   7.667   5.469   0.526
12609TIP3    H137768   7.611   5.479   0.604
12609TIP3    H237769   7.693   5.558   0.504
12610TIP3   OH237770   0.746   1.330   5.744
12610TIP3    H137771   0.766   1.240   5.720
12610TIP3    H237772   0.666   1.324   5.797
12611TIP3   OH237773   3.399   6.727   4.601
12611TIP3    H137774   3.481   6.708   4.555
12611TIP3    H237775   3.344   6.770   4.536
12612TIP3   OH237776   5.370   4.006   3.260
12612TIP3    H137777   5.347   3.929   3.209
12612TIP3    H237778   5.465   4.013   3.251
12613TIP3   OH237779   2.035   3.591   3.775
12613TIP3    H137780   2.004   3.506   3.745
12613TIP3    H237781   1.958   3.648   3.770
12614TIP3   OH237782   0.024   1.166   3.523
12614TIP3    H137783   0.091   1.115   3.478
12614TIP3    H237784  -0.034   1.100   3.562
12615TIP3   OH237785   6.521   0.453   5.249
12615TIP3    H137786   6.536   0.362   5.224
12615TIP3    H237787   6.426   0.460   5.257
12616TIP3   OH237788   6.620   7.466   6.370
12616TIP3    H137789   6.617   7.371   6.356
12616TIP3    H237790   6.713   7.488   6.369
12617TIP3   OH237791   4.633   7.878   5.784
12617TIP3    H137792   4.698   7.945   5.766
12617TIP3    H237793   4.671   7.826   5.854
12618TIP3   OH237794   0.696   4.895   4.383
12618TIP3    H137795   0.637   4.909   4.310
12618TIP3    H237796   0.658   4.945   4.455
12619TIP3   OH237797   5.937   2.322   0.848
12619TIP3    H137798   6.028   2.322   0.819
12619TIP3    H237799   5.900   2.402   0.809
12620TIP3   OH237800   3.140   5.375   1.164
12620TIP3    H137801   3.083   5.394   1.239
12620TIP3    H237802   3.080   5.369   1.090
12621TIP3   OH237803   6.310   1.121   2.669
12621TIP3    H137804   6.338   1.174   2.744
12621TIP3    H237805   6.272   1.185   2.609
12622TIP3   OH237806   5.230   7.574   1.783
12622TIP3    H137807   5.324   7.562   1.796
12622TIP3    H237808   5.208   7.518   1.709
12623TIP3   OH237809   7.820   5.835   6.790
12623TIP3    H137810   7.883   5.763   6.789
12623TIP3    H237811   7.873   5.913   6.805
12624TIP3   OH237812   0.236   5.086   5.976
12624TIP3    H137813   0.197   5.031   6.045
12624TIP3    H237814   0.281   5.155   6.023
12625TIP3   OH237815   1.677   7.331   1.183
12625TIP3    H137816   1.594   7.364   1.219
12625TIP3    H237817   1.701   7.395   1.116
12626TIP3   OH237818   8.132   2.101   1.044
12626TIP3    H137819   8.179   2.169   0.996
12626TIP3    H237820   8.200   2.055   1.093
12627TIP3   OH237821   5.765   4.728   3.100
12627TIP3    H137822   5.726   4.758   3.017
12627TIP3    H237823   5.797   4.808   3.141
12628TIP3   OH237824   7.119   1.805   0.826
12628TIP3    H137825   7.062   1.862   0.775
12628TIP3    H237826   7.162   1.750   0.761
12629TIP3   OH237827   6.012   6.367   2.358
12629TIP3    H137828   5.941   6.390   2.298
12629TIP3    H237829   6.013   6.271   2.358
12630TIP3   OH237830   8.268   6.107   6.423
12630TIP3    H137831   8.321   6.028   6.416
12630TIP3    H237832   8.332   6.178   6.427
12631TIP3   OH237833   0.026   2.812   0.852
12631TIP3    H137834  -0.021   2.889   0.882
12631TIP3    H237835   0.030   2.822   0.757
12632TIP3   OH237836   1.255   1.087   3.380
12632TIP3    H137837   1.207   1.033   3.316
12632TIP3    H237838   1.204   1.080   3.460
12633TIP3   OH237839   6.191   7.854   1.204
12633TIP3    H137840   6.199   7.948   1.219
12633TIP3    H237841   6.102   7.832   1.233
12634TIP3   OH237842   0.501   7.109   6.622
12634TIP3    H137843   0.539   7.021   6.619
12634TIP3    H237844   0.558   7.162   6.567
12635TIP3   OH237845   4.574   2.467   5.888
12635TIP3    H137846   4.502   2.485   5.828
12635TIP3    H237847   4.619   2.391   5.851
12636TIP3   OH237848   0.939   0.046   2.297
12636TIP3    H137849   0.960   0.082   2.211
12636TIP3    H237850   0.990  -0.034   2.303
12637TIP3   OH237851   4.361   3.431   1.393
12637TIP3    H137852   4.452   3.429   1.364
12637TIP3    H237853   4.340   3.525   1.400
12638TIP3   OH237854   7.174   3.266   2.493
12638TIP3    H137855   7.202   3.258   2.401
12638TIP3    H237856   7.108   3.335   2.492
12639TIP3   OH237857   5.691   0.033   1.199
12639TIP3    H137858   5.774   0.073   1.223
12639TIP3    H237859   5.711  -0.061   1.194
12640TIP3   OH237860   0.351   4.707   4.236
12640TIP3    H137861   0.339   4.617   4.265
12640TIP3    H237862   0.395   4.750   4.310
12641TIP3   OH237863   1.249   1.196   0.065
12641TIP3    H137864   1.204   1.264   0.015
12641TIP3    H237865   1.220   1.209   0.155
12642TIP3   OH237866   0.895   7.689   2.192
12642TIP3    H137867   0.830   7.638   2.142
12642TIP3    H237868   0.920   7.631   2.264
12643TIP3   OH237869   3.625   1.972   0.957
12643TIP3    H137870   3.558   1.905   0.941
12643TIP3    H237871   3.602   2.011   1.041
12644TIP3   OH237872   1.726   0.363   2.844
12644TIP3    H137873   1.795   0.394   2.786
12644TIP3    H237874   1.771   0.310   2.909
12645TIP3   OH237875   2.908   3.851   5.362
12645TIP3    H137876   2.880   3.889   5.445
12645TIP3    H237877   2.975   3.787   5.386
12646TIP3   OH237878   2.621   5.296   5.767
12646TIP3    H137879   2.617   5.236   5.841
12646TIP3    H237880   2.541   5.348   5.773
12647TIP3   OH237881   5.149   3.550   4.702
12647TIP3    H137882   5.237   3.513   4.698
12647TIP3    H237883   5.095   3.481   4.741
12648TIP3   OH237884   5.606   6.463   3.446
12648TIP3    H137885   5.628   6.372   3.428
12648TIP3    H237886   5.680   6.497   3.497
12649TIP3   OH237887   0.811   0.910   2.318
12649TIP3    H137888   0.839   0.994   2.281
12649TIP3    H237889   0.732   0.887   2.269
12650TIP3   OH237890   7.671   7.527   2.134
12650TIP3    H137891   7.680   7.452   2.193
12650TIP3    H237892   7.755   7.572   2.139
12651TIP3   OH237893   5.884   5.482   2.400
12651TIP3    H137894   5.800   5.486   2.447
12651TIP3    H237895   5.917   5.572   2.404
12652TIP3   OH237896   7.963   7.759   5.725
12652TIP3    H137897   8.019   7.710   5.664
12652TIP3    H237898   7.877   7.718   5.716
12653TIP3   OH237899   8.441   5.946   4.328
12653TIP3    H137900   8.428   5.901   4.412
12653TIP3    H237901   8.355   5.947   4.288
12654TIP3   OH237902   5.596   7.244   4.328
12654TIP3    H137903   5.509   7.264   4.293
12654TIP3    H237904   5.581   7.222   4.420
12655TIP3   OH237905   2.823   5.729   1.537
12655TIP3    H137906   2.897   5.669   1.547
12655TIP3    H237907   2.753   5.691   1.591
12656TIP3   OH237908   6.743   7.185   2.928
12656TIP3    H137909   6.792   7.105   2.910
12656TIP3    H237910   6.656   7.169   2.891
12657TIP3   OH237911   6.092   1.371   0.943
12657TIP3    H137912   6.154   1.346   0.875
12657TIP3    H237913   6.011   1.393   0.895
12658TIP3   OH237914   1.405   0.801   2.548
12658TIP3    H137915   1.324   0.770   2.590
12658TIP3    H237916   1.417   0.742   2.473
12659TIP3   OH237917   5.309   2.347   0.252
12659TIP3    H137918   5.255   2.294   0.194
12659TIP3    H237919   5.257   2.426   0.269
12660TIP3   OH237920   0.223   7.403   4.309
12660TIP3    H137921   0.167   7.325   4.314
12660TIP3    H237922   0.295   7.384   4.369
12661TIP3   OH237923   2.442   4.141   6.478
12661TIP3    H137924   2.410   4.088   6.405
12661TIP3    H237925   2.455   4.228   6.441
12662TIP3   OH237926   4.955   2.966   0.163
12662TIP3    H137927   5.017   3.034   0.189
12662TIP3    H237928   4.958   2.966   0.067
12663TIP3   OH237929   8.282   6.550   0.633
12663TIP3    H137930   8.341   6.478   0.653
12663TIP3    H237931   8.264   6.541   0.539
12664TIP3   OH237932   5.572   4.659   2.576
12664TIP3    H137933   5.653   4.698   2.543
12664TIP3    H237934   5.600   4.578   2.618
12665TIP3   OH237935   4.503   0.362   1.080
12665TIP3    H137936   4.509   0.317   1.164
12665TIP3    H237937   4.486   0.292   1.017
12666TIP3   OH237938   2.183   7.592   1.593
12666TIP3    H137939   2.224   7.548   1.518
12666TIP3    H237940   2.204   7.537   1.668
12667TIP3   OH237941   2.894   5.595   0.199
12667TIP3    H137942   2.954   5.581   0.125
12667TIP3    H237943   2.860   5.507   0.218
12668TIP3   OH237944   3.019   7.032   4.582
12668TIP3    H137945   3.050   7.098   4.520
12668TIP3    H237946   2.994   6.957   4.527
12669TIP3   OH237947   8.200   7.270   1.225
12669TIP3    H137948   8.210   7.179   1.253
12669TIP3    H237949   8.106   7.287   1.232
12670TIP3   OH237950   5.781   4.257   6.434
12670TIP3    H137951   5.816   4.324   6.375
12670TIP3    H237952   5.691   4.286   6.452
12671TIP3   OH237953   1.059   3.617   3.371
12671TIP3    H137954   1.045   3.533   3.414
12671TIP3    H237955   1.077   3.595   3.279
12672TIP3   OH237956   0.962   7.361   0.092
12672TIP3    H137957   0.879   7.407   0.104
12672TIP3    H237958   0.957   7.326   0.002
12673TIP3   OH237959   7.490   7.373   3.575
12673TIP3    H137960   7.474   7.280   3.590
12673TIP3    H237961   7.539   7.402   3.652
12674TIP3   OH237962   1.922   3.197   2.742
12674TIP3    H137963   1.827   3.213   2.744
12674TIP3    H237964   1.931   3.103   2.755
12675TIP3   OH237965   4.183   1.637   5.394
12675TIP3    H137966   4.184   1.688   5.313
12675TIP3    H237967   4.228   1.556   5.371
12676TIP3   OH237968   1.263   5.377   5.785
12676TIP3    H137969   1.261   5.335   5.871
12676TIP3    H237970   1.298   5.310   5.726
12677TIP3   OH237971   1.716   6.437   4.492
12677TIP3    H137972   1.722   6.510   4.430
12677TIP3    H237973   1.799   6.439   4.539
12678TIP3   OH237974   5.117   3.332   4.372
12678TIP3    H137975   5.064   3.270   4.423
12678TIP3    H237976   5.196   3.283   4.349
12679TIP3   OH237977   0.029   7.211   2.478
12679TIP3    H137978   0.047   7.166   2.560
12679TIP3    H237979   0.025   7.304   2.502
12680TIP3   OH237980   1.566   2.294   4.373
12680TIP3    H137981   1.523   2.377   4.394
12680TIP3    H237982   1.597   2.260   4.457
12681TIP3   OH237983   1.660   2.342   1.589
12681TIP3    H137984   1.650   2.357   1.495
12681TIP3    H237985   1.577   2.300   1.615
12682TIP3   OH237986   8.156   1.203   4.088
12682TIP3    H137987   8.151   1.283   4.037
12682TIP3    H237988   8.150   1.231   4.179
12683TIP3   OH237989   4.458   4.561   1.579
12683TIP3    H137990   4.457   4.483   1.523
12683TIP3    H237991   4.370   4.598   1.568
12684TIP3   OH237992   6.268   5.208   4.492
12684TIP3    H137993   6.308   5.150   4.557
12684TIP3    H237994   6.239   5.149   4.422
12685TIP3   OH237995   5.811   6.893   5.340
12685TIP3    H137996   5.768   6.845   5.269
12685TIP3    H237997   5.755   6.878   5.416
12686TIP3   OH237998   4.644   5.973   2.725
12686TIP3    H137999   4.695   6.052   2.746
12686TIP3    H238000   4.703   5.900   2.743
12687TIP3   OH238001   7.187   1.536   3.179
12687TIP3    H138002   7.256   1.584   3.225
12687TIP3    H238003   7.110   1.593   3.186
12688TIP3   OH238004   3.921   6.162   3.185
12688TIP3    H138005   3.886   6.175   3.097
12688TIP3    H238006   3.890   6.075   3.211
12689TIP3   OH238007   6.358   7.294   3.197
12689TIP3    H138008   6.450   7.299   3.224
12689TIP3    H238009   6.343   7.376   3.149
12690TIP3   OH238010   7.238   2.139   1.729
12690TIP3    H138011   7.202   2.060   1.689
12690TIP3    H238012   7.178   2.208   1.704
12691TIP3   OH238013   1.554   2.658   2.794
12691TIP3    H138014   1.583   2.617   2.875
12691TIP3    H238015   1.600   2.610   2.725
12692TIP3   OH238016   6.916   7.567   4.812
12692TIP3    H138017   6.983   7.529   4.755
12692TIP3    H238018   6.872   7.631   4.757
12693TIP3   OH238019   8.253   1.758   3.944
12693TIP3    H138020   8.278   1.735   3.854
12693TIP3    H238021   8.202   1.839   3.935
12694TIP3   OH238022   0.117   2.972   4.196
12694TIP3    H138023   0.200   2.936   4.224
12694TIP3    H238024   0.133   3.066   4.185
12695TIP3   OH238025   1.891   7.217   0.057
12695TIP3    H138026   1.884   7.152   0.127
12695TIP3    H238027   1.926   7.170  -0.018
12696TIP3   OH238028   5.706   4.665   4.135
12696TIP3    H138029   5.668   4.642   4.050
12696TIP3    H238030   5.730   4.581   4.174
12697TIP3   OH238031   1.001   0.714   5.617
12697TIP3    H138032   0.952   0.793   5.597
12697TIP3    H238033   0.992   0.660   5.539
12698TIP3   OH238034   7.981   6.711   5.513
12698TIP3    H138035   7.959   6.664   5.432
12698TIP3    H238036   7.987   6.802   5.486
12699TIP3   OH238037   6.229   2.271   0.381
12699TIP3    H138038   6.167   2.271   0.454
12699TIP3    H238039   6.196   2.203   0.322
12700TIP3   OH238040   0.845   4.728   1.644
12700TIP3    H138041   0.793   4.754   1.720
12700TIP3    H238042   0.828   4.634   1.633
12701TIP3   OH238043   7.293   1.197   6.550
12701TIP3    H138044   7.347   1.259   6.600
12701TIP3    H238045   7.241   1.152   6.616
12702TIP3   OH238046   3.410   3.947   5.201
12702TIP3    H138047   3.324   3.907   5.214
12702TIP3    H238048   3.424   3.943   5.106
12703TIP3   OH238049   1.627   5.110   1.378
12703TIP3    H138050   1.659   5.073   1.460
12703TIP3    H238051   1.637   5.040   1.314
12704TIP3   OH238052   5.600   7.617   3.501
12704TIP3    H138053   5.584   7.694   3.554
12704TIP3    H238054   5.691   7.593   3.520
12705TIP3   OH238055   2.725   2.272   1.014
12705TIP3    H138056   2.734   2.363   1.043
12705TIP3    H238057   2.642   2.271   0.966
12706TIP3   OH238058   3.619   3.418   5.056
12706TIP3    H138059   3.656   3.472   4.987
12706TIP3    H238060   3.656   3.331   5.042
12707TIP3   OH238061   5.736   2.005   6.189
12707TIP3    H138062   5.790   1.978   6.114
12707TIP3    H238063   5.745   1.933   6.251
12708TIP3   OH238064   7.924   0.092   6.548
12708TIP3    H138065   8.000   0.069   6.494
12708TIP3    H238066   7.854   0.107   6.485
12709TIP3   OH238067   3.819   0.485   2.243
12709TIP3    H138068   3.764   0.408   2.255
12709TIP3    H238069   3.793   0.544   2.313
12710TIP3   OH238070   0.346   2.778   1.360
12710TIP3    H138071   0.312   2.867   1.353
12710TIP3    H238072   0.440   2.788   1.375
12711TIP3   OH238073   3.200   5.353   2.708
12711TIP3    H138074   3.273   5.293   2.724
12711TIP3    H238075   3.207   5.376   2.615
12712TIP3   OH238076   3.608   0.219   3.520
12712TIP3    H138077   3.640   0.225   3.430
12712TIP3    H238078   3.548   0.293   3.528
12713TIP3   OH238079   7.794   3.606   3.432
12713TIP3    H138080   7.809   3.699   3.414
12713TIP3    H238081   7.732   3.578   3.365
12714TIP3   OH238082   1.383   1.581   3.253
12714TIP3    H138083   1.394   1.526   3.331
12714TIP3    H238084   1.388   1.671   3.286
12715TIP3   OH238085   0.802   3.422   0.149
12715TIP3    H138086   0.834   3.492   0.206
12715TIP3    H238087   0.752   3.467   0.081
12716TIP3   OH238088   4.053   1.234   0.381
12716TIP3    H138089   4.038   1.214   0.473
12716TIP3    H238090   4.114   1.166   0.351
12717TIP3   OH238091   4.620   4.104   0.471
12717TIP3    H138092   4.661   4.038   0.414
12717TIP3    H238093   4.680   4.111   0.545
12718TIP3   OH238094   7.457   0.865   2.457
12718TIP3    H138095   7.479   0.773   2.474
12718TIP3    H238096   7.475   0.909   2.541
12719TIP3   OH238097   0.484   1.753   6.442
12719TIP3    H138098   0.531   1.759   6.525
12719TIP3    H238099   0.412   1.694   6.459
12720TIP3   OH238100   4.547   5.412   0.808
12720TIP3    H138101   4.599   5.420   0.728
12720TIP3    H238102   4.551   5.499   0.848
12721TIP3   OH238103   0.167   5.738   2.969
12721TIP3    H138104   0.252   5.759   3.006
12721TIP3    H238105   0.142   5.656   3.012
12722TIP3   OH238106   2.035   4.748   5.418
12722TIP3    H138107   1.979   4.823   5.401
12722TIP3    H238108   2.124   4.784   5.422
12723TIP3   OH238109   7.321   0.650   0.466
12723TIP3    H138110   7.229   0.634   0.487
12723TIP3    H238111   7.355   0.698   0.542
12724TIP3   OH238112   3.720   0.697   4.402
12724TIP3    H138113   3.784   0.684   4.332
12724TIP3    H238114   3.772   0.721   4.478
12725TIP3   OH238115   5.070   7.524   4.168
12725TIP3    H138116   4.995   7.469   4.146
12725TIP3    H238117   5.136   7.463   4.200
12726TIP3   OH238118   2.216   2.305   5.460
12726TIP3    H138119   2.175   2.354   5.531
12726TIP3    H238120   2.152   2.306   5.389
12727TIP3   OH238121   2.046   2.742   6.128
12727TIP3    H138122   2.071   2.773   6.042
12727TIP3    H238123   2.051   2.820   6.184
12728TIP3   OH238124   4.221   2.433   2.035
12728TIP3    H138125   4.257   2.403   1.951
12728TIP3    H238126   4.200   2.353   2.082
12729TIP3   OH238127   6.773   0.095   5.301
12729TIP3    H138128   6.838   0.126   5.239
12729TIP3    H238129   6.815   0.021   5.345
12730TIP3   OH238130   7.109   2.189   0.598
12730TIP3    H138131   7.074   2.244   0.668
12730TIP3    H238132   7.079   2.231   0.518
12731TIP3   OH238133   1.505   5.404   1.445
12731TIP3    H138134   1.471   5.374   1.529
12731TIP3    H238135   1.598   5.379   1.446
12732TIP3   OH238136   3.296   2.629   5.341
12732TIP3    H138137   3.321   2.703   5.286
12732TIP3    H238138   3.359   2.631   5.414
12733TIP3   OH238139   7.920   5.964   3.436
12733TIP3    H138140   7.938   5.870   3.435
12733TIP3    H238141   7.853   5.975   3.503
12734TIP3   OH238142   2.660   4.588   3.665
12734TIP3    H138143   2.621   4.647   3.601
12734TIP3    H238144   2.593   4.521   3.680
12735TIP3   OH238145   3.781   4.167   5.559
12735TIP3    H138146   3.862   4.217   5.571
12735TIP3    H238147   3.799   4.082   5.599
12736TIP3   OH238148   2.800   3.494   5.633
12736TIP3    H138149   2.718   3.505   5.585
12736TIP3    H238150   2.845   3.423   5.586
12737TIP3   OH238151   0.548   4.907   6.094
12737TIP3    H138152   0.610   4.834   6.092
12737TIP3    H238153   0.462   4.866   6.101
12738TIP3   OH238154   5.579   6.251   1.962
12738TIP3    H138155   5.576   6.298   1.879
12738TIP3    H238156   5.664   6.208   1.963
12739TIP3   OH238157   8.135   7.079   1.748
12739TIP3    H138158   8.099   7.004   1.700
12739TIP3    H238159   8.204   7.042   1.802
12740TIP3   OH238160   2.702   4.369   4.977
12740TIP3    H138161   2.664   4.446   5.020
12740TIP3    H238162   2.653   4.361   4.896
12741TIP3   OH238163   1.383   5.856   6.482
12741TIP3    H138164   1.350   5.863   6.392
12741TIP3    H238165   1.344   5.776   6.516
12742TIP3   OH238166   3.018   0.769   0.859
12742TIP3    H138167   2.939   0.817   0.883
12742TIP3    H238168   3.082   0.795   0.925
12743TIP3   OH238169   3.962   5.178   0.297
12743TIP3    H138170   4.056   5.181   0.283
12743TIP3    H238171   3.949   5.109   0.363
12744TIP3   OH238172   6.968   2.146   1.456
12744TIP3    H138173   6.911   2.091   1.511
12744TIP3    H238174   7.009   2.084   1.395
12745TIP3   OH238175   3.510   7.008   2.036
12745TIP3    H138176   3.468   6.985   2.119
12745TIP3    H238177   3.456   6.965   1.969
12746TIP3   OH238178   4.391   1.803   1.585
12746TIP3    H138179   4.437   1.846   1.657
12746TIP3    H238180   4.351   1.726   1.625
12747TIP3   OH238181   8.240   7.473   2.364
12747TIP3    H138182   8.221   7.565   2.346
12747TIP3    H238183   8.305   7.476   2.435
12748TIP3   OH238184   4.613   6.903  -0.013
12748TIP3    H138185   4.591   6.835   0.050
12748TIP3    H238186   4.540   6.964  -0.010
12749TIP3   OH238187   4.538   3.345   2.890
12749TIP3    H138188   4.521   3.276   2.826
12749TIP3    H238189   4.611   3.395   2.854
12750TIP3   OH238190   7.775   4.189   1.447
12750TIP3    H138191   7.752   4.171   1.538
12750TIP3    H238192   7.751   4.110   1.399
12751TIP3   OH238193   0.126   1.275   0.590
12751TIP3    H138194   0.212   1.314   0.573
12751TIP3    H238195   0.102   1.233   0.507
12752TIP3   OH238196   4.517   0.271   5.207
12752TIP3    H138197   4.433   0.228   5.194
12752TIP3    H238198   4.533   0.320   5.126
12753TIP3   OH238199   6.198   1.898   5.943
12753TIP3    H138200   6.277   1.862   5.985
12753TIP3    H238201   6.232   1.953   5.872
12754TIP3   OH238202   6.558   2.879   0.412
12754TIP3    H138203   6.540   2.819   0.340
12754TIP3    H238204   6.502   2.849   0.483
12755TIP3   OH238205   6.493   7.113   4.830
12755TIP3    H138206   6.514   7.138   4.920
12755TIP3    H238207   6.562   7.050   4.807
12756TIP3   OH238208   0.325   4.629   1.029
12756TIP3    H138209   0.330   4.719   0.995
12756TIP3    H238210   0.235   4.602   1.011
12757TIP3   OH238211   1.317   0.577   5.420
12757TIP3    H138212   1.374   0.565   5.344
12757TIP3    H238213   1.281   0.665   5.409
12758TIP3   OH238214   5.292   1.881   5.874
12758TIP3    H138215   5.380   1.894   5.838
12758TIP3    H238216   5.282   1.786   5.882
12759TIP3   OH238217   6.177   3.696   2.534
12759TIP3    H138218   6.089   3.706   2.572
12759TIP3    H238219   6.169   3.620   2.477
12760TIP3   OH238220   4.745   4.146   5.507
12760TIP3    H138221   4.817   4.188   5.462
12760TIP3    H238222   4.700   4.217   5.553
12761TIP3   OH238223   6.398   3.509   1.939
12761TIP3    H138224   6.331   3.441   1.936
12761TIP3    H238225   6.419   3.519   2.032
12762TIP3   OH238226   8.177   5.234   2.883
12762TIP3    H138227   8.213   5.161   2.934
12762TIP3    H238228   8.084   5.233   2.903
12763TIP3   OH238229   7.812   3.353   5.791
12763TIP3    H138230   7.848   3.441   5.789
12763TIP3    H238231   7.800   3.334   5.884
12764TIP3   OH238232   1.436   4.152   4.593
12764TIP3    H138233   1.382   4.127   4.518
12764TIP3    H238234   1.502   4.210   4.556
12765TIP3   OH238235   1.814   3.311   4.754
12765TIP3    H138236   1.781   3.256   4.826
12765TIP3    H238237   1.766   3.280   4.677
12766TIP3   OH238238   3.124   2.030   3.908
12766TIP3    H138239   3.173   1.949   3.895
12766TIP3    H238240   3.052   2.006   3.966
12767TIP3   OH238241   2.886   7.112   5.719
12767TIP3    H138242   2.843   7.187   5.760
12767TIP3    H238243   2.841   7.101   5.636
12768TIP3   OH238244   0.969   3.776   1.611
12768TIP3    H138245   0.902   3.841   1.590
12768TIP3    H238246   1.026   3.820   1.674
12769TIP3   OH238247   7.547   5.763   3.889
12769TIP3    H138248   7.518   5.672   3.889
12769TIP3    H238249   7.520   5.797   3.804
12770TIP3   OH238250   0.396   5.097   2.189
12770TIP3    H138251   0.328   5.064   2.248
12770TIP3    H238252   0.449   5.019   2.169
12771TIP3   OH238253   6.812   7.164   0.033
12771TIP3    H138254   6.811   7.222   0.109
12771TIP3    H238255   6.856   7.085   0.064
12772TIP3   OH238256   0.703   3.419   3.628
12772TIP3    H138257   0.763   3.376   3.568
12772TIP3    H238258   0.634   3.454   3.572
12773TIP3   OH238259   2.755   6.436   0.493
12773TIP3    H138260   2.844   6.469   0.508
12773TIP3    H238261   2.764   6.375   0.420
12774TIP3   OH238262   5.276   1.245   0.414
12774TIP3    H138263   5.317   1.185   0.352
12774TIP3    H238264   5.301   1.211   0.500
12775TIP3   OH238265   4.161   5.977   4.238
12775TIP3    H138266   4.107   5.993   4.161
12775TIP3    H238267   4.099   5.972   4.311
12776TIP3   OH238268   4.674   5.367   1.546
12776TIP3    H138269   4.722   5.319   1.614
12776TIP3    H238270   4.724   5.352   1.466
12777TIP3   OH238271   1.675   0.083   1.716
12777TIP3    H138272   1.659   0.034   1.635
12777TIP3    H238273   1.655   0.021   1.786
12778TIP3   OH238274   5.709   3.820   3.844
12778TIP3    H138275   5.657   3.796   3.768
12778TIP3    H238276   5.645   3.843   3.911
12779TIP3   OH238277   0.986   3.595   0.299
12779TIP3    H138278   1.040   3.517   0.287
12779TIP3    H238279   1.014   3.632   0.383
12780TIP3   OH238280   3.135   6.276   2.239
12780TIP3    H138281   3.224   6.261   2.269
12780TIP3    H238282   3.096   6.335   2.303
12781TIP3   OH238283   2.183   6.687   6.198
12781TIP3    H138284   2.116   6.665   6.133
12781TIP3    H238285   2.264   6.654   6.160
12782TIP3   OH238286   6.292   3.670   4.149
12782TIP3    H138287   6.254   3.638   4.230
12782TIP3    H238288   6.365   3.610   4.131
12783TIP3   OH238289   5.281   3.816   4.111
12783TIP3    H138290   5.284   3.756   4.185
12783TIP3    H238291   5.194   3.857   4.117
12784TIP3   OH238292   4.479   5.945   6.273
12784TIP3    H138293   4.526   6.007   6.328
12784TIP3    H238294   4.547   5.906   6.217
12785TIP3   OH238295   0.906   1.232   6.246
12785TIP3    H138296   0.822   1.270   6.218
12785TIP3    H238297   0.920   1.268   6.334
12786TIP3   OH238298   5.075   7.231   6.751
12786TIP3    H138299   5.019   7.301   6.784
12786TIP3    H238300   5.082   7.169   6.824
12787TIP3   OH238301   1.531   7.915   0.721
12787TIP3    H138302   1.583   7.894   0.643
12787TIP3    H238303   1.493   7.831   0.748
12788TIP3   OH238304   4.346   2.030   2.561
12788TIP3    H138305   4.364   1.936   2.562
12788TIP3    H238306   4.251   2.036   2.548
12789TIP3   OH238307   7.716   1.379   1.899
12789TIP3    H138308   7.757   1.304   1.942
12789TIP3    H238309   7.694   1.439   1.970
12790TIP3   OH238310   4.431   7.839   1.066
12790TIP3    H138311   4.481   7.846   0.985
12790TIP3    H238312   4.384   7.922   1.073
12791TIP3   OH238313   3.603   7.097   5.449
12791TIP3    H138314   3.626   7.009   5.417
12791TIP3    H238315   3.508   7.094   5.460
12792TIP3   OH238316   7.247   6.141   0.269
12792TIP3    H138317   7.296   6.222   0.253
12792TIP3    H238318   7.185   6.164   0.338
12793TIP3   OH238319   2.518   2.518   2.818
12793TIP3    H138320   2.463   2.544   2.744
12793TIP3    H238321   2.599   2.487   2.778
12794TIP3   OH238322   3.144   7.219   5.775
12794TIP3    H138323   3.066   7.170   5.748
12794TIP3    H238324   3.202   7.153   5.812
12795TIP3   OH238325   5.131   1.289   2.673
12795TIP3    H138326   5.174   1.296   2.588
12795TIP3    H238327   5.124   1.380   2.703
12796TIP3   OH238328   0.476   7.468   5.316
12796TIP3    H138329   0.523   7.387   5.334
12796TIP3    H238330   0.540   7.523   5.271
12797TIP3   OH238331   5.893   5.001   1.405
12797TIP3    H138332   5.846   4.928   1.365
12797TIP3    H238333   5.850   5.079   1.371
12798TIP3   OH238334   6.241   2.430   5.998
12798TIP3    H138335   6.296   2.505   5.974
12798TIP3    H238336   6.295   2.353   5.982
12799TIP3   OH238337   8.193   1.061   0.011
12799TIP3    H138338   8.150   1.100   0.088
12799TIP3    H238339   8.138   0.987  -0.012
12800TIP3   OH238340   3.464   4.217   1.568
12800TIP3    H138341   3.540   4.274   1.558
12800TIP3    H238342   3.457   4.171   1.485
12801TIP3   OH238343   1.361   1.041   4.395
12801TIP3    H138344   1.454   1.044   4.370
12801TIP3    H238345   1.342   0.947   4.403
12802TIP3   OH238346   5.293   1.593   1.252
12802TIP3    H138347   5.248   1.677   1.242
12802TIP3    H238348   5.225   1.532   1.281
12803TIP3   OH238349   1.875   1.714   4.870
12803TIP3    H138350   1.922   1.790   4.836
12803TIP3    H238351   1.832   1.745   4.949
12804TIP3   OH238352   0.678   3.332   5.605
12804TIP3    H138353   0.639   3.417   5.586
12804TIP3    H238354   0.614   3.269   5.572
12805TIP3   OH238355   3.329   4.494   4.369
12805TIP3    H138356   3.347   4.537   4.453
12805TIP3    H238357   3.387   4.417   4.369
12806TIP3   OH238358   3.342   3.560   1.269
12806TIP3    H138359   3.310   3.577   1.357
12806TIP3    H238360   3.315   3.470   1.250
12807TIP3   OH238361   3.662   5.041   0.730
12807TIP3    H138362   3.571   5.049   0.757
12807TIP3    H238363   3.712   5.045   0.812
12808TIP3   OH238364   4.219   2.207   0.142
12808TIP3    H138365   4.154   2.266   0.181
12808TIP3    H238366   4.303   2.240   0.174
12809TIP3   OH238367   7.931   1.187   3.161
12809TIP3    H138368   8.003   1.163   3.102
12809TIP3    H238369   7.866   1.226   3.103
12810TIP3   OH238370   3.597   5.745   3.518
12810TIP3    H138371   3.611   5.651   3.503
12810TIP3    H238372   3.519   5.749   3.574
12811TIP3   OH238373   3.411   6.813   1.885
12811TIP3    H138374   3.461   6.739   1.918
12811TIP3    H238375   3.321   6.782   1.883
12812TIP3   OH238376   7.610   2.518   2.305
12812TIP3    H138377   7.645   2.461   2.373
12812TIP3    H238378   7.678   2.584   2.292
12813TIP3   OH238379   0.212   0.609   0.948
12813TIP3    H138380   0.227   0.646   1.035
12813TIP3    H238381   0.289   0.635   0.897
12814TIP3   OH238382   3.315   0.824   5.993
12814TIP3    H138383   3.383   0.891   5.988
12814TIP3    H238384   3.235   0.873   6.011
12815TIP3   OH238385   7.849   2.780   2.684
12815TIP3    H138386   7.810   2.698   2.652
12815TIP3    H238387   7.788   2.810   2.751
12816TIP3   OH238388   5.486   3.306   6.319
12816TIP3    H138389   5.440   3.269   6.244
12816TIP3    H238390   5.576   3.314   6.290
12817TIP3   OH238391   2.051   0.843   5.303
12817TIP3    H138392   2.126   0.786   5.289
12817TIP3    H238393   1.975   0.787   5.290
12818TIP3   OH238394   7.083   5.602   1.950
12818TIP3    H138395   7.028   5.523   1.947
12818TIP3    H238396   7.151   5.582   2.014
12819TIP3   OH238397   2.032   3.430   1.162
12819TIP3    H138398   2.096   3.395   1.101
12819TIP3    H238399   2.082   3.448   1.242
12820TIP3   OH238400   7.808   3.169   3.213
12820TIP3    H138401   7.783   3.210   3.130
12820TIP3    H238402   7.895   3.133   3.198
12821TIP3   OH238403   3.407   5.146   3.490
12821TIP3    H138404   3.454   5.096   3.423
12821TIP3    H238405   3.420   5.238   3.466
12822TIP3   OH238406   3.162   0.738   4.779
12822TIP3    H138407   3.145   0.793   4.703
12822TIP3    H238408   3.112   0.778   4.850
12823TIP3   OH238409   7.174   5.734   5.362
12823TIP3    H138410   7.116   5.774   5.296
12823TIP3    H238411   7.163   5.640   5.348
12824TIP3   OH238412   1.736   6.340   0.415
12824TIP3    H138413   1.806   6.279   0.392
12824TIP3    H238414   1.773   6.427   0.397
12825TIP3   OH238415   4.212   0.381   2.879
12825TIP3    H138416   4.148   0.338   2.936
12825TIP3    H238417   4.297   0.358   2.918
12826TIP3   OH238418   6.571   5.779   4.532
12826TIP3    H138419   6.487   5.820   4.514
12826TIP3    H238420   6.602   5.750   4.446
12827TIP3   OH238421   6.649   0.297   0.737
12827TIP3    H138422   6.662   0.219   0.792
12827TIP3    H238423   6.560   0.326   0.757
12828TIP3   OH238424   2.700   2.809   4.851
12828TIP3    H138425   2.791   2.813   4.881
12828TIP3    H238426   2.691   2.722   4.812
12829TIP3   OH238427   8.122   6.684   3.235
12829TIP3    H138428   8.208   6.714   3.264
12829TIP3    H238429   8.136   6.595   3.205
12830TIP3   OH238430   4.625   2.771   5.566
12830TIP3    H138431   4.626   2.675   5.563
12830TIP3    H238432   4.717   2.796   5.575
12831TIP3   OH238433   1.308   2.729   5.121
12831TIP3    H138434   1.219   2.724   5.085
12831TIP3    H238435   1.307   2.806   5.177
12832TIP3   OH238436   0.006   0.671   0.768
12832TIP3    H138437  -0.045   0.591   0.781
12832TIP3    H238438   0.086   0.657   0.819
12833TIP3   OH238439   5.428   1.427   1.085
12833TIP3    H138440   5.441   1.510   1.131
12833TIP3    H238441   5.408   1.365   1.155
12834TIP3   OH238442   4.061   0.652   2.543
12834TIP3    H138443   3.967   0.670   2.549
12834TIP3    H238444   4.102   0.721   2.595
12835TIP3   OH238445   7.929   4.650   5.782
12835TIP3    H138446   7.953   4.742   5.791
12835TIP3    H238447   7.835   4.651   5.761
12836TIP3   OH238448   6.689   2.874   0.094
12836TIP3    H138449   6.693   2.968   0.076
12836TIP3    H238450   6.616   2.843   0.040
12837TIP3   OH238451   5.116   3.413   1.022
12837TIP3    H138452   5.148   3.392   0.934
12837TIP3    H238453   5.089   3.329   1.059
12838TIP3   OH238454   4.156   6.150   1.494
12838TIP3    H138455   4.194   6.201   1.422
12838TIP3    H238456   4.135   6.214   1.561
12839TIP3   OH238457   2.781   0.965   5.135
12839TIP3    H138458   2.709   0.915   5.175
12839TIP3    H238459   2.737   1.032   5.082
12840TIP3   OH238460   1.915   5.601   0.375
12840TIP3    H138461   1.886   5.576   0.462
12840TIP3    H238462   1.889   5.528   0.319
12841TIP3   OH238463   7.645   0.794   6.681
12841TIP3    H138464   7.595   0.740   6.742
12841TIP3    H238465   7.645   0.882   6.720
12842TIP3   OH238466   3.128   7.654   3.688
12842TIP3    H138467   3.180   7.614   3.758
12842TIP3    H238468   3.037   7.632   3.711
12843TIP3   OH238469   2.672   2.987   4.648
12843TIP3    H138470   2.742   3.048   4.671
12843TIP3    H238471   2.691   2.909   4.701
12844TIP3   OH238472   0.661   0.131   1.978
12844TIP3    H138473   0.680   0.040   1.954
12844TIP3    H238474   0.578   0.126   2.025
12845TIP3   OH238475   0.928   1.771   5.804
12845TIP3    H138476   0.836   1.771   5.831
12845TIP3    H238477   0.962   1.855   5.834
12846TIP3   OH238478   1.336   2.840   0.647
12846TIP3    H138479   1.393   2.822   0.572
12846TIP3    H238480   1.313   2.932   0.638
12847TIP3   OH238481   3.663   2.369   5.598
12847TIP3    H138482   3.605   2.337   5.667
12847TIP3    H238483   3.726   2.299   5.584
12848TIP3   OH238484   5.050   7.660   5.159
12848TIP3    H138485   5.117   7.694   5.217
12848TIP3    H238486   5.027   7.733   5.102
12849TIP3   OH238487   5.217   0.333   2.412
12849TIP3    H138488   5.159   0.402   2.380
12849TIP3    H238489   5.160   0.275   2.463
12850TIP3   OH238490   1.695   0.222   4.142
12850TIP3    H138491   1.747   0.225   4.223
12850TIP3    H238492   1.760   0.211   4.072
12851TIP3   OH238493   3.617   6.206   5.538
12851TIP3    H138494   3.690   6.171   5.487
12851TIP3    H238495   3.553   6.135   5.542
12852TIP3   OH238496   0.865   6.211   4.779
12852TIP3    H138497   0.924   6.177   4.710
12852TIP3    H238498   0.804   6.267   4.732
12853TIP3   OH238499   2.084   6.783   4.703
12853TIP3    H138500   2.063   6.874   4.724
12853TIP3    H238501   2.168   6.767   4.745
12854TIP3   OH238502   2.911   2.247   0.017
12854TIP3    H138503   2.879   2.320  -0.037
12854TIP3    H238504   2.975   2.287   0.075
12855TIP3   OH238505   7.779   0.378   1.356
12855TIP3    H138506   7.851   0.440   1.343
12855TIP3    H238507   7.822   0.299   1.390
12856TIP3   OH238508   2.373   0.665   6.698
12856TIP3    H138509   2.453   0.695   6.655
12856TIP3    H238510   2.398   0.654   6.790
12857TIP3   OH238511   2.815   5.442   0.939
12857TIP3    H138512   2.885   5.381   0.914
12857TIP3    H238513   2.777   5.471   0.856
12858TIP3   OH238514   2.449   3.568   5.275
12858TIP3    H138515   2.506   3.493   5.260
12858TIP3    H238516   2.374   3.553   5.216
12859TIP3   OH238517   0.387   4.491   3.862
12859TIP3    H138518   0.306   4.461   3.902
12859TIP3    H238519   0.444   4.414   3.862
12860TIP3   OH238520   7.704   0.333   3.599
12860TIP3    H138521   7.632   0.372   3.648
12860TIP3    H238522   7.713   0.388   3.521
12861TIP3   OH238523   1.975   2.400   0.029
12861TIP3    H138524   2.047   2.360  -0.021
12861TIP3    H238525   2.009   2.409   0.118
12862TIP3   OH238526   1.501   0.507   6.372
12862TIP3    H138527   1.520   0.601   6.370
12862TIP3    H238528   1.487   0.487   6.465
12863TIP3   OH238529   2.448   0.991   1.943
12863TIP3    H138530   2.413   0.972   2.030
12863TIP3    H238531   2.416   0.918   1.888
12864TIP3   OH238532   1.398   6.513   6.368
12864TIP3    H138533   1.318   6.515   6.421
12864TIP3    H238534   1.434   6.426   6.382
12865TIP3   OH238535   4.396   0.143   4.168
12865TIP3    H138536   4.358   0.208   4.227
12865TIP3    H238537   4.402   0.063   4.221
12866TIP3   OH238538   1.092   7.173   2.863
12866TIP3    H138539   1.014   7.186   2.809
12866TIP3    H238540   1.115   7.261   2.893
12867TIP3   OH238541   3.389   1.510   1.860
12867TIP3    H138542   3.466   1.490   1.914
12867TIP3    H238543   3.316   1.468   1.906
12868TIP3   OH238544   0.968   3.578   5.775
12868TIP3    H138545   0.925   3.584   5.860
12868TIP3    H238546   0.979   3.669   5.748
12869TIP3   OH238547   8.395   2.155   0.480
12869TIP3    H138548   8.337   2.231   0.486
12869TIP3    H238549   8.363   2.107   0.403
12870TIP3   OH238550   5.572   3.356   5.880
12870TIP3    H138551   5.595   3.416   5.951
12870TIP3    H238552   5.477   3.360   5.875
12871TIP3   OH238553   2.559   3.160   0.261
12871TIP3    H138554   2.515   3.218   0.324
12871TIP3    H238555   2.643   3.203   0.243
12872TIP3   OH238556   2.275   2.147   0.758
12872TIP3    H138557   2.264   2.136   0.664
12872TIP3    H238558   2.190   2.121   0.795
12873TIP3   OH238559   6.191   2.719   3.704
12873TIP3    H138560   6.112   2.731   3.756
12873TIP3    H238561   6.159   2.694   3.617
12874TIP3   OH238562   3.213   0.713   1.995
12874TIP3    H138563   3.142   0.664   1.954
12874TIP3    H238564   3.285   0.708   1.931
12875TIP3   OH238565   7.572   1.845   4.841
12875TIP3    H138566   7.518   1.766   4.848
12875TIP3    H238567   7.551   1.880   4.754
12876TIP3   OH238568   7.774   3.756   5.221
12876TIP3    H138569   7.816   3.826   5.170
12876TIP3    H238570   7.762   3.794   5.308
12877TIP3   OH238571   2.035   6.844   6.509
12877TIP3    H138572   2.024   6.889   6.426
12877TIP3    H238573   1.955   6.863   6.558
12878TIP3   OH238574   7.719   3.602   0.010
12878TIP3    H138575   7.670   3.574   0.088
12878TIP3    H238576   7.791   3.539   0.004
12879TIP3   OH238577   4.728   3.058   4.488
12879TIP3    H138578   4.709   3.096   4.403
12879TIP3    H238579   4.678   2.976   4.490
12880TIP3   OH238580   1.992   0.280   0.872
12880TIP3    H138581   2.066   0.244   0.823
12880TIP3    H238582   1.995   0.234   0.956
12881TIP3   OH238583   7.397   6.019   5.009
12881TIP3    H138584   7.443   6.053   5.086
12881TIP3    H238585   7.349   6.094   4.974
12882TIP3   OH238586   5.227   1.116   2.141
12882TIP3    H138587   5.225   1.021   2.130
12882TIP3    H238588   5.194   1.151   2.058
12883TIP3   OH238589   7.799   0.756   4.438
12883TIP3    H138590   7.882   0.730   4.480
12883TIP3    H238591   7.794   0.703   4.359
12884TIP3   OH238592   4.015   1.759   4.466
12884TIP3    H138593   3.983   1.815   4.536
12884TIP3    H238594   4.065   1.691   4.511
12885TIP3   OH238595   1.022   6.487   1.100
12885TIP3    H138596   1.091   6.448   1.154
12885TIP3    H238597   1.040   6.454   1.012
12886TIP3   OH238598   0.543   2.827   3.218
12886TIP3    H138599   0.551   2.793   3.129
12886TIP3    H238600   0.528   2.921   3.206
12887TIP3   OH238601   7.652   7.368   1.525
12887TIP3    H138602   7.623   7.337   1.439
12887TIP3    H238603   7.673   7.461   1.511
12888TIP3   OH238604   0.400   2.816   3.813
12888TIP3    H138605   0.339   2.766   3.758
12888TIP3    H238606   0.429   2.754   3.879
12889TIP3   OH238607   7.608   5.084   4.509
12889TIP3    H138608   7.601   5.125   4.423
12889TIP3    H238609   7.633   5.156   4.568
12890TIP3   OH238610   6.266   5.540   6.583
12890TIP3    H138611   6.280   5.485   6.660
12890TIP3    H238612   6.173   5.564   6.587
12891TIP3   OH238613   1.670   0.507   4.125
12891TIP3    H138614   1.641   0.416   4.118
12891TIP3    H238615   1.742   0.506   4.187
12892TIP3   OH238616   7.908   2.419   6.405
12892TIP3    H138617   7.838   2.370   6.449
12892TIP3    H238618   7.880   2.510   6.410
12893TIP3   OH238619   1.827   1.711   3.779
12893TIP3    H138620   1.761   1.773   3.808
12893TIP3    H238621   1.779   1.645   3.729
12894TIP3   OH238622   3.537   1.735   5.183
12894TIP3    H138623   3.480   1.748   5.259
12894TIP3    H238624   3.613   1.791   5.200
12895TIP3   OH238625   0.628   4.180   3.549
12895TIP3    H138626   0.638   4.106   3.489
12895TIP3    H238627   0.716   4.197   3.581
12896TIP3   OH238628   0.539   3.010   6.391
12896TIP3    H138629   0.523   3.091   6.438
12896TIP3    H238630   0.459   2.959   6.401
12897TIP3   OH238631   3.389   6.287   3.714
12897TIP3    H138632   3.407   6.346   3.787
12897TIP3    H238633   3.302   6.313   3.683
12898TIP3   OH238634   1.629   4.178   5.411
12898TIP3    H138635   1.705   4.135   5.372
12898TIP3    H238636   1.658   4.268   5.426
12899TIP3   OH238637   0.504   2.631   2.384
12899TIP3    H138638   0.546   2.572   2.446
12899TIP3    H238639   0.530   2.719   2.413
12900TIP3   OH238640   2.291   6.865   1.260
12900TIP3    H138641   2.346   6.788   1.243
12900TIP3    H238642   2.290   6.913   1.177
12901TIP3   OH238643   7.766   6.027   3.165
12901TIP3    H138644   7.734   6.115   3.184
12901TIP3    H238645   7.778   5.986   3.251
12902TIP3   OH238646   1.262   4.474   6.630
12902TIP3    H138647   1.190   4.416   6.606
12902TIP3    H238648   1.239   4.507   6.717
12903TIP3   OH238649   3.522   5.833   2.439
12903TIP3    H138650   3.542   5.821   2.346
12903TIP3    H238651   3.550   5.923   2.457
12904TIP3   OH238652   3.737   0.095   1.277
12904TIP3    H138653   3.796   0.043   1.222
12904TIP3    H238654   3.795   0.138   1.339
12905TIP3   OH238655   8.231   3.546   0.232
12905TIP3    H138656   8.267   3.458   0.221
12905TIP3    H238657   8.188   3.545   0.318
12906TIP3   OH238658   7.420   7.019   4.313
12906TIP3    H138659   7.511   7.048   4.307
12906TIP3    H238660   7.390   7.050   4.398
12907TIP3   OH238661   1.071   2.468   3.299
12907TIP3    H138662   1.032   2.391   3.257
12907TIP3    H238663   1.136   2.500   3.237
12908TIP3   OH238664   6.751   6.592   3.111
12908TIP3    H138665   6.667   6.634   3.129
12908TIP3    H238666   6.757   6.590   3.015
12909TIP3   OH238667   4.859   6.456   1.922
12909TIP3    H138668   4.790   6.518   1.898
12909TIP3    H238669   4.824   6.410   1.999
12910TIP3   OH238670   4.002   1.065   3.528
12910TIP3    H138671   4.015   1.072   3.433
12910TIP3    H238672   3.912   1.094   3.542
12911TIP3   OH238673   4.062   3.926   0.214
12911TIP3    H138674   4.028   4.015   0.205
12911TIP3    H238675   4.156   3.938   0.227
12912TIP3   OH238676   8.297   3.032   3.864
12912TIP3    H138677   8.284   3.012   3.772
12912TIP3    H238678   8.341   2.954   3.899
12913TIP3   OH238679   7.840   5.055   3.298
12913TIP3    H138680   7.756   5.045   3.253
12913TIP3    H238681   7.895   4.985   3.262
12914TIP3   OH238682   5.648   2.552   3.082
12914TIP3    H138683   5.664   2.622   3.019
12914TIP3    H238684   5.666   2.471   3.033
12915TIP3   OH238685   6.931   5.107   3.671
12915TIP3    H138686   6.856   5.149   3.713
12915TIP3    H238687   6.998   5.104   3.740
12916TIP3   OH238688   1.813   1.546   2.136
12916TIP3    H138689   1.846   1.457   2.121
12916TIP3    H238690   1.789   1.577   2.048
12917TIP3   OH238691   6.662   1.701   5.084
12917TIP3    H138692   6.613   1.662   5.155
12917TIP3    H238693   6.628   1.791   5.077
12918TIP3   OH238694   5.869   0.483  -0.014
12918TIP3    H138695   5.900   0.506   0.074
12918TIP3    H238696   5.857   0.388  -0.012
12919TIP3   OH238697   7.206   7.592   2.170
12919TIP3    H138698   7.299   7.605   2.152
12919TIP3    H238699   7.200   7.595   2.266
12920TIP3   OH238700   2.858   0.834   6.589
12920TIP3    H138701   2.776   0.792   6.563
12920TIP3    H238702   2.898   0.861   6.506
12921TIP3   OH238703   7.272   6.160   5.461
12921TIP3    H138704   7.264   6.255   5.455
12921TIP3    H238705   7.206   6.126   5.401
12922TIP3   OH238706   6.178   5.016   3.634
12922TIP3    H138707   6.257   5.066   3.655
12922TIP3    H238708   6.135   5.065   3.565
12923TIP3   OH238709   0.517   5.293   5.257
12923TIP3    H138710   0.589   5.240   5.223
12923TIP3    H238711   0.552   5.336   5.335
12924TIP3   OH238712   4.803   2.894   5.262
12924TIP3    H138713   4.894   2.922   5.252
12924TIP3    H238714   4.765   2.908   5.176
12925TIP3   OH238715   1.441   0.374   2.192
12925TIP3    H138716   1.446   0.292   2.243
12925TIP3    H238717   1.352   0.374   2.156
12926TIP3   OH238718   1.185   3.776   3.126
12926TIP3    H138719   1.239   3.822   3.190
12926TIP3    H238720   1.217   3.686   3.128
12927TIP3   OH238721   4.757   6.381   4.869
12927TIP3    H138722   4.689   6.321   4.900
12927TIP3    H238723   4.729   6.407   4.781
12928TIP3   OH238724   4.535   3.815   0.533
12928TIP3    H138725   4.520   3.820   0.627
12928TIP3    H238726   4.449   3.827   0.493
12929TIP3   OH238727   5.437   7.519   5.820
12929TIP3    H138728   5.346   7.489   5.824
12929TIP3    H238729   5.448   7.572   5.899
12930TIP3   OH238730   4.647   7.194   3.561
12930TIP3    H138731   4.582   7.256   3.594
12930TIP3    H238732   4.661   7.132   3.632
12931TIP3   OH238733   0.424   5.512   2.726
12931TIP3    H138734   0.461   5.423   2.731
12931TIP3    H238735   0.441   5.549   2.812
12932TIP3   OH238736   0.691   3.748   2.795
12932TIP3    H138737   0.784   3.770   2.792
12932TIP3    H238738   0.678   3.708   2.881
12933TIP3   OH238739   1.227   3.223   0.788
12933TIP3    H138740   1.315   3.185   0.784
12933TIP3    H238741   1.234   3.294   0.852
12934TIP3   OH238742   7.772   2.456   5.606
12934TIP3    H138743   7.751   2.363   5.612
12934TIP3    H238744   7.745   2.481   5.518
12935TIP3   OH238745   2.637   4.821   2.418
12935TIP3    H138746   2.638   4.762   2.493
12935TIP3    H238747   2.625   4.764   2.342
12936TIP3   OH238748   3.714   4.207   3.335
12936TIP3    H138749   3.653   4.173   3.401
12936TIP3    H238750   3.756   4.282   3.378
12937TIP3   OH238751   4.592   6.422   4.643
12937TIP3    H138752   4.621   6.367   4.570
12937TIP3    H238753   4.496   6.416   4.642
12938TIP3   OH238754   5.280   6.476   4.704
12938TIP3    H138755   5.234   6.545   4.657
12938TIP3    H238756   5.216   6.442   4.766
12939TIP3   OH238757   0.899   5.419   5.473
12939TIP3    H138758   0.943   5.488   5.523
12939TIP3    H238759   0.923   5.437   5.382
12940TIP3   OH238760   2.130   7.250   4.479
12940TIP3    H138761   2.057   7.254   4.541
12940TIP3    H238762   2.168   7.338   4.480
12941TIP3   OH238763   6.978   0.611   0.833
12941TIP3    H138764   6.996   0.689   0.886
12941TIP3    H238765   7.064   0.585   0.799
12942TIP3   OH238766   1.521   4.139   5.900
12942TIP3    H138767   1.493   4.091   5.822
12942TIP3    H238768   1.616   4.147   5.890
12943TIP3   OH238769   8.046   0.758   4.581
12943TIP3    H138770   8.068   0.791   4.668
12943TIP3    H238771   8.051   0.663   4.589
12944TIP3   OH238772   5.278   4.886   3.103
12944TIP3    H138773   5.359   4.862   3.058
12944TIP3    H238774   5.282   4.840   3.186
12945TIP3   OH238775   0.160   4.000   4.270
12945TIP3    H138776   0.107   3.920   4.273
12945TIP3    H238777   0.159   4.032   4.361
12946TIP3   OH238778   3.696   7.420   0.803
12946TIP3    H138779   3.619   7.426   0.746
12946TIP3    H238780   3.660   7.427   0.891
12947TIP3   OH238781   7.883   3.449   0.667
12947TIP3    H138782   7.852   3.416   0.751
12947TIP3    H238783   7.837   3.532   0.655
12948TIP3   OH238784   6.151   1.732   0.502
12948TIP3    H138785   6.065   1.714   0.541
12948TIP3    H238786   6.214   1.704   0.570
12949TIP3   OH238787   1.042   0.027   5.359
12949TIP3    H138788   1.019   0.110   5.318
12949TIP3    H238789   0.963  -0.026   5.351
12950TIP3   OH238790   2.266   5.768   2.536
12950TIP3    H138791   2.285   5.677   2.559
12950TIP3    H238792   2.171   5.771   2.526
12951TIP3   OH238793   6.118   5.681   1.239
12951TIP3    H138794   6.194   5.736   1.222
12951TIP3    H238795   6.076   5.722   1.315
12952TIP3   OH238796   3.250   7.694   0.705
12952TIP3    H138797   3.173   7.649   0.670
12952TIP3    H238798   3.290   7.737   0.629
12953TIP3   OH238799   8.150   6.737   1.831
12953TIP3    H138800   8.172   6.827   1.855
12953TIP3    H238801   8.218   6.711   1.769
12954TIP3   OH238802   2.447   4.117   1.371
12954TIP3    H138803   2.507   4.137   1.442
12954TIP3    H238804   2.413   4.030   1.393
12955TIP3   OH238805   0.840   4.989   2.503
12955TIP3    H138806   0.824   4.922   2.436
12955TIP3    H238807   0.881   5.061   2.455
12956TIP3   OH238808   0.120   7.500   1.707
12956TIP3    H138809   0.112   7.406   1.686
12956TIP3    H238810   0.213   7.513   1.721
12957TIP3   OH238811   1.957   7.231   0.779
12957TIP3    H138812   1.878   7.252   0.827
12957TIP3    H238813   1.935   7.250   0.688
12958TIP3   OH238814   6.344   2.452   5.010
12958TIP3    H138815   6.259   2.495   4.996
12958TIP3    H238816   6.406   2.525   5.020
12959TIP3   OH238817   4.688   7.029   5.345
12959TIP3    H138818   4.714   6.954   5.292
12959TIP3    H238819   4.749   7.029   5.418
12960TIP3   OH238820   1.168   6.091   2.495
12960TIP3    H138821   1.128   6.161   2.443
12960TIP3    H238822   1.187   6.022   2.432
12961TIP3   OH238823   0.842   7.850   3.838
12961TIP3    H138824   0.906   7.913   3.806
12961TIP3    H238825   0.892   7.769   3.850
12962TIP3   OH238826   5.893   4.513   4.358
12962TIP3    H138827   5.818   4.482   4.306
12962TIP3    H238828   5.864   4.596   4.395
12963TIP3   OH238829   7.041   0.292   3.829
12963TIP3    H138830   7.022   0.239   3.906
12963TIP3    H238831   7.128   0.264   3.801
12964TIP3   OH238832   3.570   2.268   3.324
12964TIP3    H138833   3.593   2.357   3.295
12964TIP3    H238834   3.638   2.246   3.388
12965TIP3   OH238835   4.102   4.600   1.217
12965TIP3    H138836   4.013   4.575   1.244
12965TIP3    H238837   4.089   4.670   1.153
12966TIP3   OH238838   7.059   1.673   4.712
12966TIP3    H138839   7.064   1.587   4.670
12966TIP3    H238840   7.030   1.655   4.801
12967TIP3   OH238841   1.931   1.302   1.765
12967TIP3    H138842   1.886   1.305   1.680
12967TIP3    H238843   1.874   1.249   1.820
12968TIP3   OH238844   2.762   7.348   5.808
12968TIP3    H138845   2.713   7.426   5.783
12968TIP3    H238846   2.812   7.375   5.885
12969TIP3   OH238847   2.704   0.939   6.183
12969TIP3    H138848   2.693   0.902   6.270
12969TIP3    H238849   2.724   0.864   6.127
12970TIP3   OH238850   1.201   7.815   4.825
12970TIP3    H138851   1.271   7.878   4.802
12970TIP3    H238852   1.146   7.812   4.746
12971TIP3   OH238853   7.842   3.707   5.512
12971TIP3    H138854   7.768   3.767   5.510
12971TIP3    H238855   7.905   3.749   5.571
12972TIP3   OH238856   2.494   6.429   4.079
12972TIP3    H138857   2.541   6.438   4.162
12972TIP3    H238858   2.429   6.499   4.081
12973TIP3   OH238859   7.205   0.624   6.631
12973TIP3    H138860   7.193   0.662   6.718
12973TIP3    H238861   7.199   0.529   6.645
12974TIP3   OH238862   7.061   4.680   5.259
12974TIP3    H138863   6.989   4.630   5.220
12974TIP3    H238864   7.120   4.614   5.295
12975TIP3   OH238865   7.784   2.325   3.636
12975TIP3    H138866   7.828   2.338   3.720
12975TIP3    H238867   7.831   2.384   3.575
12976TIP3   OH238868   1.729   0.913   2.976
12976TIP3    H138869   1.751   0.834   3.026
12976TIP3    H238870   1.670   0.883   2.908
12977TIP3   OH238871   1.030   6.133   4.573
12977TIP3    H138872   1.103   6.172   4.525
12977TIP3    H238873   0.967   6.107   4.505
12978TIP3   OH238874   4.615   7.133   3.066
12978TIP3    H138875   4.548   7.185   3.110
12978TIP3    H238876   4.631   7.179   2.983
12979TIP3   OH238877   4.535   2.703   1.389
12979TIP3    H138878   4.582   2.638   1.338
12979TIP3    H238879   4.598   2.732   1.455
12980TIP3   OH238880   4.925   1.197   6.033
12980TIP3    H138881   4.871   1.272   6.054
12980TIP3    H238882   4.974   1.179   6.114
12981TIP3   OH238883   5.878   7.332   3.980
12981TIP3    H138884   5.820   7.403   3.952
12981TIP3    H238885   5.873   7.332   4.075
12982TIP3   OH238886   4.593   7.685   6.390
12982TIP3    H138887   4.517   7.661   6.444
12982TIP3    H238888   4.634   7.757   6.438
12983TIP3   OH238889   2.792   7.808   2.142
12983TIP3    H138890   2.711   7.802   2.193
12983TIP3    H238891   2.813   7.901   2.141
12984TIP3   OH238892   6.082   7.340   2.357
12984TIP3    H138893   6.156   7.383   2.314
12984TIP3    H238894   6.047   7.279   2.292
12985TIP3   OH238895   0.606   6.271   3.900
12985TIP3    H138896   0.553   6.227   3.833
12985TIP3    H238897   0.586   6.223   3.981
12986TIP3   OH238898   3.120   1.953   1.507
12986TIP3    H138899   3.076   1.900   1.574
12986TIP3    H238900   3.145   1.889   1.439
12987TIP3   OH238901   5.000   3.553   6.071
12987TIP3    H138902   4.930   3.584   6.128
12987TIP3    H238903   5.047   3.489   6.123
12988TIP3   OH238904   2.816   7.577   0.726
12988TIP3    H138905   2.849   7.491   0.752
12988TIP3    H238906   2.883   7.611   0.667
12989TIP3   OH238907   5.320   0.124   6.569
12989TIP3    H138908   5.291   0.212   6.548
12989TIP3    H238909   5.376   0.134   6.646
12990TIP3   OH238910   5.483   5.443   4.818
12990TIP3    H138911   5.493   5.538   4.815
12990TIP3    H238912   5.498   5.414   4.727
12991TIP3   OH238913   2.406   1.163   2.589
12991TIP3    H138914   2.340   1.230   2.604
12991TIP3    H238915   2.388   1.097   2.656
12992TIP3   OH238916   1.437   2.557   4.411
12992TIP3    H138917   1.472   2.569   4.322
12992TIP3    H238918   1.461   2.637   4.457
12993TIP3   OH238919   4.809   0.464   4.443
12993TIP3    H138920   4.766   0.459   4.358
12993TIP3    H238921   4.834   0.555   4.452
12994TIP3   OH238922   7.791   0.268   3.322
12994TIP3    H138923   7.731   0.343   3.326
12994TIP3    H238924   7.739   0.194   3.354
12995TIP3   OH238925   2.448   1.079   3.838
12995TIP3    H138926   2.428   1.152   3.779
12995TIP3    H238927   2.542   1.065   3.828
12996TIP3   OH238928   6.714   2.304   4.475
12996TIP3    H138929   6.746   2.311   4.565
12996TIP3    H238930   6.741   2.216   4.447
12997TIP3   OH238931   4.738   7.366   3.216
12997TIP3    H138932   4.824   7.394   3.185
12997TIP3    H238933   4.750   7.276   3.245
12998TIP3   OH238934   2.520   2.296   6.520
12998TIP3    H138935   2.462   2.350   6.466
12998TIP3    H238936   2.553   2.355   6.588
12999TIP3   OH238937   7.063   5.095   6.321
12999TIP3    H138938   7.103   5.072   6.405
12999TIP3    H238939   7.117   5.167   6.288
13000TIP3   OH238940   7.268   4.847   3.814
13000TIP3    H138941   7.299   4.782   3.877
13000TIP3    H238942   7.248   4.924   3.867
13001TIP3   OH238943   6.111   0.405   4.459
13001TIP3    H138944   6.143   0.416   4.549
13001TIP3    H238945   6.102   0.310   4.449
13002TIP3   OH238946   3.183   4.182   3.334
13002TIP3    H138947   3.230   4.237   3.272
13002TIP3    H238948   3.250   4.150   3.394
13003TIP3   OH238949   2.319   0.309   0.087
13003TIP3    H138950   2.385   0.286   0.021
13003TIP3    H238951   2.370   0.330   0.165
13004TIP3   OH238952   8.277   7.632   1.717
13004TIP3    H138953   8.354   7.579   1.697
13004TIP3    H238954   8.216   7.571   1.759
13005TIP3   OH238955   7.698   2.913   2.898
13005TIP3    H138956   7.758   2.846   2.930
13005TIP3    H238957   7.641   2.932   2.973
13006TIP3   OH238958   5.894   0.313   1.493
13006TIP3    H138959   5.869   0.247   1.558
13006TIP3    H238960   5.988   0.299   1.480
13007TIP3   OH238961   6.604   4.657   2.411
13007TIP3    H138962   6.661   4.598   2.362
13007TIP3    H238963   6.516   4.634   2.383
13008TIP3   OH238964   5.235   0.640   2.195
13008TIP3    H138965   5.293   0.650   2.271
13008TIP3    H238966   5.168   0.708   2.206
13009TIP3   OH238967   7.879   2.530   4.783
13009TIP3    H138968   7.924   2.600   4.831
13009TIP3    H238969   7.948   2.490   4.730
13010TIP3   OH238970   8.245   7.477   0.249
13010TIP3    H138971   8.234   7.557   0.300
13010TIP3    H238972   8.205   7.496   0.164
13011TIP3   OH238973   1.199   4.786   6.636
13011TIP3    H138974   1.240   4.703   6.611
13011TIP3    H238975   1.142   4.764   6.709
13012TIP3   OH238976   2.570   0.389   4.499
13012TIP3    H138977   2.568   0.294   4.499
13012TIP3    H238978   2.649   0.412   4.450
13013TIP3   OH238979   1.254   1.434   4.553
13013TIP3    H138980   1.161   1.459   4.549
13013TIP3    H238981   1.254   1.341   4.573
13014TIP3   OH238982   1.581   5.417   1.143
13014TIP3    H138983   1.632   5.340   1.118
13014TIP3    H238984   1.532   5.389   1.220
13015TIP3   OH238985   8.150   3.761   2.853
13015TIP3    H138986   8.141   3.721   2.940
13015TIP3    H238987   8.222   3.823   2.863
13016TIP3   OH238988   1.678   3.347   2.008
13016TIP3    H138989   1.608   3.282   2.010
13016TIP3    H238990   1.758   3.296   2.022
13017TIP3   OH238991   3.518   7.491   0.581
13017TIP3    H138992   3.611   7.476   0.566
13017TIP3    H238993   3.508   7.586   0.571
13018TIP3   OH238994   0.048   3.827   0.808
13018TIP3    H138995   0.127   3.773   0.811
13018TIP3    H238996   0.000   3.794   0.732
13019TIP3   OH238997   1.247   3.137   6.532
13019TIP3    H138998   1.208   3.107   6.614
13019TIP3    H238999   1.252   3.232   6.540
13020TIP3   OH239000   4.008   5.728   4.103
13020TIP3    H139001   3.943   5.798   4.110
13020TIP3    H239002   4.070   5.746   4.174
13021TIP3   OH239003   2.446   4.145   1.684
13021TIP3    H139004   2.458   4.071   1.744
13021TIP3    H239005   2.365   4.125   1.637
13022TIP3   OH239006   4.638   2.479   1.590
13022TIP3    H139007   4.722   2.521   1.576
13022TIP3    H239008   4.574   2.536   1.547
13023TIP3   OH239009   7.815   2.225   6.814
13023TIP3    H139010   7.842   2.151   6.760
13023TIP3    H239011   7.878   2.294   6.793
13024TIP3   OH239012   4.282   5.468   0.874
13024TIP3    H139013   4.305   5.482   0.966
13024TIP3    H239014   4.328   5.388   0.849
13025TIP3   OH239015   2.433   7.641   6.151
13025TIP3    H139016   2.496   7.701   6.113
13025TIP3    H239017   2.452   7.640   6.244
13026TIP3   OH239018   1.678   3.261   5.448
13026TIP3    H139019   1.717   3.175   5.431
13026TIP3    H239020   1.652   3.258   5.540
13027TIP3   OH239021   2.957   0.335   2.773
13027TIP3    H139022   2.978   0.247   2.744
13027TIP3    H239023   2.942   0.384   2.691
13028TIP3   OH239024   4.498   4.688   4.808
13028TIP3    H139025   4.514   4.657   4.897
13028TIP3    H239026   4.578   4.735   4.785
13029TIP3   OH239027   2.090   0.084   1.793
13029TIP3    H139028   2.147   0.160   1.806
13029TIP3    H239029   2.029   0.086   1.867
13030TIP3   OH239030   4.970   0.108   4.068
13030TIP3    H139031   5.040   0.105   4.003
13030TIP3    H239032   4.991   0.037   4.129
13031TIP3   OH239033   4.969   2.342   5.965
13031TIP3    H139034   4.899   2.386   6.013
13031TIP3    H239035   5.049   2.365   6.012
13032TIP3   OH239036   7.872   0.313   5.239
13032TIP3    H139037   7.898   0.353   5.156
13032TIP3    H239038   7.776   0.308   5.233
13033TIP3   OH239039   4.464   0.877   0.357
13033TIP3    H139040   4.473   0.798   0.411
13033TIP3    H239041   4.518   0.942   0.401
13034TIP3   OH239042   3.321   3.217   6.140
13034TIP3    H139043   3.399   3.242   6.190
13034TIP3    H239044   3.324   3.271   6.061
13035TIP3   OH239045   6.374   0.400   1.363
13035TIP3    H139046   6.445   0.462   1.349
13035TIP3    H239047   6.384   0.372   1.455
13036TIP3   OH239048   1.375   2.747   6.359
13036TIP3    H139049   1.357   2.765   6.452
13036TIP3    H239050   1.304   2.789   6.312
13037TIP3   OH239051   6.057   0.247   1.990
13037TIP3    H139052   6.128   0.309   1.977
13037TIP3    H239053   5.992   0.295   2.042
13038TIP3   OH239054   5.103   7.700   5.815
13038TIP3    H139055   5.051   7.771   5.778
13038TIP3    H239056   5.048   7.663   5.884
13039TIP3   OH239057   6.784   2.107   1.184
13039TIP3    H139058   6.702   2.134   1.143
13039TIP3    H239059   6.851   2.132   1.121
13040TIP3   OH239060   0.367   0.501   5.987
13040TIP3    H139061   0.388   0.595   5.989
13040TIP3    H239062   0.451   0.458   5.973
13041TIP3   OH239063   6.312   2.977   3.576
13041TIP3    H139064   6.229   2.937   3.551
13041TIP3    H239065   6.352   2.914   3.636
13042TIP3   OH239066   7.215   4.352   3.978
13042TIP3    H139067   7.210   4.262   3.944
13042TIP3    H239068   7.288   4.391   3.930
13043TIP3   OH239069   7.682   4.364   6.837
13043TIP3    H139070   7.646   4.280   6.809
13043TIP3    H239071   7.709   4.407   6.756
13044TIP3   OH239072   6.690   1.353   4.667
13044TIP3    H139073   6.681   1.412   4.742
13044TIP3    H239074   6.601   1.322   4.651
13045TIP3   OH239075   5.361   2.300   5.247
13045TIP3    H139076   5.367   2.218   5.296
13045TIP3    H239077   5.319   2.361   5.308
13046TIP3   OH239078   5.281   4.684   3.282
13046TIP3    H139079   5.370   4.653   3.266
13046TIP3    H239080   5.272   4.686   3.377
13047TIP3   OH239081   5.837   0.070   2.946
13047TIP3    H139082   5.763   0.121   2.980
13047TIP3    H239083   5.834   0.084   2.851
13048TIP3   OH239084   4.183   1.031   5.031
13048TIP3    H139085   4.264   0.983   5.050
13048TIP3    H239086   4.151   1.060   5.116
13049TIP3   OH239087   0.160   7.750   0.454
13049TIP3    H139088   0.164   7.719   0.544
13049TIP3    H239089   0.084   7.809   0.452
13050TIP3   OH239090   0.301   2.656   4.191
13050TIP3    H139091   0.341   2.738   4.221
13050TIP3    H239092   0.372   2.592   4.198
13051TIP3   OH239093   2.235   6.660   3.690
13051TIP3    H139094   2.242   6.625   3.779
13051TIP3    H239095   2.243   6.583   3.634
13052TIP3   OH239096   0.949   4.525   4.267
13052TIP3    H139097   0.920   4.589   4.202
13052TIP3    H239098   1.025   4.483   4.227
13053TIP3   OH239099   3.038   1.827   3.613
13053TIP3    H139100   3.077   1.780   3.540
13053TIP3    H239101   3.073   1.916   3.606
13054TIP3   OH239102   2.156   5.343   0.813
13054TIP3    H139103   2.086   5.346   0.748
13054TIP3    H239104   2.187   5.252   0.810
13055TIP3   OH239105   7.741   5.903   4.489
13055TIP3    H139106   7.763   5.987   4.449
13055TIP3    H239107   7.826   5.864   4.511
13056TIP3   OH239108   3.300   5.509   0.720
13056TIP3    H139109   3.338   5.424   0.742
13056TIP3    H239110   3.207   5.501   0.741
13057TIP3   OH239111   1.592   1.335   1.341
13057TIP3    H139112   1.551   1.388   1.409
13057TIP3    H239113   1.580   1.385   1.260
13058TIP3   OH239114   3.104   2.002   5.935
13058TIP3    H139115   3.055   1.919   5.944
13058TIP3    H239116   3.095   2.043   6.021
13059TIP3   OH239117   2.443   5.475   0.395
13059TIP3    H139118   2.412   5.470   0.485
13059TIP3    H239119   2.366   5.503   0.345
13060TIP3   OH239120   7.627   1.460   3.577
13060TIP3    H139121   7.653   1.505   3.657
13060TIP3    H239122   7.540   1.426   3.595
13061TIP3   OH239123   1.891   5.977   4.767
13061TIP3    H139124   1.891   5.881   4.761
13061TIP3    H239125   1.968   5.998   4.820
13062TIP3   OH239126   7.500   4.269   3.881
13062TIP3    H139127   7.497   4.298   3.972
13062TIP3    H239128   7.579   4.309   3.845
13063TIP3   OH239129   4.238   3.869   4.184
13063TIP3    H139130   4.239   3.805   4.255
13063TIP3    H239131   4.149   3.905   4.185
13064TIP3   OH239132   7.092   2.102   2.198
13064TIP3    H139133   7.082   2.134   2.108
13064TIP3    H239134   7.183   2.123   2.220
13065TIP3   OH239135   0.821   7.697   6.801
13065TIP3    H139136   0.800   7.738   6.717
13065TIP3    H239137   0.832   7.771   6.861
13066TIP3   OH239138   4.286   0.758   5.010
13066TIP3    H139139   4.372   0.745   5.050
13066TIP3    H239140   4.299   0.733   4.918
13067TIP3   OH239141   6.746   3.201   1.065
13067TIP3    H139142   6.814   3.176   1.003
13067TIP3    H239143   6.688   3.257   1.015
13068TIP3   OH239144   6.015   5.044   2.810
13068TIP3    H139145   6.052   4.961   2.839
13068TIP3    H239146   6.080   5.079   2.749
13069TIP3   OH239147   5.178   3.880   5.092
13069TIP3    H139148   5.163   3.861   4.999
13069TIP3    H239149   5.115   3.825   5.138
13070TIP3   OH239150   0.526   0.160   0.591
13070TIP3    H139151   0.466   0.209   0.535
13070TIP3    H239152   0.610   0.163   0.543
13071TIP3   OH239153   1.799   3.936   2.201
13071TIP3    H139154   1.837   4.022   2.214
13071TIP3    H239155   1.764   3.939   2.111
13072TIP3   OH239156   0.599   1.757   4.212
13072TIP3    H139157   0.593   1.791   4.123
13072TIP3    H239158   0.508   1.750   4.242
13073TIP3   OH239159   2.311   4.166   6.719
13073TIP3    H139160   2.353   4.178   6.634
13073TIP3    H239161   2.217   4.178   6.702
13074TIP3   OH239162   6.896   5.835   1.140
13074TIP3    H139163   6.954   5.770   1.099
13074TIP3    H239164   6.915   5.917   1.094
13075TIP3   OH239165   0.854   4.797   0.089
13075TIP3    H139166   0.900   4.866   0.136
13075TIP3    H239167   0.905   4.718   0.106
13076TIP3   OH239168   1.978   1.211   4.958
13076TIP3    H139169   1.935   1.222   5.043
13076TIP3    H239170   1.946   1.285   4.906
13077TIP3   OH239171   1.808   3.915   1.920
13077TIP3    H139172   1.836   4.003   1.896
13077TIP3    H239173   1.739   3.894   1.857
13078TIP3   OH239174   1.265   5.341   6.544
13078TIP3    H139175   1.198   5.351   6.476
13078TIP3    H239176   1.268   5.247   6.561
13079TIP3   OH239177   5.128   3.799   4.810
13079TIP3    H139178   5.196   3.863   4.786
13079TIP3    H239179   5.144   3.724   4.753
13080TIP3   OH239180   4.295   5.265   6.116
13080TIP3    H139181   4.368   5.252   6.177
13080TIP3    H239182   4.297   5.358   6.096
13081TIP3   OH239183   4.316   6.950   6.597
13081TIP3    H139184   4.323   7.032   6.645
13081TIP3    H239185   4.310   6.977   6.505
13082TIP3   OH239186   1.272   3.295   3.333
13082TIP3    H139187   1.340   3.246   3.380
13082TIP3    H239188   1.194   3.242   3.342
13083TIP3   OH239189   5.064   1.872   1.703
13083TIP3    H139190   5.116   1.850   1.626
13083TIP3    H239191   5.051   1.789   1.748
13084TIP3   OH239192   6.277   2.624   4.551
13084TIP3    H139193   6.253   2.697   4.608
13084TIP3    H239194   6.204   2.562   4.560
13085TIP3   OH239195   0.930   1.360   1.280
13085TIP3    H139196   0.840   1.344   1.309
13085TIP3    H239197   0.921   1.420   1.206
13086TIP3   OH239198   5.871   6.468   4.448
13086TIP3    H139199   5.960   6.443   4.422
13086TIP3    H239200   5.848   6.538   4.387
13087TIP3   OH239201   2.812   4.988   2.580
13087TIP3    H139202   2.811   4.914   2.641
13087TIP3    H239203   2.773   4.954   2.500
13088TIP3   OH239204   2.311   6.072   1.517
13088TIP3    H139205   2.314   6.137   1.448
13088TIP3    H239206   2.401   6.040   1.524
13089TIP3   OH239207   3.802   6.716   1.305
13089TIP3    H139208   3.742   6.642   1.292
13089TIP3    H239209   3.764   6.764   1.379
13090TIP3   OH239210   6.516   4.906   6.088
13090TIP3    H139211   6.489   4.966   6.157
13090TIP3    H239212   6.598   4.943   6.055
13091TIP3   OH239213   0.748   6.834   3.417
13091TIP3    H139214   0.815   6.853   3.352
13091TIP3    H239215   0.705   6.754   3.385
13092TIP3   OH239216   0.986   2.378   5.469
13092TIP3    H139217   1.070   2.366   5.424
13092TIP3    H239218   0.987   2.469   5.496
13093TIP3   OH239219   5.668   5.515   6.444
13093TIP3    H139220   5.580   5.487   6.417
13093TIP3    H239221   5.709   5.545   6.363
13094TIP3   OH239222   2.894   1.950   0.981
13094TIP3    H139223   2.978   1.934   1.023
13094TIP3    H239224   2.830   1.910   1.040
13095TIP3   OH239225   4.637   2.137   6.103
13095TIP3    H139226   4.712   2.173   6.151
13095TIP3    H239227   4.620   2.053   6.144
13096TIP3   OH239228   7.972   4.974   6.184
13096TIP3    H139229   7.974   4.945   6.092
13096TIP3    H239230   7.879   4.986   6.202
13097TIP3   OH239231   2.718   7.431   5.497
13097TIP3    H139232   2.761   7.421   5.412
13097TIP3    H239233   2.789   7.416   5.560
13098TIP3   OH239234   1.302   7.151   6.313
13098TIP3    H139235   1.298   7.095   6.390
13098TIP3    H239236   1.338   7.234   6.346
13099TIP3   OH239237   6.928   4.892   3.930
13099TIP3    H139238   6.964   4.857   3.849
13099TIP3    H239239   6.834   4.902   3.913
13100TIP3   OH239240   5.513   3.671   5.666
13100TIP3    H139241   5.525   3.685   5.760
13100TIP3    H239242   5.422   3.643   5.657
13101TIP3   OH239243   3.180   3.744   6.891
13101TIP3    H139244   3.207   3.680   6.825
13101TIP3    H239245   3.104   3.788   6.852
13102TIP3   OH239246   2.991   4.119   3.565
13102TIP3    H139247   2.970   4.198   3.614
13102TIP3    H239248   2.987   4.048   3.629
13103TIP3   OH239249   1.056   0.676   2.015
13103TIP3    H139250   0.967   0.640   2.017
13103TIP3    H239251   1.059   0.726   1.933
13104TIP3   OH239252   3.868   0.527   5.696
13104TIP3    H139253   3.792   0.500   5.748
13104TIP3    H239254   3.854   0.620   5.679
13105TIP3   OH239255   2.035   3.039   1.888
13105TIP3    H139256   1.962   3.063   1.945
13105TIP3    H239257   1.993   3.013   1.806
13106TIP3   OH239258   8.081   5.588   0.883
13106TIP3    H139259   8.157   5.599   0.940
13106TIP3    H239260   8.113   5.532   0.812
13107TIP3   OH239261   1.369   4.934   4.375
13107TIP3    H139262   1.447   4.955   4.323
13107TIP3    H239263   1.299   4.925   4.310
13108TIP3   OH239264   2.204   5.530   2.267
13108TIP3    H139265   2.226   5.440   2.242
13108TIP3    H239266   2.207   5.529   2.363
13109TIP3   OH239267   2.803   5.814   6.482
13109TIP3    H139268   2.841   5.898   6.457
13109TIP3    H239269   2.720   5.811   6.434
13110TIP3   OH239270   2.466   5.878   0.334
13110TIP3    H139271   2.526   5.804   0.329
13110TIP3    H239272   2.381   5.841   0.311
13111TIP3   OH239273   3.654   4.778   1.385
13111TIP3    H139274   3.615   4.691   1.382
13111TIP3    H239275   3.679   4.796   1.294
13112TIP3   OH239276   0.360   0.166   6.274
13112TIP3    H139277   0.316   0.200   6.196
13112TIP3    H239278   0.442   0.129   6.241
13113TIP3   OH239279   5.584   7.747   3.157
13113TIP3    H139280   5.587   7.835   3.196
13113TIP3    H239281   5.493   7.737   3.129
13114TIP3   OH239282   6.976   1.250   5.184
13114TIP3    H139283   7.038   1.185   5.217
13114TIP3    H239284   7.024   1.333   5.191
13115TIP3   OH239285   2.711   0.131   4.549
13115TIP3    H139286   2.798   0.147   4.511
13115TIP3    H239287   2.720   0.159   4.640
13116TIP3   OH239288   6.966   3.993   0.998
13116TIP3    H139289   6.883   4.031   0.969
13116TIP3    H239290   7.024   4.068   1.009
13117TIP3   OH239291   1.247   3.255   0.186
13117TIP3    H139292   1.257   3.162   0.166
13117TIP3    H239293   1.153   3.268   0.199
13118TIP3   OH239294   1.400   6.457   0.274
13118TIP3    H139295   1.493   6.434   0.264
13118TIP3    H239296   1.367   6.463   0.184
13119TIP3   OH239297   5.590   7.488   3.267
13119TIP3    H139298   5.618   7.547   3.197
13119TIP3    H239299   5.579   7.545   3.343
13120TIP3   OH239300   3.703   1.095   0.505
13120TIP3    H139301   3.685   1.006   0.473
13120TIP3    H239302   3.647   1.105   0.582
13121TIP3   OH239303   2.269   3.365   0.513
13121TIP3    H139304   2.272   3.453   0.476
13121TIP3    H239305   2.180   3.335   0.497
13122TIP3   OH239306   7.672   5.465   1.241
13122TIP3    H139307   7.634   5.463   1.329
13122TIP3    H239308   7.752   5.517   1.251
13123TIP3   OH239309   1.341   0.130   2.762
13123TIP3    H139310   1.303   0.207   2.804
13123TIP3    H239311   1.385   0.164   2.684
13124TIP3   OH239312   5.438   7.551   6.175
13124TIP3    H139313   5.487   7.616   6.125
13124TIP3    H239314   5.501   7.515   6.237
13125TIP3   OH239315   7.997   0.409   6.542
13125TIP3    H139316   7.969   0.357   6.617
13125TIP3    H239317   7.935   0.481   6.538
13126TIP3   OH239318   2.804   4.560   6.683
13126TIP3    H139319   2.778   4.597   6.599
13126TIP3    H239320   2.778   4.468   6.678
13127TIP3   OH239321   1.292   3.472   5.507
13127TIP3    H139322   1.224   3.405   5.507
13127TIP3    H239323   1.244   3.554   5.520
13128TIP3   OH239324   6.317   1.385   1.758
13128TIP3    H139325   6.278   1.442   1.691
13128TIP3    H239326   6.279   1.299   1.741
13129TIP3   OH239327   5.686   7.657   0.906
13129TIP3    H139328   5.690   7.740   0.955
13129TIP3    H239329   5.715   7.680   0.818
13130TIP3   OH239330   7.748   0.958   2.359
13130TIP3    H139331   7.685   0.901   2.400
13130TIP3    H239332   7.766   0.918   2.274
13131TIP3   OH239333   4.906   3.950   4.747
13131TIP3    H139334   4.905   4.033   4.795
13131TIP3    H239335   4.985   3.905   4.777
13132TIP3   OH239336   5.088   4.165   3.018
13132TIP3    H139337   5.019   4.101   2.997
13132TIP3    H239338   5.128   4.185   2.933
13133TIP3   OH239339   3.476   2.343   2.708
13133TIP3    H139340   3.399   2.287   2.715
13133TIP3    H239341   3.444   2.431   2.726
13134TIP3   OH239342   0.012   5.946   1.998
13134TIP3    H139343   0.040   5.943   2.090
13134TIP3    H239344   0.066   6.016   1.960
13135TIP3   OH239345   7.566   1.682   6.258
13135TIP3    H139346   7.514   1.606   6.234
13135TIP3    H239347   7.648   1.646   6.293
13136TIP3   OH239348   5.381   1.348   2.994
13136TIP3    H139349   5.469   1.316   3.014
13136TIP3    H239350   5.350   1.293   2.922
13137TIP3   OH239351   1.937   1.397   0.469
13137TIP3    H139352   2.016   1.344   0.480
13137TIP3    H239353   1.938   1.425   0.378
13138TIP3   OH239354   1.303   5.155   1.499
13138TIP3    H139355   1.310   5.084   1.435
13138TIP3    H239356   1.259   5.117   1.574
13139TIP3   OH239357   5.925   0.081   3.901
13139TIP3    H139358   5.878   0.117   3.976
13139TIP3    H239359   5.867   0.097   3.826
13140TIP3   OH239360   3.320   7.451   2.448
13140TIP3    H139361   3.235   7.493   2.437
13140TIP3    H239362   3.384   7.523   2.443
13141TIP3   OH239363   1.316   4.894   0.853
13141TIP3    H139364   1.298   4.988   0.854
13141TIP3    H239365   1.328   4.873   0.760
13142TIP3   OH239366   3.667   3.453   6.540
13142TIP3    H139367   3.683   3.411   6.624
13142TIP3    H239368   3.753   3.460   6.499
13143TIP3   OH239369   0.039   0.171   5.430
13143TIP3    H139370   0.055   0.263   5.448
13143TIP3    H239371   0.121   0.127   5.454
13144TIP3   OH239372   3.348   4.986   5.244
13144TIP3    H139373   3.439   4.974   5.269
13144TIP3    H239374   3.323   4.903   5.203
13145TIP3   OH239375   7.729   4.961   6.364
13145TIP3    H139376   7.654   5.020   6.367
13145TIP3    H239377   7.692   4.877   6.338
13146TIP3   OH239378   8.243   7.624   4.425
13146TIP3    H139379   8.213   7.713   4.439
13146TIP3    H239380   8.338   7.632   4.413
13147TIP3   OH239381   5.886   6.593   5.529
13147TIP3    H139382   5.882   6.548   5.444
13147TIP3    H239383   5.829   6.669   5.518
13148TIP3   OH239384   5.260   2.913   4.567
13148TIP3    H139385   5.185   2.873   4.611
13148TIP3    H239386   5.286   2.849   4.501
13149TIP3   OH239387   4.685   4.073   2.996
13149TIP3    H139388   4.675   4.157   3.041
13149TIP3    H239389   4.672   4.093   2.903
13150TIP3   OH239390   0.940   7.456   3.903
13150TIP3    H139391   0.938   7.466   3.999
13150TIP3    H239392   0.988   7.533   3.872
13151TIP3   OH239393   7.692   2.506   6.061
13151TIP3    H139394   7.671   2.527   5.970
13151TIP3    H239395   7.672   2.413   6.069
13152TIP3   OH239396   1.741   7.159   0.962
13152TIP3    H139397   1.721   7.066   0.974
13152TIP3    H239398   1.728   7.198   1.048
13153TIP3   OH239399   7.149   5.491   4.292
13153TIP3    H139400   7.196   5.452   4.218
13153TIP3    H239401   7.089   5.553   4.252
13154TIP3   OH239402   2.254   4.598   6.360
13154TIP3    H139403   2.167   4.568   6.385
13154TIP3    H239404   2.238   4.676   6.307
13155TIP3   OH239405   2.585   1.855   5.269
13155TIP3    H139406   2.557   1.891   5.185
13155TIP3    H239407   2.679   1.841   5.260
13156TIP3   OH239408   2.251   5.863   5.763
13156TIP3    H139409   2.196   5.911   5.824
13156TIP3    H239410   2.337   5.905   5.769
13157TIP3   OH239411   2.625   7.308   2.896
13157TIP3    H139412   2.535   7.291   2.867
13157TIP3    H239413   2.615   7.338   2.987
13158TIP3   OH239414   6.539   1.057   4.100
13158TIP3    H139415   6.635   1.057   4.106
13158TIP3    H239416   6.515   0.964   4.094
13159TIP3   OH239417   8.096   4.912   0.086
13159TIP3    H139418   8.050   4.912   0.170
13159TIP3    H239419   8.026   4.906   0.020
13160TIP3   OH239420   6.533   5.504   2.599
13160TIP3    H139421   6.625   5.520   2.580
13160TIP3    H239422   6.486   5.575   2.556
13161TIP3   OH239423   7.145   1.257   5.474
13161TIP3    H139424   7.219   1.296   5.427
13161TIP3    H239425   7.149   1.164   5.451
13162TIP3   OH239426   5.553   6.201   6.442
13162TIP3    H139427   5.637   6.246   6.449
13162TIP3    H239428   5.568   6.132   6.378
13163TIP3   OH239429   1.275   6.727   6.680
13163TIP3    H139430   1.355   6.680   6.703
13163TIP3    H239431   1.250   6.773   6.761
13164TIP3   OH239432   1.157   2.752   4.523
13164TIP3    H139433   1.167   2.780   4.614
13164TIP3    H239434   1.238   2.781   4.480
13165TIP3   OH239435   1.588   0.560   1.962
13165TIP3    H139436   1.496   0.576   1.940
13165TIP3    H239437   1.598   0.466   1.955
13166TIP3   OH239438   0.411   3.587   5.366
13166TIP3    H139439   0.324   3.550   5.379
13166TIP3    H239440   0.407   3.672   5.409
13167TIP3   OH239441   4.365   7.316   6.586
13167TIP3    H139442   4.377   7.270   6.669
13167TIP3    H239443   4.270   7.330   6.581
13168TIP3   OH239444   2.509   2.842   4.095
13168TIP3    H139445   2.433   2.856   4.152
13168TIP3    H239446   2.565   2.918   4.111
13169TIP3   OH239447   4.615   0.600   2.069
13169TIP3    H139448   4.584   0.515   2.038
13169TIP3    H239449   4.709   0.590   2.078
13170TIP3   OH239450   7.320   1.862   0.099
13170TIP3    H139451   7.265   1.914   0.041
13170TIP3    H239452   7.271   1.781   0.114
13171TIP3   OH239453   3.493   7.563   1.860
13171TIP3    H139454   3.418   7.608   1.898
13171TIP3    H239455   3.471   7.470   1.865
13172TIP3   OH239456   5.910   7.537   6.375
13172TIP3    H139457   5.978   7.486   6.418
13172TIP3    H239458   5.951   7.623   6.360
13173TIP3   OH239459   7.919   0.414   6.048
13173TIP3    H139460   7.860   0.489   6.052
13173TIP3    H239461   7.918   0.378   6.137
13174TIP3   OH239462   0.859   4.517   0.740
13174TIP3    H139463   0.840   4.499   0.832
13174TIP3    H239464   0.783   4.484   0.693
13175TIP3   OH239465   0.846   5.470   4.633
13175TIP3    H139466   0.767   5.458   4.581
13175TIP3    H239467   0.820   5.451   4.723
13176TIP3   OH239468   2.355   7.684   1.204
13176TIP3    H139469   2.279   7.725   1.244
13176TIP3    H239470   2.366   7.601   1.252
13177TIP3   OH239471   7.559   7.622   6.102
13177TIP3    H139472   7.617   7.673   6.045
13177TIP3    H239473   7.517   7.559   6.043
13178TIP3   OH239474   3.539   6.081   4.911
13178TIP3    H139475   3.463   6.052   4.861
13178TIP3    H239476   3.611   6.079   4.847
13179TIP3   OH239477   4.776   6.863   0.738
13179TIP3    H139478   4.828   6.823   0.669
13179TIP3    H239479   4.788   6.957   0.725
13180TIP3   OH239480   6.548   2.592   6.400
13180TIP3    H139481   6.624   2.621   6.349
13180TIP3    H239482   6.552   2.645   6.480
13181TIP3   OH239483   6.094   0.884   5.951
13181TIP3    H139484   6.117   0.791   5.959
13181TIP3    H239485   6.083   0.913   6.042
13182TIP3   OH239486   7.783   3.151   6.041
13182TIP3    H139487   7.741   3.094   5.977
13182TIP3    H239488   7.871   3.164   6.006
13183TIP3   OH239489   1.856   3.049   3.735
13183TIP3    H139490   1.926   3.005   3.783
13183TIP3    H239491   1.847   2.998   3.655
13184TIP3   OH239492   4.889   6.702   3.289
13184TIP3    H139493   4.953   6.637   3.315
13184TIP3    H239494   4.817   6.692   3.351
13185TIP3   OH239495   5.261   5.710   0.218
13185TIP3    H139496   5.334   5.767   0.243
13185TIP3    H239497   5.222   5.753   0.142
13186TIP3   OH239498   1.645   2.366   4.772
13186TIP3    H139499   1.638   2.285   4.722
13186TIP3    H239500   1.559   2.406   4.766
13187TIP3   OH239501   2.994   7.179   0.341
13187TIP3    H139502   3.084   7.209   0.353
13187TIP3    H239503   2.963   7.159   0.430
13188TIP3   OH239504   1.734   7.677   1.842
13188TIP3    H139505   1.662   7.635   1.888
13188TIP3    H239506   1.801   7.609   1.835
13189TIP3   OH239507   3.780   5.975   3.812
13189TIP3    H139508   3.734   6.027   3.746
13189TIP3    H239509   3.764   6.023   3.894
13190TIP3   OH239510   6.426   5.949   5.977
13190TIP3    H139511   6.369   6.018   6.011
13190TIP3    H239512   6.379   5.914   5.901
13191TIP3   OH239513   8.314   0.251   6.675
13191TIP3    H139514   8.389   0.259   6.616
13191TIP3    H239515   8.287   0.341   6.693
13192TIP3   OH239516   0.620   2.421   5.727
13192TIP3    H139517   0.676   2.481   5.775
13192TIP3    H239518   0.595   2.355   5.791
13193TIP3   OH239519   0.746   5.205   2.148
13193TIP3    H139520   0.722   5.243   2.233
13193TIP3    H239521   0.840   5.189   2.156
13194TIP3   OH239522   3.655   3.704   5.498
13194TIP3    H139523   3.653   3.646   5.422
13194TIP3    H239524   3.730   3.760   5.484
13195TIP3   OH239525   3.404   5.560   6.774
13195TIP3    H139526   3.421   5.642   6.821
13195TIP3    H239527   3.385   5.496   6.843
13196TIP3   OH239528   4.229   4.878   1.492
13196TIP3    H139529   4.175   4.951   1.464
13196TIP3    H239530   4.237   4.889   1.587
13197TIP3   OH239531   7.212   2.460   3.433
13197TIP3    H139532   7.290   2.473   3.379
13197TIP3    H239533   7.220   2.370   3.466
13198TIP3   OH239534   5.837   0.649   6.057
13198TIP3    H139535   5.930   0.668   6.068
13198TIP3    H239536   5.794   0.697   6.128
13199TIP3   OH239537   5.948   5.935   2.734
13199TIP3    H139538   5.975   5.977   2.815
13199TIP3    H239539   5.936   6.007   2.672
13200TIP3   OH239540   3.284   6.657   5.836
13200TIP3    H139541   3.345   6.689   5.770
13200TIP3    H239542   3.314   6.696   5.918
13201TIP3   OH239543   0.039   2.088   6.351
13201TIP3    H139544   0.099   2.050   6.416
13201TIP3    H239545   0.078   2.173   6.329
13202TIP3   OH239546   7.819   2.743   3.436
13202TIP3    H139547   7.767   2.762   3.515
13202TIP3    H239548   7.859   2.827   3.414
13203TIP3   OH239549   0.680   1.894   5.333
13203TIP3    H139550   0.669   1.896   5.428
13203TIP3    H239551   0.635   1.973   5.301
13204TIP3   OH239552   7.609   1.529   0.972
13204TIP3    H139553   7.654   1.564   1.049
13204TIP3    H239554   7.677   1.526   0.904
13205TIP3   OH239555   2.115   1.697   0.208
13205TIP3    H139556   2.149   1.706   0.297
13205TIP3    H239557   2.024   1.669   0.220
13206TIP3   OH239558   3.777   6.104   5.869
13206TIP3    H139559   3.684   6.116   5.889
13206TIP3    H239560   3.778   6.058   5.786
13207TIP3   OH239561   4.837   0.121   6.042
13207TIP3    H139562   4.913   0.180   6.036
13207TIP3    H239563   4.774   0.158   5.980
13208TIP3   OH239564   7.191   3.415   4.049
13208TIP3    H139565   7.245   3.494   4.056
13208TIP3    H239566   7.191   3.394   3.956
13209TIP3   OH239567   5.937   1.942   1.643
13209TIP3    H139568   5.915   1.919   1.733
13209TIP3    H239569   6.033   1.939   1.641
13210TIP3   OH239570   5.719   5.222   4.375
13210TIP3    H139571   5.773   5.253   4.303
13210TIP3    H239572   5.781   5.186   4.438
13211TIP3   OH239573   5.532   5.722   4.793
13211TIP3    H139574   5.496   5.776   4.723
13211TIP3    H239575   5.572   5.786   4.853
13212TIP3   OH239576   4.154   3.696   3.741
13212TIP3    H139577   4.234   3.676   3.693
13212TIP3    H239578   4.084   3.656   3.689
13213TIP3   OH239579   1.587   1.816   0.927
13213TIP3    H139580   1.604   1.907   0.903
13213TIP3    H239581   1.518   1.822   0.993
13214TIP3   OH239582   5.147   0.174   5.340
13214TIP3    H139583   5.178   0.252   5.295
13214TIP3    H239584   5.221   0.148   5.396
13215TIP3   OH239585   2.627   7.170   0.064
13215TIP3    H139586   2.598   7.088   0.103
13215TIP3    H239587   2.578   7.178  -0.018
13216TIP3   OH239588   0.827   3.873   0.514
13216TIP3    H139589   0.738   3.839   0.528
13216TIP3    H239590   0.830   3.894   0.421
13217TIP3   OH239591   2.158   0.729   5.792
13217TIP3    H139592   2.222   0.719   5.863
13217TIP3    H239593   2.118   0.815   5.808
13218TIP3   OH239594   4.655   0.084   5.352
13218TIP3    H139595   4.629   0.018   5.288
13218TIP3    H239596   4.604   0.162   5.329
13219TIP3   OH239597   1.516   4.503   5.867
13219TIP3    H139598   1.555   4.566   5.806
13219TIP3    H239599   1.578   4.430   5.869
13220TIP3   OH239600   6.288   4.073   3.287
13220TIP3    H139601   6.308   4.053   3.379
13220TIP3    H239602   6.374   4.086   3.246
13221TIP3   OH239603   2.071   4.116   0.209
13221TIP3    H139604   2.066   4.072   0.294
13221TIP3    H239605   2.080   4.044   0.146
13222TIP3   OH239606   7.148   6.476   2.831
13222TIP3    H139607   7.140   6.403   2.893
13222TIP3    H239608   7.144   6.434   2.745
13223TIP3   OH239609   5.923   2.353   0.330
13223TIP3    H139610   5.947   2.342   0.238
13223TIP3    H239611   5.866   2.430   0.331
13224TIP3   OH239612   0.063   7.301   6.834
13224TIP3    H139613   0.154   7.330   6.845
13224TIP3    H239614   0.013   7.361   6.890
13225TIP3   OH239615   1.687   3.976   6.655
13225TIP3    H139616   1.683   3.932   6.570
13225TIP3    H239617   1.662   4.066   6.636
13226TIP3   OH239618   0.318   4.168   6.058
13226TIP3    H139619   0.398   4.137   6.100
13226TIP3    H239620   0.340   4.175   5.966
13227TIP3   OH239621   7.083   5.868   5.106
13227TIP3    H139622   7.076   5.825   5.021
13227TIP3    H239623   7.176   5.865   5.128
13228TIP3   OH239624   1.967   6.989   2.401
13228TIP3    H139625   1.975   6.977   2.307
13228TIP3    H239626   1.886   7.039   2.413
13229TIP3   OH239627   5.822   4.453   6.241
13229TIP3    H139628   5.808   4.547   6.256
13229TIP3    H239629   5.737   4.421   6.213
13230TIP3   OH239630   2.348   2.938   5.528
13230TIP3    H139631   2.385   2.881   5.461
13230TIP3    H239632   2.268   2.893   5.555
13231TIP3   OH239633   6.950   2.274   4.629
13231TIP3    H139634   6.963   2.183   4.601
13231TIP3    H239635   7.003   2.282   4.708
13232TIP3   OH239636   5.506   5.660   2.472
13232TIP3    H139637   5.483   5.715   2.397
13232TIP3    H239638   5.445   5.687   2.541
13233TIP3   OH239639   3.121   3.673   3.899
13233TIP3    H139640   3.165   3.600   3.943
13233TIP3    H239641   3.188   3.740   3.889
13234TIP3   OH239642   4.484   4.392   4.663
13234TIP3    H139643   4.473   4.298   4.675
13234TIP3    H239644   4.495   4.427   4.751
13235TIP3   OH239645   6.978   0.555   5.181
13235TIP3    H139646   7.008   0.465   5.193
13235TIP3    H239647   7.043   0.608   5.228
13236TIP3   OH239648   8.229   6.401   4.586
13236TIP3    H139649   8.203   6.370   4.499
13236TIP3    H239650   8.181   6.344   4.646
13237TIP3   OH239651   3.206   3.665   0.917
13237TIP3    H139652   3.135   3.691   0.858
13237TIP3    H239653   3.171   3.590   0.965
13238TIP3   OH239654   0.176   3.160   3.914
13238TIP3    H139655   0.208   3.130   3.829
13238TIP3    H239656   0.082   3.138   3.913
13239TIP3   OH239657   7.400   0.841   2.936
13239TIP3    H139658   7.353   0.822   2.854
13239TIP3    H239659   7.330   0.860   2.999
13240TIP3   OH239660   5.935   3.290   5.208
13240TIP3    H139661   6.023   3.284   5.245
13240TIP3    H239662   5.948   3.334   5.123
13241TIP3   OH239663   8.277   0.851   4.475
13241TIP3    H139664   8.346   0.786   4.490
13241TIP3    H239665   8.201   0.818   4.523
13242TIP3   OH239666   1.545   1.522   1.973
13242TIP3    H139667   1.561   1.602   2.022
13242TIP3    H239668   1.594   1.533   1.892
13243TIP3   OH239669   4.062   5.086   0.552
13243TIP3    H139670   4.002   5.045   0.615
13243TIP3    H239671   4.035   5.178   0.550
13244TIP3   OH239672   4.933   4.288   0.190
13244TIP3    H139673   5.027   4.289   0.208
13244TIP3    H239674   4.892   4.299   0.276
13245TIP3   OH239675   0.484   5.567   2.997
13245TIP3    H139676   0.579   5.561   3.000
13245TIP3    H239677   0.463   5.651   3.039
13246TIP3   OH239678   5.083   3.022   5.280
13246TIP3    H139679   5.153   2.976   5.328
13246TIP3    H239680   5.127   3.097   5.241
13247TIP3   OH239681   1.150   0.931   1.692
13247TIP3    H139682   1.190   0.915   1.606
13247TIP3    H239683   1.101   1.012   1.681
13248TIP3   OH239684   4.102   0.886   0.145
13248TIP3    H139685   4.097   0.790   0.146
13248TIP3    H239686   4.160   0.906   0.072
13249TIP3   OH239687   5.816   1.716   0.539
13249TIP3    H139688   5.815   1.622   0.521
13249TIP3    H239689   5.805   1.722   0.634
13250TIP3   OH239690   0.666   0.382   2.089
13250TIP3    H139691   0.629   0.293   2.084
13250TIP3    H239692   0.593   0.439   2.065
13251TIP3   OH239693   0.018   1.940   0.635
13251TIP3    H139694   0.044   1.970   0.722
13251TIP3    H239695   0.018   2.019   0.581
13252TIP3   OH239696   8.295   2.308   0.977
13252TIP3    H139697   8.255   2.343   1.057
13252TIP3    H239698   8.300   2.383   0.918
13253TIP3   OH239699   5.210   5.804   2.871
13253TIP3    H139700   5.252   5.817   2.956
13253TIP3    H239701   5.120   5.833   2.883
13254TIP3   OH239702   2.084   5.043   1.534
13254TIP3    H139703   2.146   4.991   1.585
13254TIP3    H239704   2.018   4.981   1.505
13255TIP3   OH239705   3.691   4.150   5.215
13255TIP3    H139706   3.781   4.176   5.237
13255TIP3    H239707   3.688   4.056   5.234
13256TIP3   OH239708   5.038   7.839   4.973
13256TIP3    H139709   4.943   7.849   4.979
13256TIP3    H239710   5.052   7.790   4.892
13257TIP3   OH239711   6.939   1.602   4.981
13257TIP3    H139712   6.854   1.581   5.019
13257TIP3    H239713   6.999   1.600   5.056
13258TIP3   OH239714   4.179   6.075   4.637
13258TIP3    H139715   4.201   5.987   4.666
13258TIP3    H239716   4.115   6.106   4.701
13259TIP3   OH239717   1.266   7.179   1.546
13259TIP3    H139718   1.247   7.260   1.499
13259TIP3    H239719   1.194   7.120   1.523
13260TIP3   OH239720   4.902   0.089   1.875
13260TIP3    H139721   4.884   0.053   1.788
13260TIP3    H239722   4.893   0.015   1.934
13261TIP3   OH239723   4.471   0.883   2.227
13261TIP3    H139724   4.417   0.843   2.295
13261TIP3    H239725   4.545   0.823   2.216
13262TIP3   OH239726   4.225   7.207   4.413
13262TIP3    H139727   4.297   7.153   4.446
13262TIP3    H239728   4.209   7.175   4.324
13263TIP3   OH239729   5.613   4.372   1.889
13263TIP3    H139730   5.617   4.458   1.846
13263TIP3    H239731   5.563   4.317   1.829
13264TIP3   OH239732   7.602   6.404   0.875
13264TIP3    H139733   7.534   6.459   0.915
13264TIP3    H239734   7.555   6.326   0.845
13265TIP3   OH239735   3.172   7.794   0.007
13265TIP3    H139736   3.193   7.854   0.079
13265TIP3    H239737   3.235   7.722   0.017
13266TIP3   OH239738   5.346   5.167   6.088
13266TIP3    H139739   5.439   5.143   6.092
13266TIP3    H239740   5.304   5.112   6.154
13267TIP3   OH239741   4.121   4.000   6.394
13267TIP3    H139742   4.152   4.005   6.303
13267TIP3    H239743   4.042   4.053   6.395
13268TIP3   OH239744   6.022   1.489   6.135
13268TIP3    H139745   6.034   1.544   6.058
13268TIP3    H239746   6.088   1.518   6.197
13269TIP3   OH239747   7.000   0.258   4.883
13269TIP3    H139748   6.920   0.258   4.830
13269TIP3    H239749   7.054   0.327   4.845
13270TIP3   OH239750   3.250   7.784   3.268
13270TIP3    H139751   3.249   7.867   3.219
13270TIP3    H239752   3.189   7.798   3.340
13271TIP3   OH239753   6.238   5.793   2.645
13271TIP3    H139754   6.176   5.807   2.716
13271TIP3    H239755   6.236   5.698   2.630
13272TIP3   OH239756   6.359   7.019   2.553
13272TIP3    H139757   6.368   6.929   2.521
13272TIP3    H239758   6.276   7.019   2.600
13273TIP3   OH239759   5.985   4.380   0.661
13273TIP3    H139760   6.012   4.364   0.571
13273TIP3    H239761   6.067   4.387   0.710
13274TIP3   OH239762   5.144   3.688   5.878
13274TIP3    H139763   5.115   3.779   5.884
13274TIP3    H239764   5.078   3.638   5.926
13275TIP3   OH239765   7.878   1.466   4.358
13275TIP3    H139766   7.868   1.452   4.452
13275TIP3    H239767   7.962   1.513   4.350
13276TIP3   OH239768   5.189   6.898   2.601
13276TIP3    H139769   5.225   6.873   2.516
13276TIP3    H239770   5.266   6.908   2.657
13277TIP3   OH239771   4.815   2.992   6.507
13277TIP3    H139772   4.788   2.968   6.596
13277TIP3    H239773   4.889   2.935   6.487
13278TIP3   OH239774   4.918   0.163   0.931
13278TIP3    H139775   4.986   0.112   0.887
13278TIP3    H239776   4.895   0.232   0.869
13279TIP3   OH239777   2.232   1.080   4.848
13279TIP3    H139778   2.137   1.095   4.855
13279TIP3    H239779   2.265   1.091   4.937
13280TIP3   OH239780   2.751   5.462   1.794
13280TIP3    H139781   2.727   5.520   1.722
13280TIP3    H239782   2.784   5.521   1.862
13281TIP3   OH239783   4.285   5.737   2.855
13281TIP3    H139784   4.248   5.769   2.937
13281TIP3    H239785   4.322   5.815   2.814
13282TIP3   OH239786   6.859   3.326   3.118
13282TIP3    H139787   6.877   3.244   3.072
13282TIP3    H239788   6.850   3.300   3.210
13283TIP3   OH239789   6.421   1.985   6.871
13283TIP3    H139790   6.421   1.941   6.786
13283TIP3    H239791   6.345   2.042   6.869
13284TIP3   OH239792   6.163   6.744   3.623
13284TIP3    H139793   6.095   6.749   3.556
13284TIP3    H239794   6.161   6.830   3.666
13285TIP3   OH239795   1.695   1.783   0.547
13285TIP3    H139796   1.606   1.774   0.579
13285TIP3    H239797   1.687   1.784   0.452
13286TIP3   OH239798   4.219   5.032   5.923
13286TIP3    H139799   4.131   5.012   5.889
13286TIP3    H239800   4.206   5.051   6.016
13287TIP3   OH239801   1.909   2.883   2.689
13287TIP3    H139802   1.995   2.879   2.648
13287TIP3    H239803   1.878   2.793   2.690
13288TIP3   OH239804   8.413   4.381   3.405
13288TIP3    H139805   8.351   4.355   3.473
13288TIP3    H239806   8.393   4.322   3.332
13289TIP3   OH239807   4.902   4.881   2.694
13289TIP3    H139808   4.853   4.905   2.773
13289TIP3    H239809   4.990   4.915   2.710
13290TIP3   OH239810   0.520   0.996   1.639
13290TIP3    H139811   0.599   1.012   1.588
13290TIP3    H239812   0.485   1.083   1.658
13291TIP3   OH239813   3.820   0.816   3.756
13291TIP3    H139814   3.751   0.758   3.725
13291TIP3    H239815   3.787   0.850   3.840
13292TIP3   OH239816   1.667   4.438   3.693
13292TIP3    H139817   1.749   4.410   3.653
13292TIP3    H239818   1.600   4.387   3.648
13293TIP3   OH239819   4.213   4.352   5.303
13293TIP3    H139820   4.296   4.309   5.286
13293TIP3    H239821   4.223   4.440   5.265
13294TIP3   OH239822   0.125   6.222   1.934
13294TIP3    H139823   0.093   6.188   1.851
13294TIP3    H239824   0.194   6.284   1.910
13295TIP3   OH239825   3.157   0.853   0.094
13295TIP3    H139826   3.192   0.809   0.171
13295TIP3    H239827   3.164   0.946   0.114
13296TIP3   OH239828   8.290   1.004   0.654
13296TIP3    H139829   8.291   0.923   0.602
13296TIP3    H239830   8.258   1.071   0.594
13297TIP3   OH239831   1.869   4.045   0.988
13297TIP3    H139832   1.860   3.978   1.056
13297TIP3    H239833   1.958   4.033   0.954
13298TIP3   OH239834   4.854   3.175   3.844
13298TIP3    H139835   4.935   3.167   3.795
13298TIP3    H239836   4.880   3.166   3.936
13299TIP3   OH239837   7.096   3.775   4.774
13299TIP3    H139838   7.180   3.812   4.746
13299TIP3    H239839   7.032   3.813   4.714
13300TIP3   OH239840   0.302   2.760   0.505
13300TIP3    H139841   0.333   2.689   0.449
13300TIP3    H239842   0.358   2.755   0.582
13301TIP3   OH239843   3.365   4.710   1.280
13301TIP3    H139844   3.278   4.670   1.274
13301TIP3    H239845   3.404   4.673   1.359
13302TIP3   OH239846   0.159   1.425   3.718
13302TIP3    H139847   0.149   1.423   3.813
13302TIP3    H239848   0.210   1.346   3.698
13303TIP3   OH239849   4.583   7.632   3.746
13303TIP3    H139850   4.597   7.722   3.774
13303TIP3    H239851   4.541   7.590   3.821
13304TIP3   OH239852   1.962   1.082   6.350
13304TIP3    H139853   1.981   1.175   6.353
13304TIP3    H239854   1.919   1.069   6.266
13305TIP3   OH239855   5.477   3.909   6.445
13305TIP3    H139856   5.459   3.983   6.503
13305TIP3    H239857   5.474   3.946   6.357
13306TIP3   OH239858   4.476   2.236   4.679
13306TIP3    H139859   4.497   2.248   4.586
13306TIP3    H239860   4.457   2.143   4.687
13307TIP3   OH239861   2.907   5.339   5.768
13307TIP3    H139862   2.936   5.414   5.820
13307TIP3    H239863   2.814   5.329   5.790
13308TIP3   OH239864   1.124   0.670   5.854
13308TIP3    H139865   1.070   0.662   5.776
13308TIP3    H239866   1.107   0.591   5.904
13309TIP3   OH239867   8.111   4.414   3.341
13309TIP3    H139868   8.057   4.367   3.278
13309TIP3    H239869   8.089   4.373   3.425
13310TIP3   OH239870   7.713   1.338   4.184
13310TIP3    H139871   7.771   1.377   4.249
13310TIP3    H239872   7.701   1.248   4.213
13311TIP3   OH239873   3.882   5.113   1.267
13311TIP3    H139874   3.806   5.085   1.216
13311TIP3    H239875   3.948   5.046   1.251
13312TIP3   OH239876   1.474   3.238   4.718
13312TIP3    H139877   1.522   3.286   4.785
13312TIP3    H239878   1.525   3.250   4.638
13313TIP3   OH239879   5.649   1.844   3.554
13313TIP3    H139880   5.596   1.923   3.567
13313TIP3    H239881   5.734   1.877   3.527
13314TIP3   OH239882   3.226   6.514   4.714
13314TIP3    H139883   3.264   6.496   4.801
13314TIP3    H239884   3.259   6.600   4.691
13315TIP3   OH239885   5.104   6.394   3.919
13315TIP3    H139886   5.060   6.397   4.005
13315TIP3    H239887   5.032   6.389   3.856
13316TIP3   OH239888   1.284   7.326   5.097
13316TIP3    H139889   1.307   7.258   5.034
13316TIP3    H239890   1.212   7.288   5.148
13317TIP3   OH239891   0.391   2.261   5.503
13317TIP3    H139892   0.341   2.299   5.431
13317TIP3    H239893   0.332   2.264   5.578
13318TIP3   OH239894   7.174   5.465   5.345
13318TIP3    H139895   7.159   5.375   5.318
13318TIP3    H239896   7.269   5.475   5.344
13319TIP3   OH239897   6.979   5.946   0.457
13319TIP3    H139898   6.996   6.030   0.414
13319TIP3    H239899   6.886   5.930   0.444
13320TIP3   OH239900   4.421   4.287   3.511
13320TIP3    H139901   4.440   4.335   3.430
13320TIP3    H239902   4.493   4.309   3.569
13321TIP3   OH239903   7.271   7.593   4.233
13321TIP3    H139904   7.243   7.640   4.311
13321TIP3    H239905   7.254   7.653   4.161
13322TIP3   OH239906   1.894   2.556   1.245
13322TIP3    H139907   1.948   2.622   1.200
13322TIP3    H239908   1.854   2.604   1.317
13323TIP3   OH239909   0.128   3.172   2.448
13323TIP3    H139910   0.067   3.142   2.381
13323TIP3    H239911   0.147   3.263   2.424
13324TIP3   OH239912   4.889   2.229   2.125
13324TIP3    H139913   4.890   2.136   2.149
13324TIP3    H239914   4.814   2.265   2.171
13325TIP3   OH239915   1.951   3.517   0.487
13325TIP3    H139916   2.018   3.566   0.439
13325TIP3    H239917   1.897   3.585   0.528
13326TIP3   OH239918   3.800   6.795   4.981
13326TIP3    H139919   3.735   6.848   5.027
13326TIP3    H239920   3.767   6.706   4.986
13327TIP3   OH239921   3.809   7.281   6.781
13327TIP3    H139922   3.867   7.355   6.765
13327TIP3    H239923   3.764   7.303   6.863
13328TIP3   OH239924   6.879   7.491   5.832
13328TIP3    H139925   6.825   7.568   5.852
13328TIP3    H239926   6.913   7.507   5.744
13329TIP3   OH239927   4.284   0.127   5.214
13329TIP3    H139928   4.192   0.141   5.196
13329TIP3    H239929   4.310   0.054   5.158
13330TIP3   OH239930   1.515   5.308   4.454
13330TIP3    H139931   1.541   5.383   4.507
13330TIP3    H239932   1.419   5.306   4.461
13331TIP3   OH239933   7.680   6.249   2.356
13331TIP3    H139934   7.588   6.240   2.379
13331TIP3    H239935   7.717   6.304   2.425
13332TIP3   OH239936   0.140   4.721   0.677
13332TIP3    H139937   0.057   4.707   0.630
13332TIP3    H239938   0.113   4.735   0.768
13333TIP3   OH239939   5.658   0.582   4.297
13333TIP3    H139940   5.693   0.595   4.209
13333TIP3    H239941   5.691   0.656   4.347
13334TIP3   OH239942   3.509   7.141   0.713
13334TIP3    H139943   3.480   7.185   0.793
13334TIP3    H239944   3.552   7.061   0.744
13335TIP3   OH239945   0.491   5.969   1.420
13335TIP3    H139946   0.474   5.899   1.357
13335TIP3    H239947   0.581   5.997   1.400
13336TIP3   OH239948   4.223   2.537   0.375
13336TIP3    H139949   4.190   2.579   0.295
13336TIP3    H239950   4.211   2.603   0.443
13337TIP3   OH239951   5.402   1.219   1.247
13337TIP3    H139952   5.452   1.161   1.303
13337TIP3    H239953   5.367   1.162   1.178
13338TIP3   OH239954   7.384   4.353   0.059
13338TIP3    H139955   7.441   4.430   0.054
13338TIP3    H239956   7.302   4.381   0.018
13339TIP3   OH239957   7.569   3.942   5.681
13339TIP3    H139958   7.557   3.847   5.679
13339TIP3    H239959   7.480   3.977   5.688
13340TIP3   OH239960   2.072   5.541   1.497
13340TIP3    H139961   2.000   5.515   1.555
13340TIP3    H239962   2.116   5.612   1.544
13341TIP3   OH239963   8.042   1.819   4.180
13341TIP3    H139964   7.964   1.794   4.129
13341TIP3    H239965   8.009   1.833   4.269
13342TIP3   OH239966   6.669   2.233   3.037
13342TIP3    H139967   6.662   2.142   3.007
13342TIP3    H239968   6.579   2.261   3.051
13343TIP3   OH239969   6.319   7.071   1.525
13343TIP3    H139970   6.400   7.026   1.548
13343TIP3    H239971   6.289   7.026   1.446
13344TIP3   OH239972   4.268   2.612   4.292
13344TIP3    H139973   4.344   2.608   4.233
13344TIP3    H239974   4.254   2.706   4.305
13345TIP3   OH239975   0.122   4.026   6.317
13345TIP3    H139976   0.217   4.030   6.303
13345TIP3    H239977   0.085   4.053   6.233
13346TIP3   OH239978   5.816   3.590   3.327
13346TIP3    H139979   5.739   3.632   3.367
13346TIP3    H239980   5.826   3.508   3.377
13347TIP3   OH239981   7.868   7.696   4.441
13347TIP3    H139982   7.853   7.630   4.509
13347TIP3    H239983   7.934   7.754   4.479
13348TIP3   OH239984   1.070   6.664   3.304
13348TIP3    H139985   1.031   6.747   3.278
13348TIP3    H239986   1.001   6.599   3.289
13349TIP3   OH239987   7.226   7.740   2.984
13349TIP3    H139988   7.247   7.647   2.991
13349TIP3    H239989   7.154   7.754   3.045
13350TIP3   OH239990   5.003   1.751   0.491
13350TIP3    H139991   5.066   1.681   0.508
13350TIP3    H239992   5.022   1.779   0.402
13351TIP3   OH239993   1.791   5.922   6.551
13351TIP3    H139994   1.733   5.954   6.482
13351TIP3    H239995   1.852   5.994   6.566
13352TIP3   OH239996   1.398   5.168   0.673
13352TIP3    H139997   1.367   5.247   0.630
13352TIP3    H239998   1.338   5.156   0.747
13353TIP3   OH239999   7.142   1.113   2.907
13353TIP3    H140000   7.085   1.145   2.836
13353TIP3    H240001   7.213   1.177   2.911
13354TIP3   OH240002   3.561   4.376   5.324
13354TIP3    H140003   3.469   4.351   5.317
13354TIP3    H240004   3.610   4.297   5.303
13355TIP3   OH240005   1.356   1.379   5.956
13355TIP3    H140006   1.392   1.393   6.044
13355TIP3    H240007   1.264   1.355   5.972
13356TIP3   OH240008   6.744   4.592   1.330
13356TIP3    H140009   6.759   4.681   1.362
13356TIP3    H240010   6.761   4.597   1.236
13357TIP3   OH240011   7.550   1.144   5.279
13357TIP3    H140012   7.572   1.091   5.356
13357TIP3    H240013   7.602   1.224   5.290
13358TIP3   OH240014   3.777   5.000   6.392
13358TIP3    H140015   3.696   5.033   6.354
13358TIP3    H240016   3.792   5.055   6.468
13359TIP3   OH240017   3.101   3.887   1.561
13359TIP3    H140018   3.063   3.818   1.615
13359TIP3    H240019   3.143   3.946   1.624
13360TIP3   OH240020   1.824   5.496   3.646
13360TIP3    H140021   1.882   5.555   3.598
13360TIP3    H240022   1.883   5.435   3.691
13361TIP3   OH240023   5.533   3.022   6.637
13361TIP3    H140024   5.529   3.108   6.679
13361TIP3    H240025   5.627   3.005   6.626
13362TIP3   OH240026   4.963   3.904   5.863
13362TIP3    H140027   4.942   3.980   5.809
13362TIP3    H240028   4.883   3.851   5.863
13363TIP3   OH240029   2.241   1.913   4.125
13363TIP3    H140030   2.323   1.930   4.077
13363TIP3    H240031   2.192   1.855   4.067
13364TIP3   OH240032   5.825   0.596   1.708
13364TIP3    H140033   5.738   0.617   1.674
13364TIP3    H240034   5.866   0.681   1.722
13365TIP3   OH240035   0.524   4.593   1.625
13365TIP3    H140036   0.439   4.576   1.586
13365TIP3    H240037   0.585   4.540   1.575
13366TIP3   OH240038   5.069   7.213   0.813
13366TIP3    H140039   5.061   7.243   0.903
13366TIP3    H240040   5.122   7.279   0.770
13367TIP3   OH240041   1.612   3.659   4.755
13367TIP3    H140042   1.626   3.630   4.845
13367TIP3    H240043   1.601   3.578   4.705
13368TIP3   OH240044   1.600   3.787   5.357
13368TIP3    H140045   1.604   3.781   5.452
13368TIP3    H240046   1.544   3.863   5.340
13369TIP3   OH240047   0.028   7.028   0.803
13369TIP3    H140048   0.078   7.000   0.880
13369TIP3    H240049   0.001   6.946   0.762
13370TIP3   OH240050   6.297   1.895   3.633
13370TIP3    H140051   6.321   1.831   3.700
13370TIP3    H240052   6.213   1.930   3.663
13371TIP3   OH240053   7.516   0.980   6.377
13371TIP3    H140054   7.601   1.006   6.412
13371TIP3    H240055   7.460   0.968   6.453
13372TIP3   OH240056   1.501   3.326   0.222
13372TIP3    H140057   1.493   3.307   0.316
13372TIP3    H240058   1.416   3.301   0.185
13373TIP3   OH240059   6.780   4.852   2.503
13373TIP3    H140060   6.819   4.833   2.417
13373TIP3    H240061   6.713   4.785   2.514
13374TIP3   OH240062   3.144   1.566   6.077
13374TIP3    H140063   3.142   1.482   6.030
13374TIP3    H240064   3.222   1.610   6.044
13375TIP3   OH240065   3.969   3.048   3.392
13375TIP3    H140066   4.025   3.123   3.373
13375TIP3    H240067   3.985   2.987   3.320
13376TIP3   OH240068   3.600   0.955   6.568
13376TIP3    H140069   3.594   0.867   6.605
13376TIP3    H240070   3.689   0.960   6.532
13377TIP3   OH240071   1.626   3.695   3.257
13377TIP3    H140072   1.581   3.692   3.173
13377TIP3    H240073   1.559   3.670   3.321
13378TIP3   OH240074   1.144   1.303   3.246
13378TIP3    H140075   1.050   1.306   3.227
13378TIP3    H240076   1.158   1.214   3.280
13379TIP3   OH240077   1.042   1.437   3.730
13379TIP3    H140078   1.026   1.399   3.816
13379TIP3    H240079   1.071   1.527   3.748
13380TIP3   OH240080   4.379   7.042   4.835
13380TIP3    H140081   4.416   6.983   4.901
13380TIP3    H240082   4.369   6.988   4.757
13381TIP3   OH240083   1.846   4.812   2.158
13381TIP3    H140084   1.861   4.720   2.176
13381TIP3    H240085   1.776   4.838   2.218
13382TIP3   OH240086   6.515   3.116   2.341
13382TIP3    H140087   6.605   3.136   2.366
13382TIP3    H240088   6.481   3.197   2.305
13383TIP3   OH240089   5.114   4.798   5.719
13383TIP3    H140090   5.052   4.832   5.654
13383TIP3    H240091   5.087   4.707   5.732
13384TIP3   OH240092   2.643   5.637   5.904
13384TIP3    H140093   2.723   5.635   5.955
13384TIP3    H240094   2.660   5.702   5.835
13385TIP3   OH240095   7.427   0.930   0.921
13385TIP3    H140096   7.483   0.876   0.978
13385TIP3    H240097   7.477   1.011   0.910
13386TIP3   OH240098   6.798   2.292   2.310
13386TIP3    H140099   6.774   2.263   2.222
13386TIP3    H240100   6.747   2.372   2.322
13387TIP3   OH240101   6.725   3.009   1.686
13387TIP3    H140102   6.691   3.023   1.775
13387TIP3    H240103   6.773   3.090   1.667
13388TIP3   OH240104   8.373   4.403   2.708
13388TIP3    H140105   8.316   4.477   2.688
13388TIP3    H240106   8.330   4.357   2.779
13389TIP3   OH240107   5.206   1.510   2.832
13389TIP3    H140108   5.259   1.449   2.884
13389TIP3    H240109   5.124   1.518   2.881
13390TIP3   OH240110   0.612   2.659   5.895
13390TIP3    H140111   0.566   2.742   5.881
13390TIP3    H240112   0.676   2.679   5.964
13391TIP3   OH240113   4.490   1.928   5.358
13391TIP3    H140114   4.493   1.834   5.342
13391TIP3    H240115   4.576   1.949   5.394
13392TIP3   OH240116   0.678   0.650   0.681
13392TIP3    H140117   0.729   0.726   0.709
13392TIP3    H240118   0.739   0.577   0.688
13393TIP3   OH240119   0.108   5.817   5.593
13393TIP3    H140120   0.096   5.729   5.556
13393TIP3    H240121   0.030   5.831   5.646
13394TIP3   OH240122   6.961   1.250   1.458
13394TIP3    H140123   7.039   1.303   1.445
13394TIP3    H240124   6.994   1.160   1.464
13395TIP3   OH240125   2.685   5.166   6.007
13395TIP3    H140126   2.695   5.233   6.075
13395TIP3    H240127   2.769   5.121   6.006
13396TIP3   OH240128   2.271   1.624   3.198
13396TIP3    H140129   2.311   1.708   3.175
13396TIP3    H240130   2.216   1.602   3.123
13397TIP3   OH240131   1.257   3.918   3.728
13397TIP3    H140132   1.195   3.946   3.795
13397TIP3    H240133   1.203   3.900   3.651
13398TIP3   OH240134   0.970   1.982   0.791
13398TIP3    H140135   0.878   1.958   0.790
13398TIP3    H240136   1.017   1.898   0.798
13399TIP3   OH240137   6.542   2.380   2.571
13399TIP3    H140138   6.496   2.325   2.507
13399TIP3    H240139   6.546   2.466   2.530
13400TIP3   OH240140   7.270   6.839   4.186
13400TIP3    H140141   7.193   6.826   4.242
13400TIP3    H240142   7.328   6.893   4.239
13401TIP3   OH240143   2.603   5.564   3.752
13401TIP3    H140144   2.578   5.471   3.757
13401TIP3    H240145   2.520   5.611   3.760
13402TIP3   OH240146   1.718   1.072   5.226
13402TIP3    H140147   1.665   1.017   5.285
13402TIP3    H240148   1.653   1.120   5.175
13403TIP3   OH240149   4.852   4.582   5.584
13403TIP3    H140150   4.925   4.537   5.626
13403TIP3    H240151   4.891   4.628   5.510
13404TIP3   OH240152   3.549   4.304   2.201
13404TIP3    H140153   3.554   4.236   2.134
13404TIP3    H240154   3.524   4.383   2.153
13405TIP3   OH240155   6.120   0.952   2.419
13405TIP3    H140156   6.126   0.859   2.399
13405TIP3    H240157   6.186   0.967   2.487
13406TIP3   OH240158   5.369   7.643   0.712
13406TIP3    H140159   5.448   7.698   0.711
13406TIP3    H240160   5.300   7.701   0.679
13407TIP3   OH240161   7.729   7.177   6.827
13407TIP3    H140162   7.792   7.184   6.899
13407TIP3    H240163   7.735   7.086   6.799
13408TIP3   OH240164   8.105   7.096   3.981
13408TIP3    H140165   8.171   7.149   4.025
13408TIP3    H240166   8.142   7.077   3.895
13409TIP3   OH240167   2.679   6.642   0.716
13409TIP3    H140168   2.671   6.620   0.808
13409TIP3    H240169   2.771   6.627   0.695
13410TIP3   OH240170   0.969   5.428   3.291
13410TIP3    H140171   1.033   5.381   3.345
13410TIP3    H240172   1.022   5.470   3.223
13411TIP3   OH240173   0.338   0.441   5.630
13411TIP3    H140174   0.386   0.485   5.700
13411TIP3    H240175   0.260   0.495   5.617
13412TIP3   OH240176   4.183   6.644   2.033
13412TIP3    H140177   4.273   6.612   2.041
13412TIP3    H240178   4.150   6.645   2.123
13413TIP3   OH240179   3.072   3.646   5.710
13413TIP3    H140180   2.993   3.598   5.684
13413TIP3    H240181   3.123   3.654   5.630
13414TIP3   OH240182   2.404   6.384   0.832
13414TIP3    H140183   2.433   6.317   0.769
13414TIP3    H240184   2.321   6.415   0.797
13415TIP3   OH240185   6.521   1.667   2.212
13415TIP3    H140186   6.517   1.691   2.119
13415TIP3    H240187   6.463   1.591   2.220
13416TIP3   OH240188   4.167   0.293   1.101
13416TIP3    H140189   4.163   0.286   1.006
13416TIP3    H240190   4.249   0.340   1.119
13417TIP3   OH240191   6.234   1.731   3.450
13417TIP3    H140192   6.142   1.705   3.455
13417TIP3    H240193   6.240   1.809   3.506
13418TIP3   OH240194   6.608   6.470   1.678
13418TIP3    H140195   6.591   6.482   1.772
13418TIP3    H240196   6.638   6.379   1.670
13419TIP3   OH240197   5.511   0.438   2.856
13419TIP3    H140198   5.569   0.423   2.782
13419TIP3    H240199   5.481   0.351   2.882
13420TIP3   OH240200   6.025   1.844   1.054
13420TIP3    H140201   5.945   1.792   1.052
13420TIP3    H240202   6.014   1.903   1.128
13421TIP3   OH240203   4.669   2.031   2.803
13421TIP3    H140204   4.711   1.996   2.724
13421TIP3    H240205   4.739   2.076   2.850
13422TIP3   OH240206   5.984   0.332   4.044
13422TIP3    H140207   5.976   0.394   4.117
13422TIP3    H240208   5.895   0.301   4.030
13423TIP3   OH240209   3.964   4.962   5.912
13423TIP3    H140210   3.930   5.047   5.885
13423TIP3    H240211   3.906   4.934   5.983
13424TIP3   OH240212   4.058   5.024   4.919
13424TIP3    H140213   3.966   5.041   4.940
13424TIP3    H240214   4.106   5.098   4.957
13425TIP3   OH240215   4.694   3.526   2.753
13425TIP3    H140216   4.781   3.537   2.714
13425TIP3    H240217   4.634   3.559   2.687
13426TIP3   OH240218   7.563   4.473   5.026
13426TIP3    H140219   7.533   4.547   4.975
13426TIP3    H240220   7.551   4.499   5.117
13427TIP3   OH240221   6.031   1.410   4.491
13427TIP3    H140222   6.088   1.341   4.456
13427TIP3    H240223   6.087   1.487   4.495
13428TIP3   OH240224   0.652   5.957   0.912
13428TIP3    H140225   0.649   6.025   0.845
13428TIP3    H240226   0.627   5.877   0.866
13429TIP3   OH240227   6.471   2.485   0.915
13429TIP3    H140228   6.484   2.390   0.915
13429TIP3    H240229   6.416   2.501   0.992
13430TIP3   OH240230   4.583   4.660   1.152
13430TIP3    H140231   4.572   4.717   1.228
13430TIP3    H240232   4.497   4.618   1.141
13431TIP3   OH240233   6.405   3.733   1.540
13431TIP3    H140234   6.487   3.714   1.587
13431TIP3    H240235   6.360   3.797   1.596
13432TIP3   OH240236   2.508   7.213   1.594
13432TIP3    H140237   2.488   7.132   1.642
13432TIP3    H240238   2.557   7.266   1.656
13433TIP3   OH240239   8.212   5.605   3.114
13433TIP3    H140240   8.281   5.540   3.099
13433TIP3    H240241   8.231   5.641   3.200
13434TIP3   OH240242   3.426   6.183   6.194
13434TIP3    H140243   3.514   6.207   6.165
13434TIP3    H240244   3.387   6.140   6.118
13435TIP3   OH240245   6.581   7.155   6.090
13435TIP3    H140246   6.629   7.216   6.034
13435TIP3    H240247   6.595   7.187   6.178
13436TIP3   OH240248   4.226   3.136   2.789
13436TIP3    H140249   4.154   3.078   2.814
13436TIP3    H240250   4.289   3.079   2.744
13437TIP3   OH240251   3.546   3.716   3.651
13437TIP3    H140252   3.517   3.645   3.708
13437TIP3    H240253   3.623   3.682   3.606
13438TIP3   OH240254   0.896   3.407   1.446
13438TIP3    H140255   0.837   3.368   1.511
13438TIP3    H240256   0.891   3.348   1.371
13439TIP3   OH240257   6.438   5.639   1.765
13439TIP3    H140258   6.392   5.679   1.691
13439TIP3    H240259   6.498   5.707   1.795
13440TIP3   OH240260   0.882   2.051   2.919
13440TIP3    H140261   0.937   2.023   2.992
13440TIP3    H240262   0.931   2.122   2.878
13441TIP3   OH240263   6.961   7.312   4.442
13441TIP3    H140264   6.944   7.353   4.357
13441TIP3    H240265   6.875   7.295   4.479
13442TIP3   OH240266   2.012   6.436   5.021
13442TIP3    H140267   1.930   6.409   5.062
13442TIP3    H240268   1.986   6.476   4.939
13443TIP3   OH240269   5.741   6.562   1.625
13443TIP3    H140270   5.676   6.632   1.619
13443TIP3    H240271   5.782   6.560   1.539
13444TIP3   OH240272   0.141   5.112   2.431
13444TIP3    H140273   0.140   5.031   2.380
13444TIP3    H240274   0.110   5.085   2.518
13445TIP3   OH240275   1.075   0.354   2.686
13445TIP3    H140276   1.156   0.363   2.636
13445TIP3    H240277   1.009   0.332   2.621
13446TIP3   OH240278   1.329   1.326   5.685
13446TIP3    H140279   1.413   1.334   5.640
13446TIP3    H240280   1.343   1.366   5.771
13447TIP3   OH240281   3.284   3.924   6.131
13447TIP3    H140282   3.359   3.974   6.163
13447TIP3    H240283   3.207   3.971   6.162
13448TIP3   OH240284   4.012   0.751   5.109
13448TIP3    H140285   4.097   0.734   5.069
13448TIP3    H240286   4.030   0.758   5.203
13449TIP3   OH240287   0.446   4.464   2.103
13449TIP3    H140288   0.519   4.415   2.063
13449TIP3    H240289   0.408   4.402   2.165
13450TIP3   OH240290   3.959   5.298   5.612
13450TIP3    H140291   3.992   5.348   5.687
13450TIP3    H240292   4.035   5.247   5.582
13451TIP3   OH240293   4.265   1.292   4.745
13451TIP3    H140294   4.290   1.200   4.738
13451TIP3    H240295   4.281   1.328   4.657
13452TIP3   OH240296   4.420   3.221   4.551
13452TIP3    H140297   4.469   3.157   4.499
13452TIP3    H240298   4.444   3.202   4.641
13453TIP3   OH240299   4.608   4.013   6.650
13453TIP3    H140300   4.576   4.002   6.560
13453TIP3    H240301   4.685   4.069   6.641
13454TIP3   OH240302   2.172   6.780   2.155
13454TIP3    H140303   2.230   6.704   2.145
13454TIP3    H240304   2.095   6.745   2.201
13455TIP3   OH240305   2.349   1.438   0.950
13455TIP3    H140306   2.430   1.487   0.939
13455TIP3    H240307   2.361   1.360   0.896
13456TIP3   OH240308   6.666   0.876   6.390
13456TIP3    H140309   6.657   0.822   6.469
13456TIP3    H240310   6.579   0.878   6.352
13457TIP3   OH240311   3.123   7.899   4.276
13457TIP3    H140312   3.039   7.871   4.240
13457TIP3    H240313   3.185   7.834   4.242
13458TIP3   OH240314   7.385   3.874   1.287
13458TIP3    H140315   7.327   3.818   1.236
13458TIP3    H240316   7.345   3.961   1.282
13459TIP3   OH240317   4.431   1.499   6.447
13459TIP3    H140318   4.473   1.563   6.504
13459TIP3    H240319   4.348   1.539   6.421
13460TIP3   OH240320   7.947   7.703   0.667
13460TIP3    H140321   7.974   7.741   0.584
13460TIP3    H240322   7.961   7.609   0.656
13461TIP3   OH240323   2.449   3.699   5.814
13461TIP3    H140324   2.509   3.624   5.819
13461TIP3    H240325   2.429   3.708   5.721
13462TIP3   OH240326   4.332   2.801   1.578
13462TIP3    H140327   4.378   2.755   1.508
13462TIP3    H240328   4.321   2.735   1.646
13463TIP3   OH240329   7.574   2.683   1.304
13463TIP3    H140330   7.553   2.662   1.213
13463TIP3    H240331   7.496   2.660   1.354
13464TIP3   OH240332   1.889   2.072   5.457
13464TIP3    H140333   1.916   2.070   5.365
13464TIP3    H240334   1.905   2.162   5.485
13465TIP3   OH240335   0.337   4.378   0.802
13465TIP3    H140336   0.361   4.433   0.727
13465TIP3    H240337   0.245   4.399   0.818
13466TIP3   OH240338   4.236   6.319   2.748
13466TIP3    H140339   4.317   6.363   2.775
13466TIP3    H240340   4.166   6.378   2.777
13467TIP3   OH240341   3.185   2.148   4.236
13467TIP3    H140342   3.148   2.111   4.316
13467TIP3    H240343   3.112   2.150   4.174
13468TIP3   OH240344   2.878   2.154   3.259
13468TIP3    H140345   2.949   2.091   3.263
13468TIP3    H240346   2.921   2.239   3.255
13469TIP3   OH240347   4.810   1.143   0.053
13469TIP3    H140348   4.808   1.156   0.148
13469TIP3    H240349   4.824   1.049   0.042
13470TIP3   OH240350   6.724   6.182   3.798
13470TIP3    H140351   6.793   6.219   3.853
13470TIP3    H240352   6.763   6.104   3.760
13471TIP3   OH240353   0.773   0.320   0.928
13471TIP3    H140354   0.686   0.283   0.918
13471TIP3    H240355   0.784   0.331   1.023
13472TIP3   OH240356   7.296   7.273   2.191
13472TIP3    H140357   7.237   7.197   2.187
13472TIP3    H240358   7.321   7.279   2.283
13473TIP3   OH240359   3.612   2.222   4.471
13473TIP3    H140360   3.693   2.186   4.434
13473TIP3    H240361   3.641   2.301   4.518
13474TIP3   OH240362   3.140   1.883   2.204
13474TIP3    H140363   3.183   1.816   2.152
13474TIP3    H240364   3.144   1.962   2.150
13475TIP3   OH240365   1.884   2.796   3.272
13475TIP3    H140366   1.902   2.890   3.269
13475TIP3    H240367   1.911   2.764   3.185
13476TIP3   OH240368   6.720   4.320   1.268
13476TIP3    H140369   6.757   4.396   1.313
13476TIP3    H240370   6.759   4.322   1.181
13477TIP3   OH240371   4.730   0.258   4.613
13477TIP3    H140372   4.768   0.323   4.553
13477TIP3    H240373   4.756   0.173   4.576
13478TIP3   OH240374   7.903   3.997   1.161
13478TIP3    H140375   7.853   3.975   1.083
13478TIP3    H240376   7.949   4.077   1.138
13479TIP3   OH240377   7.514   5.752   2.387
13479TIP3    H140378   7.608   5.768   2.384
13479TIP3    H240379   7.478   5.805   2.316
13480TIP3   OH240380   7.674   2.162   1.322
13480TIP3    H140381   7.594   2.200   1.359
13480TIP3    H240382   7.730   2.237   1.303
13481TIP3   OH240383   4.907   2.881   2.982
13481TIP3    H140384   4.990   2.850   2.947
13481TIP3    H240385   4.919   2.976   2.992
13482TIP3   OH240386   2.299   4.438   5.025
13482TIP3    H140387   2.269   4.482   5.105
13482TIP3    H240388   2.352   4.365   5.057
13483TIP3   OH240389   5.583   2.540   2.766
13483TIP3    H140390   5.503   2.593   2.770
13483TIP3    H240391   5.555   2.452   2.789
13484TIP3   OH240392   1.118   0.650   3.315
13484TIP3    H140393   1.061   0.575   3.303
13484TIP3    H240394   1.074   0.704   3.380
13485TIP3   OH240395   7.213   4.280   1.596
13485TIP3    H140396   7.197   4.295   1.689
13485TIP3    H240397   7.139   4.322   1.552
13486TIP3   OH240398   6.463   5.827   3.065
13486TIP3    H140399   6.370   5.809   3.049
13486TIP3    H240400   6.468   5.922   3.071
13487TIP3   OH240401   2.035   1.830   2.011
13487TIP3    H140402   1.961   1.809   1.954
13487TIP3    H240403   1.996   1.864   2.091
13488TIP3   OH240404   6.777   3.281   0.744
13488TIP3    H140405   6.746   3.235   0.667
13488TIP3    H240406   6.768   3.373   0.723
13489TIP3   OH240407   3.943   7.716   4.281
13489TIP3    H140408   3.991   7.670   4.350
13489TIP3    H240409   3.924   7.802   4.318
13490TIP3   OH240410   6.929   7.304   5.232
13490TIP3    H140411   6.905   7.384   5.279
13490TIP3    H240412   7.024   7.300   5.237
13491TIP3   OH240413   3.935   1.383   3.835
13491TIP3    H140414   3.971   1.310   3.885
13491TIP3    H240415   3.964   1.367   3.745
13492TIP3   OH240416   2.522   0.472   5.921
13492TIP3    H140417   2.476   0.391   5.899
13492TIP3    H240418   2.455   0.528   5.958
13493TIP3   OH240419   6.215   5.268   0.678
13493TIP3    H140420   6.243   5.293   0.590
13493TIP3    H240421   6.170   5.185   0.666
13494TIP3   OH240422   7.953   4.229   3.222
13494TIP3    H140423   7.915   4.192   3.301
13494TIP3    H240424   8.007   4.158   3.186
13495TIP3   OH240425   6.011   3.887   1.901
13495TIP3    H140426   5.920   3.872   1.876
13495TIP3    H240427   6.048   3.799   1.912
13496TIP3   OH240428   7.983   3.861   0.294
13496TIP3    H140429   7.974   3.855   0.199
13496TIP3    H240430   7.954   3.950   0.314
13497TIP3   OH240431   8.365   6.606   6.480
13497TIP3    H140432   8.287   6.655   6.455
13497TIP3    H240433   8.341   6.561   6.561
13498TIP3   OH240434   5.841   0.936   1.410
13498TIP3    H140435   5.875   0.935   1.320
13498TIP3    H240436   5.847   0.845   1.439
13499TIP3   OH240437   4.125   2.476   2.959
13499TIP3    H140438   4.217   2.449   2.955
13499TIP3    H240439   4.080   2.420   2.897
13500TIP3   OH240440   3.120   2.581   5.131
13500TIP3    H140441   3.202   2.592   5.180
13500TIP3    H240442   3.052   2.576   5.198
13501TIP3   OH240443   6.213   2.428   4.032
13501TIP3    H140444   6.291   2.412   4.085
13501TIP3    H240445   6.243   2.486   3.961
13502TIP3   OH240446   5.001   3.113   4.531
13502TIP3    H140447   4.920   3.070   4.559
13502TIP3    H240448   5.044   3.048   4.475
13503TIP3   OH240449   1.314   4.739   0.564
13503TIP3    H140450   1.255   4.666   0.583
13503TIP3    H240451   1.402   4.704   0.581
13504TIP3   OH240452   6.877   6.817   0.443
13504TIP3    H140453   6.795   6.768   0.434
13504TIP3    H240454   6.850   6.909   0.439
13505TIP3   OH240455   6.233   4.051   3.568
13505TIP3    H140456   6.254   4.120   3.631
13505TIP3    H240457   6.153   4.080   3.525
13506TIP3   OH240458   7.104   1.752   2.534
13506TIP3    H140459   7.112   1.729   2.441
13506TIP3    H240460   7.045   1.828   2.534
13507TIP3   OH240461   6.795   4.627   1.064
13507TIP3    H140462   6.838   4.692   1.008
13507TIP3    H240463   6.704   4.658   1.071
13508TIP3   OH240464   6.336   4.867   5.312
13508TIP3    H140465   6.364   4.931   5.247
13508TIP3    H240466   6.353   4.909   5.397
13509TIP3   OH240467   8.350   3.546   3.428
13509TIP3    H140468   8.392   3.524   3.345
13509TIP3    H240469   8.299   3.625   3.410
13510TIP3   OH240470   1.722   5.798   5.327
13510TIP3    H140471   1.666   5.841   5.392
13510TIP3    H240472   1.668   5.726   5.293
13511TIP3   OH240473   3.671   3.300   0.209
13511TIP3    H140474   3.608   3.344   0.266
13511TIP3    H240475   3.756   3.324   0.245
13512TIP3   OH240476   5.427   4.656   3.973
13512TIP3    H140477   5.379   4.703   4.042
13512TIP3    H240478   5.462   4.725   3.917
13513TIP3   OH240479   6.764   6.207   6.265
13513TIP3    H140480   6.758   6.112   6.257
13513TIP3    H240481   6.853   6.223   6.296
13514TIP3   OH240482   2.173   1.570   2.709
13514TIP3    H140483   2.225   1.570   2.629
13514TIP3    H240484   2.087   1.537   2.682
13515TIP3   OH240485   6.955   3.526   6.315
13515TIP3    H140486   6.966   3.618   6.294
13515TIP3    H240487   7.010   3.480   6.251
13516TIP3   OH240488   8.019   5.526   5.804
13516TIP3    H140489   7.943   5.567   5.762
13516TIP3    H240490   8.008   5.432   5.788
13517TIP3   OH240491   1.933   4.665   6.589
13517TIP3    H140492   1.932   4.606   6.513
13517TIP3    H240493   1.919   4.752   6.552
13518TIP3   OH240494   4.268   6.431   6.422
13518TIP3    H140495   4.302   6.370   6.358
13518TIP3    H240496   4.225   6.500   6.370
13519TIP3   OH240497   1.101   4.311   2.890
13519TIP3    H140498   1.144   4.296   2.974
13519TIP3    H240499   1.020   4.259   2.895
13520TIP3   OH240500   6.598   4.453   4.583
13520TIP3    H140501   6.549   4.535   4.590
13520TIP3    H240502   6.598   4.417   4.671
13521TIP3   OH240503   6.684   3.997   1.889
13521TIP3    H140504   6.686   3.922   1.830
13521TIP3    H240505   6.753   3.979   1.954
13522TIP3   OH240506   6.077   6.148   2.079
13522TIP3    H140507   6.109   6.058   2.070
13522TIP3    H240508   6.071   6.162   2.173
13523TIP3   OH240509   0.340   2.573   5.665
13523TIP3    H140510   0.351   2.507   5.732
13523TIP3    H240511   0.429   2.604   5.647
13524TIP3   OH240512   7.725   7.648   5.667
13524TIP3    H140513   7.673   7.706   5.611
13524TIP3    H240514   7.696   7.560   5.643
13525TIP3   OH240515   3.543   3.683   6.378
13525TIP3    H140516   3.587   3.655   6.458
13525TIP3    H240517   3.517   3.774   6.395
13526TIP3   OH240518   3.205   7.153   2.591
13526TIP3    H140519   3.295   7.158   2.560
13526TIP3    H240520   3.166   7.082   2.541
13527TIP3   OH240521   6.157   5.995   0.390
13527TIP3    H140522   6.209   6.006   0.311
13527TIP3    H240523   6.221   5.987   0.461
13528TIP3   OH240524   7.128   7.441   0.028
13528TIP3    H140525   7.078   7.469   0.104
13528TIP3    H240526   7.111   7.509  -0.038
13529TIP3   OH240527   0.282   6.791   4.205
13529TIP3    H140528   0.298   6.797   4.299
13529TIP3    H240529   0.365   6.763   4.167
13530TIP3   OH240530   4.948   5.861   2.910
13530TIP3    H140531   4.907   5.835   2.828
13530TIP3    H240532   4.877   5.858   2.975
13531TIP3   OH240533   6.294   3.320   5.245
13531TIP3    H140534   6.295   3.226   5.263
13531TIP3    H240535   6.386   3.347   5.254
13532TIP3   OH240536   0.940   3.327   5.684
13532TIP3    H140537   0.969   3.412   5.716
13532TIP3    H240538   0.848   3.341   5.660
13533TIP3   OH240539   6.951   1.018   2.291
13533TIP3    H140540   6.911   0.978   2.369
13533TIP3    H240541   6.892   1.090   2.268
13534TIP3   OH240542   2.018   4.223   2.415
13534TIP3    H140543   2.003   4.242   2.322
13534TIP3    H240544   1.933   4.193   2.447
13535TIP3   OH240545   1.628   3.202   6.753
13535TIP3    H140546   1.580   3.197   6.670
13535TIP3    H240547   1.575   3.151   6.814
13536TIP3   OH240548   6.330   3.665   2.763
13536TIP3    H140549   6.274   3.665   2.686
13536TIP3    H240550   6.301   3.740   2.815
13537TIP3   OH240551   0.056   1.050   4.508
13537TIP3    H140552   0.126   1.040   4.444
13537TIP3    H240553  -0.013   0.990   4.478
13538TIP3   OH240554   7.214   0.851   0.328
13538TIP3    H140555   7.231   0.762   0.358
13538TIP3    H240556   7.295   0.877   0.283
13539TIP3   OH240557   3.616   3.460   0.671
13539TIP3    H140558   3.565   3.496   0.743
13539TIP3    H240559   3.701   3.503   0.677
13540TIP3   OH240560   6.178   3.591   4.422
13540TIP3    H140561   6.223   3.571   4.504
13540TIP3    H240562   6.099   3.638   4.449
13541TIP3   OH240563   5.869   6.876   1.191
13541TIP3    H140564   5.888   6.879   1.097
13541TIP3    H240565   5.955   6.884   1.232
13542TIP3   OH240566   6.149   2.890   6.223
13542TIP3    H140567   6.081   2.953   6.248
13542TIP3    H240568   6.108   2.805   6.238
13543TIP3   OH240569   1.649   4.715   6.132
13543TIP3    H140570   1.635   4.764   6.213
13543TIP3    H240571   1.612   4.628   6.150
13544TIP3   OH240572   3.745   2.932   2.401
13544TIP3    H140573   3.710   2.845   2.385
13544TIP3    H240574   3.811   2.945   2.333
13545TIP3   OH240575   3.325   6.956   2.853
13545TIP3    H140576   3.234   6.949   2.825
13545TIP3    H240577   3.375   6.947   2.772
13546TIP3   OH240578   7.099   7.534   1.336
13546TIP3    H140579   7.187   7.564   1.313
13546TIP3    H240580   7.102   7.439   1.323
13547TIP3   OH240581   0.622   2.485   2.585
13547TIP3    H140582   0.537   2.448   2.605
13547TIP3    H240583   0.684   2.415   2.605
13548TIP3   OH240584   4.281   5.288   2.272
13548TIP3    H140585   4.331   5.333   2.341
13548TIP3    H240586   4.309   5.330   2.191
13549TIP3   OH240587   6.657   5.354   0.148
13549TIP3    H140588   6.738   5.316   0.181
13549TIP3    H240589   6.635   5.301   0.072
13550TIP3   OH240590   0.884   5.131   5.874
13550TIP3    H140591   0.880   5.212   5.824
13550TIP3    H240592   0.794   5.115   5.902
13551TIP3   OH240593   4.232   6.577   4.294
13551TIP3    H140594   4.309   6.544   4.340
13551TIP3    H240595   4.223   6.520   4.218
13552TIP3   OH240596   0.214   3.717   0.510
13552TIP3    H140597   0.232   3.683   0.598
13552TIP3    H240598   0.136   3.771   0.521
13553TIP3   OH240599   2.001   1.666   1.593
13553TIP3    H140600   2.081   1.674   1.644
13553TIP3    H240601   2.017   1.719   1.514
13554TIP3   OH240602   5.765   0.325   1.797
13554TIP3    H140603   5.710   0.264   1.747
13554TIP3    H240604   5.739   0.411   1.765
13555TIP3   OH240605   0.953   7.390   0.848
13555TIP3    H140606   1.035   7.341   0.849
13555TIP3    H240607   0.909   7.359   0.769
13556TIP3   OH240608   1.413   7.082   1.160
13556TIP3    H140609   1.449   7.139   1.091
13556TIP3    H240610   1.408   7.138   1.237
13557TIP3   OH240611   6.084   4.022   5.055
13557TIP3    H140612   6.046   4.004   4.969
13557TIP3    H240613   6.101   3.936   5.093
13558TIP3   OH240614   1.897   4.150   1.770
13558TIP3    H140615   1.858   4.232   1.740
13558TIP3    H240616   1.982   4.148   1.726
13559TIP3   OH240617   7.764   3.231   1.168
13559TIP3    H140618   7.779   3.268   1.255
13559TIP3    H240619   7.671   3.209   1.167
13560TIP3   OH240620   3.957   6.875   2.663
13560TIP3    H140621   3.882   6.823   2.690
13560TIP3    H240622   3.996   6.906   2.744
13561TIP3   OH240623   6.306   1.716   1.854
13561TIP3    H140624   6.400   1.715   1.872
13561TIP3    H240625   6.266   1.686   1.935
13562TIP3   OH240626   3.612   4.039   0.987
13562TIP3    H140627   3.627   3.977   0.916
13562TIP3    H240628   3.523   4.019   1.017
13563TIP3   OH240629   6.485   7.391   4.733
13563TIP3    H140630   6.473   7.299   4.759
13563TIP3    H240631   6.580   7.400   4.723
13564TIP3   OH240632   7.351   4.000   3.572
13564TIP3    H140633   7.392   3.970   3.491
13564TIP3    H240634   7.357   3.925   3.631
13565TIP3   OH240635   3.439   2.977   5.994
13565TIP3    H140636   3.472   2.897   5.955
13565TIP3    H240637   3.454   2.967   6.088
13566TIP3   OH240638   1.984   0.832   2.078
13566TIP3    H140639   1.970   0.920   2.114
13566TIP3    H240640   2.052   0.843   2.012
13567TIP3   OH240641   3.603   5.890   6.222
13567TIP3    H140642   3.604   5.973   6.271
13567TIP3    H240643   3.521   5.849   6.246
13568TIP3   OH240644   6.463   0.326   2.752
13568TIP3    H140645   6.508   0.402   2.787
13568TIP3    H240646   6.375   0.330   2.789
13569TIP3   OH240647   7.990   4.277   4.913
13569TIP3    H140648   7.917   4.339   4.916
13569TIP3    H240649   7.987   4.240   4.825
13570TIP3   OH240650   6.248   4.306   2.491
13570TIP3    H140651   6.276   4.287   2.402
13570TIP3    H240652   6.271   4.398   2.505
13571TIP3   OH240653   1.418   1.667   3.526
13571TIP3    H140654   1.348   1.603   3.524
13571TIP3    H240655   1.463   1.651   3.608
13572TIP3   OH240656   7.655   7.909   4.486
13572TIP3    H140657   7.695   7.962   4.556
13572TIP3    H240658   7.730   7.869   4.442
13573TIP3   OH240659   3.364   5.230   5.633
13573TIP3    H140660   3.318   5.305   5.671
13573TIP3    H240661   3.353   5.241   5.538
13574TIP3   OH240662   7.422   0.469   5.164
13574TIP3    H140663   7.505   0.420   5.170
13574TIP3    H240664   7.415   0.494   5.072
13575TIP3   OH240665   2.525   4.655   5.811
13575TIP3    H140666   2.493   4.684   5.725
13575TIP3    H240667   2.571   4.731   5.846
13576TIP3   OH240668   8.231   7.622   3.847
13576TIP3    H140669   8.162   7.638   3.912
13576TIP3    H240670   8.195   7.553   3.791
13577TIP3   OH240671   5.826   4.296   0.388
13577TIP3    H140672   5.747   4.349   0.388
13577TIP3    H240673   5.893   4.351   0.348
13578TIP3   OH240674   6.261   6.430   3.845
13578TIP3    H140675   6.271   6.515   3.888
13578TIP3    H240676   6.186   6.441   3.787
13579TIP3   OH240677   7.812   6.459   5.929
13579TIP3    H140678   7.756   6.532   5.956
13579TIP3    H240679   7.772   6.382   5.969
13580TIP3   OH240680   3.471   3.510   1.745
13580TIP3    H140681   3.465   3.507   1.650
13580TIP3    H240682   3.519   3.430   1.769
13581TIP3   OH240683   2.623   4.902   4.300
13581TIP3    H140684   2.695   4.851   4.337
13581TIP3    H240685   2.580   4.942   4.376
13582TIP3   OH240686   0.600   1.291   0.851
13582TIP3    H140687   0.520   1.260   0.806
13582TIP3    H240688   0.662   1.218   0.842
13583TIP3   OH240689   5.716   0.799   4.849
13583TIP3    H140690   5.633   0.841   4.872
13583TIP3    H240691   5.775   0.871   4.827
13584TIP3   OH240692   5.147   3.093   2.132
13584TIP3    H140693   5.180   3.009   2.164
13584TIP3    H240694   5.191   3.104   2.047
13585TIP3   OH240695   0.744   2.790   4.807
13585TIP3    H140696   0.676   2.723   4.814
13585TIP3    H240697   0.720   2.856   4.873
13586TIP3   OH240698   0.534   2.238   1.967
13586TIP3    H140699   0.473   2.252   1.895
13586TIP3    H240700   0.519   2.313   2.025
13587TIP3   OH240701   4.558   5.680   6.708
13587TIP3    H140702   4.556   5.593   6.668
13587TIP3    H240703   4.576   5.740   6.635
13588TIP3   OH240704   1.244   6.991   2.700
13588TIP3    H140705   1.302   6.957   2.769
13588TIP3    H240706   1.183   7.048   2.746
13589TIP3   OH240707   5.721   1.567   1.456
13589TIP3    H140708   5.762   1.514   1.387
13589TIP3    H240709   5.637   1.524   1.472
13590TIP3   OH240710   3.388   0.242   0.630
13590TIP3    H140711   3.470   0.204   0.598
13590TIP3    H240712   3.320   0.190   0.588
13591TIP3   OH240713   7.502   2.963   5.085
13591TIP3    H140714   7.494   2.923   5.172
13591TIP3    H240715   7.540   2.894   5.030
13592TIP3   OH240716   7.761   4.963   5.688
13592TIP3    H140717   7.776   5.057   5.674
13592TIP3    H240718   7.716   4.934   5.609
13593TIP3   OH240719   8.106   1.673   5.718
13593TIP3    H140720   8.075   1.678   5.809
13593TIP3    H240721   8.042   1.616   5.676
13594TIP3   OH240722   6.819   0.293   6.036
13594TIP3    H140723   6.909   0.318   6.056
13594TIP3    H240724   6.808   0.315   5.944
13595TIP3   OH240725   0.097   4.476   1.009
13595TIP3    H140726   0.062   4.421   0.939
13595TIP3    H240727   0.021   4.526   1.040
13596TIP3   OH240728   3.275   0.365   5.282
13596TIP3    H140729   3.220   0.414   5.342
13596TIP3    H240730   3.362   0.404   5.291
13597TIP3   OH240731   1.942   3.289   5.083
13597TIP3    H140732   1.951   3.361   5.021
13597TIP3    H240733   1.983   3.322   5.164
13598TIP3   OH240734   7.392   1.458   1.096
13598TIP3    H140735   7.317   1.502   1.056
13598TIP3    H240736   7.468   1.498   1.054
13599TIP3   OH240737   4.286   5.325   1.389
13599TIP3    H140738   4.214   5.268   1.416
13599TIP3    H240739   4.332   5.345   1.471
13600TIP3   OH240740   4.503   4.730   6.680
13600TIP3    H140741   4.453   4.806   6.651
13600TIP3    H240742   4.594   4.756   6.672
13601TIP3   OH240743   1.233   2.344   4.688
13601TIP3    H140744   1.297   2.415   4.695
13601TIP3    H240745   1.151   2.382   4.721
13602TIP3   OH240746   1.083   5.381   6.312
13602TIP3    H140747   1.080   5.310   6.248
13602TIP3    H240748   1.118   5.456   6.264
13603TIP3   OH240749   6.325   1.022   6.108
13603TIP3    H140750   6.247   1.075   6.090
13603TIP3    H240751   6.397   1.086   6.109
13604TIP3   OH240752   3.935   6.506   4.433
13604TIP3    H140753   3.923   6.596   4.463
13604TIP3    H240754   3.916   6.509   4.339
13605TIP3   OH240755   8.241   0.917   2.308
13605TIP3    H140756   8.269   0.923   2.217
13605TIP3    H240757   8.192   0.997   2.324
13606TIP3   OH240758   4.570   6.177   6.407
13606TIP3    H140759   4.548   6.169   6.500
13606TIP3    H240760   4.654   6.223   6.406
13607TIP3   OH240761   1.549   7.222   4.276
13607TIP3    H140762   1.493   7.151   4.244
13607TIP3    H240763   1.535   7.293   4.213
13608TIP3   OH240764   0.912   3.281   4.719
13608TIP3    H140765   0.976   3.212   4.734
13608TIP3    H240766   0.862   3.252   4.643
13609TIP3   OH240767   0.833   5.208   3.459
13609TIP3    H140768   0.740   5.184   3.459
13609TIP3    H240769   0.849   5.242   3.371
13610TIP3   OH240770   6.059   7.892   6.812
13610TIP3    H140771   6.029   7.850   6.731
13610TIP3    H240772   6.024   7.981   6.807
13611TIP3   OH240773   3.784   4.710   6.257
13611TIP3    H140774   3.784   4.713   6.162
13611TIP3    H240775   3.780   4.801   6.284
13612TIP3   OH240776   2.508   4.135   0.868
13612TIP3    H140777   2.467   4.115   0.784
13612TIP3    H240778   2.582   4.191   0.847
13613TIP3   OH240779   3.352   4.114   3.566
13613TIP3    H140780   3.306   4.030   3.575
13613TIP3    H240781   3.426   4.107   3.626
13614TIP3   OH240782   1.126   2.127   4.926
13614TIP3    H140783   1.036   2.110   4.955
13614TIP3    H240784   1.123   2.119   4.831
13615TIP3   OH240785   6.597   5.714   2.085
13615TIP3    H140786   6.674   5.700   2.140
13615TIP3    H240787   6.629   5.765   2.011
13616TIP3   OH240788   7.079   0.641   1.187
13616TIP3    H140789   7.113   0.601   1.267
13616TIP3    H240790   7.117   0.588   1.116
13617TIP3   OH240791   1.469   4.476   0.252
13617TIP3    H140792   1.426   4.404   0.205
13617TIP3    H240793   1.515   4.433   0.324
13618TIP3   OH240794   2.509   2.020   5.032
13618TIP3    H140795   2.440   1.995   5.093
13618TIP3    H240796   2.475   1.997   4.945
13619TIP3   OH240797   2.234   0.407   6.347
13619TIP3    H140798   2.295   0.343   6.385
13619TIP3    H240799   2.234   0.387   6.254
13620TIP3   OH240800   4.900   1.330   4.787
13620TIP3    H140801   4.906   1.275   4.709
13620TIP3    H240802   4.806   1.339   4.803
13621TIP3   OH240803   3.924   4.782   1.496
13621TIP3    H140804   3.842   4.780   1.447
13621TIP3    H240805   3.978   4.713   1.457
13622TIP3   OH240806   1.668   1.980   5.196
13622TIP3    H140807   1.653   2.000   5.103
13622TIP3    H240808   1.584   1.949   5.227
13623TIP3   OH240809   7.881   5.993   2.913
13623TIP3    H140810   7.856   6.022   3.001
13623TIP3    H240811   7.977   5.992   2.915
13624TIP3   OH240812   1.465   1.045   0.783
13624TIP3    H140813   1.497   1.127   0.822
13624TIP3    H240814   1.452   0.987   0.858
13625TIP3   OH240815   5.805   0.861   0.145
13625TIP3    H140816   5.890   0.869   0.100
13625TIP3    H240817   5.819   0.902   0.230
13626TIP3   OH240818   0.161   5.264   4.567
13626TIP3    H140819   0.230   5.248   4.630
13626TIP3    H240820   0.207   5.276   4.484
13627TIP3   OH240821   5.279   7.042   4.995
13627TIP3    H140822   5.315   6.953   4.998
13627TIP3    H240823   5.245   7.057   5.083
13628TIP3   OH240824   2.118   7.755   2.022
13628TIP3    H140825   2.211   7.758   2.047
13628TIP3    H240826   2.098   7.662   2.013
13629TIP3   OH240827   2.166   5.759   4.741
13629TIP3    H140828   2.220   5.819   4.792
13629TIP3    H240829   2.206   5.758   4.654
13630TIP3   OH240830   5.239   2.581   2.833
13630TIP3    H140831   5.268   2.562   2.923
13630TIP3    H240832   5.154   2.624   2.844
13631TIP3   OH240833   0.318   6.404   1.448
13631TIP3    H140834   0.303   6.403   1.354
13631TIP3    H240835   0.274   6.325   1.480
13632TIP3   OH240836   1.064   7.629   4.124
13632TIP3    H140837   0.977   7.622   4.165
13632TIP3    H240838   1.082   7.723   4.122
13633TIP3   OH240839   7.916   6.363   3.924
13633TIP3    H140840   7.842   6.314   3.888
13633TIP3    H240841   7.902   6.363   4.019
13634TIP3   OH240842   1.549   1.299   1.673
13634TIP3    H140843   1.503   1.255   1.602
13634TIP3    H240844   1.503   1.272   1.753
13635TIP3   OH240845   2.161   7.229   6.247
13635TIP3    H140846   2.103   7.154   6.235
13635TIP3    H240847   2.154   7.251   6.340
13636TIP3   OH240848   7.125   2.829   4.452
13636TIP3    H140849   7.119   2.835   4.548
13636TIP3    H240850   7.038   2.853   4.421
13637TIP3   OH240851   7.074   6.461   6.055
13637TIP3    H140852   7.034   6.547   6.068
13637TIP3    H240853   7.167   6.480   6.039
13638TIP3   OH240854   2.183   0.245   2.226
13638TIP3    H140855   2.127   0.318   2.252
13638TIP3    H240856   2.171   0.180   2.295
13639TIP3   OH240857   7.943   4.293   0.224
13639TIP3    H140858   7.987   4.361   0.173
13639TIP3    H240859   7.910   4.231   0.158
13640TIP3   OH240860   6.438   4.326   5.235
13640TIP3    H140861   6.364   4.300   5.179
13640TIP3    H240862   6.401   4.324   5.324
13641TIP3   OH240863   6.512   7.628   5.080
13641TIP3    H140864   6.606   7.647   5.075
13641TIP3    H240865   6.479   7.687   5.147
13642TIP3   OH240866   4.243   1.074   1.694
13642TIP3    H140867   4.154   1.075   1.660
13642TIP3    H240868   4.265   0.981   1.701
13643TIP3   OH240869   4.891   0.901   0.002
13643TIP3    H140870   4.816   0.850   0.033
13643TIP3    H240871   4.917   0.858  -0.079
13644TIP3   OH240872   7.200   3.667   6.764
13644TIP3    H140873   7.152   3.733   6.714
13644TIP3    H240874   7.139   3.593   6.770
13645TIP3   OH240875   5.586   3.473   4.605
13645TIP3    H140876   5.503   3.444   4.567
13645TIP3    H240877   5.637   3.502   4.529
13646TIP3   OH240878   4.673   4.971   6.019
13646TIP3    H140879   4.616   5.007   5.951
13646TIP3    H240880   4.750   5.026   6.018
13647TIP3   OH240881   1.543   0.377   4.701
13647TIP3    H140882   1.464   0.386   4.647
13647TIP3    H240883   1.562   0.467   4.730
13648TIP3   OH240884   6.680   5.722   4.275
13648TIP3    H140885   6.627   5.794   4.240
13648TIP3    H240886   6.629   5.643   4.256
13649TIP3   OH240887   5.183   1.812   1.426
13649TIP3    H140888   5.264   1.761   1.425
13649TIP3    H240889   5.200   1.886   1.369
13650TIP3   OH240890   4.466   4.998   1.701
13650TIP3    H140891   4.379   4.993   1.739
13650TIP3    H240892   4.476   4.917   1.651
13651TIP3   OH240893   1.579   0.220   1.380
13651TIP3    H140894   1.657   0.238   1.327
13651TIP3    H240895   1.582   0.126   1.397
13652TIP3   OH240896   5.900   4.222   5.491
13652TIP3    H140897   5.820   4.177   5.519
13652TIP3    H240898   5.871   4.278   5.420
13653TIP3   OH240899   6.067   4.952   6.203
13653TIP3    H140900   5.993   4.891   6.201
13653TIP3    H240901   6.107   4.937   6.289
13654TIP3   OH240902   0.437   7.410   3.663
13654TIP3    H140903   0.422   7.497   3.701
13654TIP3    H240904   0.497   7.426   3.590
13655TIP3   OH240905   7.200   1.797   5.030
13655TIP3    H140906   7.209   1.886   5.066
13655TIP3    H240907   7.259   1.744   5.083
13656TIP3   OH240908   6.273   2.289   4.566
13656TIP3    H140909   6.196   2.337   4.597
13656TIP3    H240910   6.331   2.286   4.641
13657TIP3   OH240911   3.853   0.918   2.200
13657TIP3    H140912   3.766   0.889   2.175
13657TIP3    H240913   3.909   0.842   2.187
13658TIP3   OH240914   5.935   1.930   0.714
13658TIP3    H140915   5.910   1.954   0.803
13658TIP3    H240916   5.896   1.998   0.659
13659TIP3   OH240917   7.193   6.031   4.482
13659TIP3    H140918   7.181   6.043   4.388
13659TIP3    H240919   7.286   6.051   4.497
13660TIP3   OH240920   7.828   0.033   1.153
13660TIP3    H140921   7.738   0.001   1.145
13660TIP3    H240922   7.881  -0.030   1.104
13661TIP3   OH240923   6.839   2.363   4.093
13661TIP3    H140924   6.778   2.400   4.029
13661TIP3    H240925   6.920   2.349   4.044
13662TIP3   OH240926   7.553   5.285   3.563
13662TIP3    H140927   7.645   5.261   3.548
13662TIP3    H240928   7.511   5.276   3.477
13663TIP3   OH240929   2.864   2.182   2.859
13663TIP3    H140930   2.898   2.098   2.891
13663TIP3    H240931   2.899   2.247   2.920
13664TIP3   OH240932   1.168   6.421   5.680
13664TIP3    H140933   1.229   6.347   5.681
13664TIP3    H240934   1.138   6.427   5.771
13665TIP3   OH240935   1.989   0.014   0.392
13665TIP3    H140936   2.015  -0.062   0.340
13665TIP3    H240937   2.058   0.079   0.377
13666TIP3   OH240938   2.443   7.011   5.319
13666TIP3    H140939   2.429   6.940   5.256
13666TIP3    H240940   2.518   7.059   5.285
13667TIP3   OH240941   6.831   2.325   5.959
13667TIP3    H140942   6.800   2.340   6.049
13667TIP3    H240943   6.885   2.246   5.966
13668TIP3   OH240944   3.606   5.553   2.338
13668TIP3    H140945   3.682   5.588   2.384
13668TIP3    H240946   3.532   5.570   2.396
13669TIP3   OH240947   4.036   2.888   2.479
13669TIP3    H140948   4.115   2.891   2.534
13669TIP3    H240949   3.965   2.915   2.537
13670TIP3   OH240950   8.198   3.748   6.875
13670TIP3    H140951   8.200   3.809   6.801
13670TIP3    H240952   8.241   3.669   6.841
13671TIP3   OH240953   1.103   4.212   1.618
13671TIP3    H140954   1.170   4.148   1.593
13671TIP3    H240955   1.067   4.242   1.535
13672TIP3   OH240956   3.874   2.069   0.963
13672TIP3    H140957   3.787   2.034   0.985
13672TIP3    H240958   3.924   1.994   0.933
13673TIP3   OH240959   7.272   3.101   5.087
13673TIP3    H140960   7.285   3.110   4.992
13673TIP3    H240961   7.360   3.087   5.121
13674TIP3   OH240962   8.344   0.872   0.952
13674TIP3    H140963   8.348   0.809   0.881
13674TIP3    H240964   8.326   0.956   0.909
13675TIP3   OH240965   5.162   7.191   1.735
13675TIP3    H140966   5.230   7.186   1.803
13675TIP3    H240967   5.094   7.130   1.765
13676TIP3   OH240968   7.933   1.004   2.615
13676TIP3    H140969   7.921   1.097   2.596
13676TIP3    H240970   7.867   0.959   2.562
13677TIP3   OH240971   5.897   0.430   3.260
13677TIP3    H140972   5.814   0.402   3.299
13677TIP3    H240973   5.950   0.350   3.257
13678TIP3   OH240974   2.522   1.360   0.432
13678TIP3    H140975   2.555   1.357   0.342
13678TIP3    H240976   2.428   1.377   0.423
13679TIP3   OH240977   5.887   1.705   0.241
13679TIP3    H140978   5.864   1.615   0.217
13679TIP3    H240979   5.871   1.710   0.336
13680TIP3   OH240980   0.517   1.847   3.953
13680TIP3    H140981   0.430   1.813   3.933
13680TIP3    H240982   0.527   1.923   3.894
13681TIP3   OH240983   1.037   4.305   6.536
13681TIP3    H140984   0.995   4.319   6.451
13681TIP3    H240985   0.965   4.302   6.599
13682TIP3   OH240986   5.200   7.298   1.079
13682TIP3    H140987   5.277   7.244   1.094
13682TIP3    H240988   5.234   7.381   1.044
13683TIP3   OH240989   1.628   6.375   0.651
13683TIP3    H140990   1.657   6.466   0.658
13683TIP3    H240991   1.671   6.342   0.572
13684TIP3   OH240992   2.342   5.957   4.803
13684TIP3    H140993   2.371   5.999   4.722
13684TIP3    H240994   2.275   6.017   4.838
13685TIP3   OH240995   1.815   5.361   0.266
13685TIP3    H140996   1.806   5.310   0.347
13685TIP3    H240997   1.729   5.356   0.224
13686TIP3   OH240998   6.728   3.754   1.264
13686TIP3    H140999   6.712   3.843   1.296
13686TIP3    H241000   6.652   3.734   1.209
13687TIP3   OH241001   0.331   3.461   4.598
13687TIP3    H141002   0.267   3.517   4.642
13687TIP3    H241003   0.317   3.375   4.637
13688TIP3   OH241004   2.508   6.790   6.428
13688TIP3    H141005   2.428   6.765   6.475
13688TIP3    H241006   2.497   6.883   6.410
13689TIP3   OH241007   5.284   3.587   6.290
13689TIP3    H141008   5.250   3.514   6.239
13689TIP3    H241009   5.366   3.611   6.246
13690TIP3   OH241010   4.270   1.161   0.933
13690TIP3    H141011   4.364   1.168   0.949
13690TIP3    H241012   4.235   1.122   1.014
13691TIP3   OH241013   5.005   2.328   0.658
13691TIP3    H141014   5.083   2.348   0.710
13691TIP3    H241015   5.037   2.266   0.591
13692TIP3   OH241016   2.105   2.247   4.165
13692TIP3    H141017   2.167   2.178   4.187
13692TIP3    H241018   2.113   2.258   4.070
13693TIP3   OH241019   3.286   5.930   4.972
13693TIP3    H141020   3.256   6.020   4.965
13693TIP3    H241021   3.231   5.892   5.041
13694TIP3   OH241022   5.840   3.327   3.431
13694TIP3    H141023   5.792   3.272   3.370
13694TIP3    H241024   5.905   3.269   3.470
13695TIP3   OH241025   2.966   1.558   6.854
13695TIP3    H141026   2.934   1.568   6.764
13695TIP3    H241027   3.033   1.490   6.848
13696TIP3   OH241028   0.664   3.439   5.303
13696TIP3    H141029   0.736   3.490   5.341
13696TIP3    H241030   0.585   3.486   5.330
13697TIP3   OH241031   1.559   5.455   2.808
13697TIP3    H141032   1.572   5.450   2.713
13697TIP3    H241033   1.643   5.428   2.845
13698TIP3   OH241034   4.977   0.627   6.165
13698TIP3    H141035   5.051   0.597   6.113
13698TIP3    H241036   4.901   0.583   6.127
13699TIP3   OH241037   4.886   2.688   2.204
13699TIP3    H141038   4.885   2.775   2.164
13699TIP3    H241039   4.955   2.641   2.157
13700TIP3   OH241040   2.091   4.857   5.668
13700TIP3    H141041   2.075   4.847   5.574
13700TIP3    H241042   2.106   4.768   5.699
13701TIP3   OH241043   7.400   5.079   3.693
13701TIP3    H141044   7.450   5.159   3.675
13701TIP3    H241045   7.322   5.110   3.740
13702TIP3   OH241046   2.199   4.340   0.482
13702TIP3    H141047   2.170   4.252   0.457
13702TIP3    H241048   2.169   4.350   0.573
13703TIP3   OH241049   6.210   6.688   1.014
13703TIP3    H141050   6.269   6.761   0.997
13703TIP3    H241051   6.239   6.653   1.098
13704TIP3   OH241052   4.523   7.598   5.138
13704TIP3    H141053   4.611   7.608   5.174
13704TIP3    H241054   4.494   7.512   5.168
13705TIP3   OH241055   4.471   1.598  -0.027
13705TIP3    H141056   4.403   1.571   0.034
13705TIP3    H241057   4.516   1.670   0.017
13706TIP3   OH241058   2.558   0.229   3.107
13706TIP3    H141059   2.543   0.192   3.194
13706TIP3    H241060   2.507   0.174   3.048
13707TIP3   OH241061   3.447   1.901   3.684
13707TIP3    H141062   3.540   1.882   3.681
13707TIP3    H241063   3.415   1.851   3.759
13708TIP3   OH241064   6.745   1.892   3.403
13708TIP3    H141065   6.739   1.924   3.493
13708TIP3    H241066   6.680   1.821   3.399
13709TIP3   OH241067   3.971   7.111   1.610
13709TIP3    H141068   3.885   7.154   1.613
13709TIP3    H241069   3.956   7.023   1.644
13710TIP3   OH241070   4.051   5.595   3.693
13710TIP3    H141071   4.057   5.517   3.748
13710TIP3    H241072   4.043   5.668   3.755
13711TIP3   OH241073   8.312   4.027   5.815
13711TIP3    H141074   8.235   4.085   5.811
13711TIP3    H241075   8.310   3.979   5.732
13712TIP3   OH241076   0.540   2.935   0.340
13712TIP3    H141077   0.465   2.952   0.397
13712TIP3    H241078   0.604   3.001   0.364
13713TIP3   OH241079   5.655   5.690   4.218
13713TIP3    H141080   5.709   5.750   4.167
13713TIP3    H241081   5.641   5.736   4.301
13714TIP3   OH241082   0.478   4.679   5.717
13714TIP3    H141083   0.571   4.703   5.716
13714TIP3    H241084   0.470   4.619   5.792
13715TIP3   OH241085   6.840   3.938   6.755
13715TIP3    H141086   6.810   3.885   6.828
13715TIP3    H241087   6.881   4.014   6.795
13716TIP3   OH241088   4.571   3.732   0.832
13716TIP3    H141089   4.642   3.790   0.859
13716TIP3    H241090   4.607   3.682   0.758
13717TIP3   OH241091   5.012   2.027   6.067
13717TIP3    H141092   4.989   1.936   6.086
13717TIP3    H241093   5.012   2.070   6.152
13718TIP3   OH241094   5.838   5.917   3.785
13718TIP3    H141095   5.912   5.969   3.755
13718TIP3    H241096   5.768   5.980   3.799
13719TIP3   OH241097   6.436   7.619   0.657
13719TIP3    H141098   6.519   7.658   0.685
13719TIP3    H241099   6.391   7.597   0.738
13720TIP3   OH241100   0.151   5.718   1.772
13720TIP3    H141101   0.155   5.660   1.847
13720TIP3    H241102   0.064   5.759   1.777
13721TIP3   OH241103   7.311   2.900   4.276
13721TIP3    H141104   7.266   2.838   4.219
13721TIP3    H241105   7.262   2.897   4.358
13722TIP3   OH241106   6.621   6.438   0.536
13722TIP3    H141107   6.664   6.453   0.620
13722TIP3    H241108   6.555   6.507   0.530
13723TIP3   OH241109   3.436   6.582   0.426
13723TIP3    H141110   3.452   6.611   0.516
13723TIP3    H241111   3.458   6.658   0.372
13724TIP3   OH241112   3.970   6.806   0.828
13724TIP3    H141113   3.944   6.798   0.736
13724TIP3    H241114   4.023   6.886   0.830
13725TIP3   OH241115   2.177   0.426   4.414
13725TIP3    H141116   2.223   0.412   4.497
13725TIP3    H241117   2.116   0.498   4.433
13726TIP3   OH241118   1.908   7.772   2.485
13726TIP3    H141119   1.853   7.769   2.563
13726TIP3    H241120   1.977   7.707   2.500
13727TIP3   OH241121   3.517   2.199   1.104
13727TIP3    H141122   3.433   2.236   1.131
13727TIP3    H241123   3.574   2.211   1.179
13728TIP3   OH241124   1.314   4.857   2.877
13728TIP3    H141125   1.405   4.863   2.907
13728TIP3    H241126   1.322   4.836   2.784
13729TIP3   OH241127   3.225   7.020   1.982
13729TIP3    H141128   3.196   7.046   1.894
13729TIP3    H241129   3.196   7.091   2.039
13730TIP3   OH241130   8.155   0.539   1.586
13730TIP3    H141131   8.152   0.446   1.564
13730TIP3    H241132   8.144   0.583   1.502
13731TIP3   OH241133   6.988   2.839   0.080
13731TIP3    H141134   7.011   2.913   0.025
13731TIP3    H241135   6.935   2.877   0.151
13732TIP3   OH241136   5.466   5.638   5.173
13732TIP3    H141137   5.456   5.591   5.090
13732TIP3    H241138   5.448   5.730   5.151
13733TIP3   OH241139   0.388   4.518   2.519
13733TIP3    H141140   0.300   4.491   2.496
13733TIP3    H241141   0.377   4.578   2.593
13734TIP3   OH241142   1.572   6.352   4.915
13734TIP3    H141143   1.486   6.361   4.874
13734TIP3    H241144   1.628   6.321   4.844
13735TIP3   OH241145   1.810   2.985   6.148
13735TIP3    H141146   1.786   3.076   6.132
13735TIP3    H241147   1.860   2.987   6.230
13736TIP3   OH241148   6.389   5.046   4.666
13736TIP3    H141149   6.339   5.001   4.734
13736TIP3    H241150   6.474   5.063   4.706
13737TIP3   OH241151   7.049   6.342   4.512
13737TIP3    H141152   7.074   6.329   4.420
13737TIP3    H241153   6.979   6.278   4.527
13738TIP3   OH241154   0.779   0.994   2.921
13738TIP3    H141155   0.785   0.996   3.017
13738TIP3    H241156   0.813   1.079   2.893
13739TIP3   OH241157   2.362   4.401   5.655
13739TIP3    H141158   2.314   4.366   5.580
13739TIP3    H241159   2.444   4.433   5.618
13740TIP3   OH241160   2.497   4.197   4.548
13740TIP3    H141161   2.403   4.209   4.555
13740TIP3    H241162   2.521   4.238   4.465
13741TIP3   OH241163   8.299   2.682   3.056
13741TIP3    H141164   8.231   2.707   3.118
13741TIP3    H241165   8.299   2.753   2.992
13742TIP3   OH241166   5.183   0.345   0.869
13742TIP3    H141167   5.166   0.280   0.937
13742TIP3    H241168   5.125   0.419   0.891
13743TIP3   OH241169   7.993   3.304   6.380
13743TIP3    H141170   7.909   3.262   6.360
13743TIP3    H241171   8.058   3.243   6.345
13744TIP3   OH241172   7.227   3.648   6.430
13744TIP3    H141173   7.132   3.662   6.435
13744TIP3    H241174   7.245   3.640   6.336
13745TIP3   OH241175   1.951   4.300   2.951
13745TIP3    H141176   1.959   4.299   2.856
13745TIP3    H241177   1.998   4.222   2.980
13746TIP3   OH241178   4.141   3.748   1.412
13746TIP3    H141179   4.100   3.780   1.331
13746TIP3    H241180   4.085   3.675   1.439
13747TIP3   OH241181   1.580   3.021   3.748
13747TIP3    H141182   1.544   2.946   3.796
13747TIP3    H241183   1.673   3.021   3.770
13748TIP3   OH241184   4.081   6.941   0.274
13748TIP3    H141185   4.082   7.004   0.346
13748TIP3    H241186   3.997   6.896   0.283
13749TIP3   OH241187   6.086   3.969   0.686
13749TIP3    H141188   6.139   3.890   0.677
13749TIP3    H241189   6.109   4.022   0.609
13750TIP3   OH241190   0.355   4.270   1.868
13750TIP3    H141191   0.390   4.196   1.918
13750TIP3    H241192   0.376   4.347   1.920
13751TIP3   OH241193   6.731   5.484   1.807
13751TIP3    H141194   6.729   5.454   1.898
13751TIP3    H241195   6.641   5.479   1.777
13752TIP3   OH241196   1.615   7.068   6.641
13752TIP3    H141197   1.663   7.138   6.597
13752TIP3    H241198   1.681   7.000   6.655
13753TIP3   OH241199   5.661   6.800   5.546
13753TIP3    H141200   5.585   6.801   5.604
13753TIP3    H241201   5.637   6.742   5.474
13754TIP3   OH241202   6.624   2.962   2.982
13754TIP3    H141203   6.639   3.023   3.054
13754TIP3    H241204   6.636   3.016   2.903
13755TIP3   OH241205   6.985   2.909   5.172
13755TIP3    H141206   6.971   2.939   5.262
13755TIP3    H241207   6.990   2.813   5.180
13756TIP3   OH241208   1.570   1.808   2.390
13756TIP3    H141209   1.639   1.864   2.424
13756TIP3    H241210   1.506   1.868   2.351
13757TIP3   OH241211   6.626   4.563   5.079
13757TIP3    H141212   6.706   4.580   5.129
13757TIP3    H241213   6.562   4.536   5.144
13758TIP3   OH241214   7.426   7.672   5.125
13758TIP3    H141215   7.498   7.725   5.089
13758TIP3    H241216   7.381   7.638   5.047
13759TIP3   OH241217   3.680   1.292   5.295
13759TIP3    H141218   3.733   1.261   5.222
13759TIP3    H241219   3.602   1.237   5.293
13760TIP3   OH241220   3.222   6.805   4.410
13760TIP3    H141221   3.250   6.897   4.410
13760TIP3    H241222   3.240   6.775   4.321
13761TIP3   OH241223   4.836   1.952   4.158
13761TIP3    H141224   4.820   1.950   4.063
13761TIP3    H241225   4.926   1.922   4.168
13762TIP3   OH241226   4.601   1.677   6.569
13762TIP3    H141227   4.527   1.737   6.574
13762TIP3    H241228   4.678   1.733   6.568
13763TIP3   OH241229   6.415   2.340   3.038
13763TIP3    H141230   6.354   2.335   3.112
13763TIP3    H241231   6.401   2.427   3.001
13764TIP3   OH241232   3.611   4.357   5.681
13764TIP3    H141233   3.662   4.305   5.619
13764TIP3    H241234   3.605   4.444   5.640
13765TIP3   OH241235   0.358   5.442   1.675
13765TIP3    H141236   0.358   5.349   1.653
13765TIP3    H241237   0.283   5.478   1.626
13766TIP3   OH241238   0.876   5.643   6.655
13766TIP3    H141239   0.893   5.678   6.567
13766TIP3    H241240   0.811   5.703   6.692
13767TIP3   OH241241   3.063   7.244   4.209
13767TIP3    H141242   3.001   7.173   4.227
13767TIP3    H241243   3.138   7.226   4.266
13768TIP3   OH241244   5.045   0.366   0.258
13768TIP3    H141245   5.059   0.460   0.269
13768TIP3    H241246   5.004   0.358   0.172
13769TIP3   OH241247   3.707   3.864   6.644
13769TIP3    H141248   3.798   3.844   6.668
13769TIP3    H241249   3.713   3.901   6.556
13770TIP3   OH241250   2.235   3.502   5.127
13770TIP3    H141251   2.168   3.457   5.177
13770TIP3    H241252   2.272   3.435   5.070
13771TIP3   OH241253   5.818   0.040   2.288
13771TIP3    H141254   5.849   0.122   2.326
13771TIP3    H241255   5.764   0.001   2.357
13772TIP3   OH241256   4.480   3.019   1.622
13772TIP3    H141257   4.420   2.947   1.602
13772TIP3    H241258   4.470   3.033   1.716
13773TIP3   OH241259   0.525   7.125   0.693
13773TIP3    H141260   0.501   7.035   0.675
13773TIP3    H241261   0.445   7.175   0.677
13774TIP3   OH241262   3.524   1.356   2.978
13774TIP3    H141263   3.450   1.413   2.957
13774TIP3    H241264   3.491   1.301   3.049
13775TIP3   OH241265   6.721   4.397   0.578
13775TIP3    H141266   6.753   4.486   0.593
13775TIP3    H241267   6.766   4.369   0.498
13776TIP3   OH241268   7.422   4.930   6.089
13776TIP3    H141269   7.464   4.976   6.016
13776TIP3    H241270   7.328   4.939   6.072
13777TIP3   OH241271   0.031   1.635   5.975
13777TIP3    H141272   0.117   1.672   5.993
13777TIP3    H241273   0.041   1.590   5.891
13778TIP3   OH241274   4.995   5.379   6.863
13778TIP3    H141275   5.044   5.436   6.803
13778TIP3    H241276   4.929   5.337   6.808
13779TIP3   OH241277   5.625   5.949   1.499
13779TIP3    H141278   5.652   5.978   1.587
13779TIP3    H241279   5.640   5.854   1.500
13780TIP3   OH241280   8.076   0.339   1.936
13780TIP3    H141281   8.105   0.421   1.894
13780TIP3    H241282   8.115   0.343   2.023
13781TIP3   OH241283   7.242   6.408   1.999
13781TIP3    H141284   7.184   6.334   2.017
13781TIP3    H241285   7.207   6.479   2.052
13782TIP3   OH241286   3.663   0.687   1.948
13782TIP3    H141287   3.649   0.719   2.037
13782TIP3    H241288   3.646   0.763   1.892
13783TIP3   OH241289   4.495   3.568   0.356
13783TIP3    H141290   4.439   3.515   0.413
13783TIP3    H241291   4.559   3.607   0.415
13784TIP3   OH241292   4.990   4.474   1.174
13784TIP3    H141293   4.938   4.541   1.218
13784TIP3    H241294   5.032   4.426   1.245
13785TIP3   OH241295   2.696   4.034   2.454
13785TIP3    H141296   2.758   3.985   2.399
13785TIP3    H241297   2.622   4.053   2.396
13786TIP3   OH241298   3.066   5.708   4.247
13786TIP3    H141299   3.004   5.667   4.186
13786TIP3    H241300   3.106   5.779   4.196
13787TIP3   OH241301   6.322   1.160   2.282
13787TIP3    H141302   6.307   1.192   2.193
13787TIP3    H241303   6.257   1.090   2.293
13788TIP3   OH241304   2.796   4.762   5.356
13788TIP3    H141305   2.773   4.809   5.437
13788TIP3    H241306   2.837   4.681   5.386
13789TIP3   OH241307   1.803   1.285   2.670
13789TIP3    H141308   1.869   1.243   2.726
13789TIP3    H241309   1.739   1.320   2.732
13790TIP3   OH241310   6.842   3.258   5.691
13790TIP3    H141311   6.878   3.170   5.698
13790TIP3    H241312   6.868   3.287   5.603
13791TIP3   OH241313   3.148   6.764   1.832
13791TIP3    H141314   3.077   6.786   1.771
13791TIP3    H241315   3.111   6.784   1.919
13792TIP3   OH241316   2.302   0.376   4.198
13792TIP3    H141317   2.350   0.299   4.229
13792TIP3    H241318   2.250   0.404   4.274
13793TIP3   OH241319   3.181   1.093   5.010
13793TIP3    H141320   3.228   1.045   5.078
13793TIP3    H241321   3.164   1.179   5.048
13794TIP3   OH241322   6.570   6.533   3.357
13794TIP3    H141323   6.661   6.549   3.382
13794TIP3    H241324   6.531   6.495   3.436
13795TIP3   OH241325   2.569   0.703   3.023
13795TIP3    H141326   2.620   0.684   2.945
13795TIP3    H241327   2.582   0.797   3.038
13796TIP3   OH241328   1.043   5.595   4.917
13796TIP3    H141329   0.965   5.649   4.933
13796TIP3    H241330   1.088   5.593   5.001
13797TIP3   OH241331   1.831   1.523   6.603
13797TIP3    H141332   1.856   1.580   6.676
13797TIP3    H241333   1.742   1.496   6.623
13798TIP3   OH241334   5.044   4.183   1.906
13798TIP3    H141335   5.090   4.223   1.832
13798TIP3    H241336   5.114   4.155   1.965
13799TIP3   OH241337   6.840   0.214   1.997
13799TIP3    H141338   6.888   0.297   1.994
13799TIP3    H241339   6.821   0.195   1.905
13800TIP3   OH241340   6.447   6.231   4.468
13800TIP3    H141341   6.506   6.172   4.515
13800TIP3    H241342   6.505   6.290   4.420
13801TIP3   OH241343   0.048   3.612   2.851
13801TIP3    H141344  -0.048   3.612   2.846
13801TIP3    H241345   0.076   3.610   2.760
13802TIP3   OH241346   4.358   4.255   5.619
13802TIP3    H141347   4.319   4.334   5.656
13802TIP3    H241348   4.380   4.279   5.529
13803TIP3   OH241349   5.205   0.730   0.737
13803TIP3    H141350   5.247   0.648   0.711
13803TIP3    H241351   5.211   0.730   0.832
13804TIP3   OH241352   3.520   3.878   2.421
13804TIP3    H141353   3.594   3.820   2.403
13804TIP3    H241354   3.448   3.842   2.370
13805TIP3   OH241355   5.806   4.111   1.200
13805TIP3    H141356   5.736   4.074   1.145
13805TIP3    H241357   5.887   4.076   1.163
13806TIP3   OH241358   5.057   2.859   3.404
13806TIP3    H141359   5.063   2.846   3.498
13806TIP3    H241360   4.996   2.792   3.373
13807TIP3   OH241361   4.196   3.164   5.161
13807TIP3    H141362   4.112   3.154   5.207
13807TIP3    H241363   4.258   3.186   5.231
13808TIP3   OH241364   0.265   6.000   2.522
13808TIP3    H141365   0.189   5.948   2.547
13808TIP3    H241366   0.258   6.080   2.575
13809TIP3   OH241367   4.356   3.535   1.740
13809TIP3    H141368   4.269   3.532   1.779
13809TIP3    H241369   4.369   3.446   1.705
13810TIP3   OH241370   0.077   6.265   2.612
13810TIP3    H141371   0.112   6.352   2.595
13810TIP3    H241372   0.028   6.243   2.533
13811TIP3   OH241373   4.098   6.962   2.398
13811TIP3    H141374   4.025   6.925   2.347
13811TIP3    H241375   4.074   6.947   2.489
13812TIP3   OH241376   0.931   0.308   2.447
13812TIP3    H141377   0.909   0.370   2.378
13812TIP3    H241378   0.928   0.222   2.404
13813TIP3   OH241379   7.036   2.320   1.679
13813TIP3    H141380   7.064   2.395   1.626
13813TIP3    H241381   7.002   2.257   1.615
13814TIP3   OH241382   5.395   4.198   3.672
13814TIP3    H141383   5.380   4.116   3.720
13814TIP3    H241384   5.370   4.178   3.582
13815TIP3   OH241385   5.660   4.763   1.563
13815TIP3    H141386   5.586   4.729   1.513
13815TIP3    H241387   5.644   4.857   1.569
13816TIP3   OH241388   8.239   6.630   5.629
13816TIP3    H141389   8.216   6.608   5.719
13816TIP3    H241390   8.156   6.658   5.589
13817TIP3   OH241391   2.554   2.145   2.215
13817TIP3    H141392   2.599   2.229   2.213
13817TIP3    H241393   2.595   2.097   2.287
13818TIP3   OH241394   6.793   1.617   5.675
13818TIP3    H141395   6.844   1.626   5.595
13818TIP3    H241396   6.735   1.542   5.659
13819TIP3   OH241397   7.723   5.776   4.240
13819TIP3    H141398   7.691   5.802   4.327
13819TIP3    H241399   7.643   5.769   4.187
13820TIP3   OH241400   2.004   5.385   6.000
13820TIP3    H141401   2.094   5.373   5.970
13820TIP3    H241402   1.996   5.479   6.017
13821TIP3   OH241403   7.711   0.321   2.542
13821TIP3    H141404   7.677   0.250   2.595
13821TIP3    H241405   7.724   0.393   2.603
13822TIP3   OH241406   7.904   6.184   1.461
13822TIP3    H141407   7.914   6.279   1.452
13822TIP3    H241408   7.988   6.155   1.497
13823TIP3   OH241409   1.460   3.651   2.025
13823TIP3    H141410   1.368   3.672   2.040
13823TIP3    H241411   1.492   3.621   2.110
13824TIP3   OH241412   6.952   1.662   3.173
13824TIP3    H141413   6.859   1.639   3.183
13824TIP3    H241414   6.951   1.757   3.160
13825TIP3   OH241415   6.010   0.918   3.347
13825TIP3    H141416   6.011   0.885   3.257
13825TIP3    H241417   6.020   0.840   3.402
13826TIP3   OH241418   7.018   5.996   2.922
13826TIP3    H141419   7.026   6.030   2.833
13826TIP3    H241420   7.092   5.936   2.931
13827TIP3   OH241421   7.540   4.473   3.259
13827TIP3    H141422   7.560   4.553   3.212
13827TIP3    H241423   7.607   4.469   3.328
13828TIP3   OH241424   7.883   4.071   2.831
13828TIP3    H141425   7.817   4.141   2.828
13828TIP3    H241426   7.853   4.007   2.766
13829TIP3   OH241427   2.251   4.114   4.925
13829TIP3    H141428   2.164   4.155   4.916
13829TIP3    H241429   2.235   4.036   4.978
13830TIP3   OH241430   0.995   3.025   5.578
13830TIP3    H141431   0.999   2.944   5.526
13830TIP3    H241432   0.939   3.083   5.527
13831TIP3   OH241433   3.688   3.862   5.219
13831TIP3    H141434   3.706   3.839   5.128
13831TIP3    H241435   3.597   3.894   5.219
13832TIP3   OH241436   7.205   2.407   6.364
13832TIP3    H141437   7.159   2.404   6.280
13832TIP3    H241438   7.294   2.437   6.341
13833TIP3   OH241439   6.006   4.484   5.139
13833TIP3    H141440   6.064   4.559   5.126
13833TIP3    H241441   6.063   4.413   5.168
13834TIP3   OH241442   3.047   0.853   3.992
13834TIP3    H141443   3.075   0.941   4.014
13834TIP3    H241444   3.071   0.800   4.068
13835TIP3   OH241445   4.394   2.237   6.051
13835TIP3    H141446   4.481   2.202   6.070
13835TIP3    H241447   4.388   2.317   6.103
13836TIP3   OH241448   7.070   0.200   1.555
13836TIP3    H141449   7.059   0.259   1.630
13836TIP3    H241450   7.161   0.211   1.529
13837TIP3   OH241451   2.172   0.545   1.833
13837TIP3    H141452   2.106   0.493   1.786
13837TIP3    H241453   2.177   0.503   1.919
13838TIP3   OH241454   7.036   0.625   6.052
13838TIP3    H141455   7.130   0.633   6.064
13838TIP3    H241456   6.998   0.665   6.130
13839TIP3   OH241457   0.607   0.215   3.294
13839TIP3    H141458   0.552   0.290   3.270
13839TIP3    H241459   0.556   0.168   3.360
13840TIP3   OH241460   6.752   5.011   6.005
13840TIP3    H141461   6.781   5.054   6.085
13840TIP3    H241462   6.832   4.977   5.965
13841TIP3   OH241463   6.192   1.065   0.468
13841TIP3    H141464   6.148   1.127   0.410
13841TIP3    H241465   6.131   0.992   0.476
13842TIP3   OH241466   0.779   3.655   5.118
13842TIP3    H141467   0.738   3.602   5.050
13842TIP3    H241468   0.732   3.738   5.117
13843TIP3   OH241469   0.305   6.103   1.537
13843TIP3    H141470   0.358   6.037   1.492
13843TIP3    H241471   0.349   6.116   1.620
13844TIP3   OH241472   6.100   0.567   1.697
13844TIP3    H141473   6.013   0.545   1.662
13844TIP3    H241474   6.144   0.611   1.624
13845TIP3   OH241475   7.697   4.614   0.339
13845TIP3    H141476   7.658   4.642   0.422
13845TIP3    H241477   7.754   4.541   0.362
13846TIP3   OH241478   1.488   5.716   0.552
13846TIP3    H141479   1.529   5.770   0.484
13846TIP3    H241480   1.558   5.701   0.615
13847TIP3   OH241481   7.711   7.178   0.301
13847TIP3    H141482   7.639   7.150   0.246
13847TIP3    H241483   7.776   7.214   0.240
13848TIP3   OH241484   5.416   7.531   2.912
13848TIP3    H141485   5.396   7.462   2.975
13848TIP3    H241486   5.342   7.530   2.851
13849TIP3   OH241487   2.391   0.651   2.764
13849TIP3    H141488   2.457   0.586   2.789
13849TIP3    H241489   2.333   0.604   2.704
13850TIP3   OH241490   1.095   2.490   4.050
13850TIP3    H141491   1.073   2.403   4.016
13850TIP3    H241492   1.062   2.550   3.983
13851TIP3   OH241493   6.373   3.038   5.017
13851TIP3    H141494   6.295   3.004   5.061
13851TIP3    H241495   6.345   3.053   4.927
13852TIP3   OH241496   2.745   1.085   5.890
13852TIP3    H141497   2.801   1.146   5.939
13852TIP3    H241498   2.688   1.046   5.957
13853TIP3   OH241499   2.534   1.003   5.500
13853TIP3    H141500   2.606   1.064   5.520
13853TIP3    H241501   2.485   0.996   5.581
13854TIP3   OH241502   4.158   6.230   4.394
13854TIP3    H141503   4.185   6.226   4.486
13854TIP3    H241504   4.188   6.147   4.357
13855TIP3   OH241505   5.965   3.105   3.526
13855TIP3    H141506   5.985   3.014   3.504
13855TIP3    H241507   5.944   3.103   3.619
13856TIP3   OH241508   4.483   6.397   0.962
13856TIP3    H141509   4.448   6.451   0.890
13856TIP3    H241510   4.456   6.308   0.940
13857TIP3   OH241511   1.482   5.543   6.365
13857TIP3    H141512   1.399   5.574   6.329
13857TIP3    H241513   1.544   5.548   6.291
13858TIP3   OH241514   4.734   3.591   0.663
13858TIP3    H141515   4.804   3.598   0.598
13858TIP3    H241516   4.728   3.497   0.681
13859TIP3   OH241517   7.666   1.634   5.941
13859TIP3    H141518   7.595   1.685   5.980
13859TIP3    H241519   7.636   1.543   5.948
13860TIP3   OH241520   0.630   4.974   2.080
13860TIP3    H141521   0.639   4.967   1.985
13860TIP3    H241522   0.706   5.024   2.109
13861TIP3   OH241523   5.235   5.740   3.426
13861TIP3    H141524   5.214   5.647   3.441
13861TIP3    H241525   5.329   5.746   3.440
13862TIP3   OH241526   5.994   7.329   2.076
13862TIP3    H141527   5.934   7.397   2.105
13862TIP3    H241528   5.947   7.247   2.089
13863TIP3   OH241529   7.976   2.207   4.193
13863TIP3    H141530   8.042   2.139   4.182
13863TIP3    H241531   8.020   2.288   4.164
13864TIP3   OH241532   6.971   5.314   1.808
13864TIP3    H141533   6.885   5.354   1.795
13864TIP3    H241534   7.013   5.321   1.723
13865TIP3   OH241535   1.812   2.296   6.115
13865TIP3    H141536   1.859   2.368   6.157
13865TIP3    H241537   1.880   2.230   6.100
13866TIP3   OH241538   0.888   4.275   4.090
13866TIP3    H141539   0.869   4.262   3.998
13866TIP3    H241540   0.972   4.231   4.104
13867TIP3   OH241541   2.114   2.665   1.077
13867TIP3    H141542   2.200   2.660   1.119
13867TIP3    H241543   2.129   2.633   0.988
13868TIP3   OH241544   5.299   5.484   3.571
13868TIP3    H141545   5.378   5.435   3.594
13868TIP3    H241546   5.286   5.545   3.643
13869TIP3   OH241547   3.085   5.444   2.979
13869TIP3    H141548   3.074   5.526   3.027
13869TIP3    H241549   3.138   5.467   2.903
13870TIP3   OH241550   0.641   6.767   2.995
13870TIP3    H141551   0.709   6.825   3.029
13870TIP3    H241552   0.679   6.726   2.918
13871TIP3   OH241553   5.091   4.776   1.724
13871TIP3    H141554   5.058   4.692   1.754
13871TIP3    H241555   5.059   4.783   1.634
13872TIP3   OH241556   8.239   3.769   0.993
13872TIP3    H141557   8.255   3.789   1.086
13872TIP3    H241558   8.306   3.818   0.946
13873TIP3   OH241559   6.885   5.793   2.039
13873TIP3    H141560   6.915   5.880   2.063
13873TIP3    H241561   6.965   5.742   2.025
13874TIP3   OH241562   5.609   5.398   2.995
13874TIP3    H141563   5.677   5.363   2.938
13874TIP3    H241564   5.580   5.323   3.048
13875TIP3   OH241565   7.319   3.328   0.144
13875TIP3    H141566   7.369   3.249   0.164
13875TIP3    H241567   7.228   3.304   0.160
13876TIP3   OH241568   1.446   5.835   0.989
13876TIP3    H141569   1.362   5.874   1.009
13876TIP3    H241570   1.474   5.879   0.908
13877TIP3   OH241571   6.938   2.615   5.602
13877TIP3    H141572   6.851   2.608   5.564
13877TIP3    H241573   6.964   2.705   5.586
13878TIP3   OH241574   3.561   5.203   3.757
13878TIP3    H141575   3.566   5.147   3.680
13878TIP3    H241576   3.624   5.165   3.819
13879TIP3   OH241577   4.209   1.786   5.623
13879TIP3    H141578   4.203   1.728   5.547
13879TIP3    H241579   4.299   1.819   5.622
13880TIP3   OH241580   0.875   1.286   3.576
13880TIP3    H141581   0.822   1.338   3.515
13880TIP3    H241582   0.933   1.349   3.618
13881TIP3   OH241583   3.202   3.882   0.238
13881TIP3    H141584   3.284   3.848   0.274
13881TIP3    H241585   3.218   3.890   0.144
13882TIP3   OH241586   1.672   6.445   1.872
13882TIP3    H141587   1.625   6.466   1.953
13882TIP3    H241588   1.754   6.495   1.878
13883TIP3   OH241589   1.250   4.181   1.983
13883TIP3    H141590   1.250   4.140   2.069
13883TIP3    H241591   1.200   4.121   1.928
13884TIP3   OH241592   4.979   6.179   1.223
13884TIP3    H141593   5.027   6.096   1.220
13884TIP3    H241594   4.925   6.173   1.301
13885TIP3   OH241595   1.912   2.014   3.106
13885TIP3    H141596   1.835   1.962   3.082
13885TIP3    H241597   1.956   1.963   3.174
13886TIP3   OH241598   0.133   4.773   2.530
13886TIP3    H141599   0.185   4.813   2.600
13886TIP3    H241600   0.046   4.812   2.540
13887TIP3   OH241601   3.782   3.958   2.101
13887TIP3    H141602   3.705   4.010   2.079
13887TIP3    H241603   3.805   3.985   2.190
13888TIP3   OH241604   4.946   6.979   5.835
13888TIP3    H141605   4.879   6.974   5.903
13888TIP3    H241606   5.019   6.928   5.869
13889TIP3   OH241607   5.809   3.992   0.599
13889TIP3    H141608   5.820   4.081   0.567
13889TIP3    H241609   5.887   3.975   0.651
13890TIP3   OH241610   6.860   5.970   4.070
13890TIP3    H141611   6.882   6.050   4.023
13890TIP3    H241612   6.892   5.900   4.013
13891TIP3   OH241613   7.026   4.000   3.801
13891TIP3    H141614   7.050   3.967   3.714
13891TIP3    H241615   7.053   4.092   3.800
13892TIP3   OH241616   4.684   6.324   0.285
13892TIP3    H141617   4.714   6.362   0.202
13892TIP3    H241618   4.728   6.377   0.352
13893TIP3   OH241619   5.151   3.103   2.698
13893TIP3    H141620   5.245   3.110   2.715
13893TIP3    H241621   5.141   3.120   2.605
13894TIP3   OH241622   7.235   0.838   6.142
13894TIP3    H141623   7.185   0.872   6.067
13894TIP3    H241624   7.188   0.870   6.219
13895TIP3   OH241625   0.040   6.184   1.669
13895TIP3    H141626   0.017   6.252   1.606
13895TIP3    H241627   0.111   6.136   1.628
13896TIP3   OH241628   5.421   2.625   5.975
13896TIP3    H141629   5.359   2.699   5.976
13896TIP3    H241630   5.462   2.629   5.889
13897TIP3   OH241631   3.119   2.137   6.167
13897TIP3    H141632   3.067   2.165   6.242
13897TIP3    H241633   3.175   2.067   6.202
13898TIP3   OH241634   0.646   3.396   1.081
13898TIP3    H141635   0.584   3.345   1.030
13898TIP3    H241636   0.728   3.348   1.075
13899TIP3   OH241637   3.032   1.680   1.874
13899TIP3    H141638   3.076   1.761   1.848
13899TIP3    H241639   3.062   1.615   1.811
13900TIP3   OH241640   5.343   7.524   0.983
13900TIP3    H141641   5.422   7.474   0.964
13900TIP3    H241642   5.309   7.549   0.898
13901TIP3   OH241643   7.524   1.034   1.378
13901TIP3    H141644   7.589   1.007   1.443
13901TIP3    H241645   7.557   1.117   1.344
13902TIP3   OH241646   1.391   2.961   1.864
13902TIP3    H141647   1.400   2.973   1.769
13902TIP3    H241648   1.367   2.868   1.873
13903TIP3   OH241649   8.168   3.957   2.268
13903TIP3    H141650   8.126   3.883   2.224
13903TIP3    H241651   8.235   3.986   2.205
13904TIP3   OH241652   3.588   5.607   5.499
13904TIP3    H141653   3.562   5.631   5.587
13904TIP3    H241654   3.507   5.610   5.448
13905TIP3   OH241655   3.454   7.227   2.531
13905TIP3    H141656   3.405   7.307   2.513
13905TIP3    H241657   3.531   7.234   2.474
13906TIP3   OH241658   0.545   0.392   3.651
13906TIP3    H141659   0.527   0.442   3.571
13906TIP3    H241660   0.552   0.459   3.719
13907TIP3   OH241661   7.570   5.390   3.210
13907TIP3    H141662   7.522   5.362   3.132
13907TIP3    H241663   7.509   5.375   3.283
13908TIP3   OH241664   1.930   7.003   4.976
13908TIP3    H141665   1.938   7.096   4.996
13908TIP3    H241666   2.008   6.963   5.014
13909TIP3   OH241667   4.623   2.358   2.507
13909TIP3    H141668   4.626   2.333   2.414
13909TIP3    H241669   4.708   2.398   2.524
13910TIP3   OH241670   2.562   1.188   6.254
13910TIP3    H141671   2.478   1.141   6.262
13910TIP3    H241672   2.625   1.120   6.230
13911TIP3   OH241673   3.409   7.166   1.129
13911TIP3    H141674   3.394   7.208   1.044
13911TIP3    H241675   3.322   7.133   1.154
13912TIP3   OH241676   7.472   5.511   5.720
13912TIP3    H141677   7.448   5.587   5.666
13912TIP3    H241678   7.422   5.439   5.684
13913TIP3   OH241679   6.438   5.659   2.377
13913TIP3    H141680   6.512   5.657   2.317
13913TIP3    H241681   6.392   5.740   2.355
13914TIP3   OH241682   5.663   3.937   4.657
13914TIP3    H141683   5.611   3.857   4.670
13914TIP3    H241684   5.676   3.943   4.562
13915TIP3   OH241685   1.963   1.964   2.631
13915TIP3    H141686   2.045   1.933   2.667
13915TIP3    H241687   1.975   1.960   2.536
13916TIP3   OH241688   2.595   7.667   4.360
13916TIP3    H141689   2.684   7.675   4.396
13916TIP3    H241690   2.594   7.726   4.285
13917TIP3   OH241691   2.846   3.069   5.109
13917TIP3    H141692   2.760   3.097   5.080
13917TIP3    H241693   2.902   3.145   5.097
13918TIP3   OH241694   0.195   0.092   4.820
13918TIP3    H141695   0.241   0.044   4.889
13918TIP3    H241696   0.119   0.130   4.864
13919TIP3   OH241697   4.718   5.919   6.825
13919TIP3    H141698   4.711   5.831   6.863
13919TIP3    H241699   4.726   5.977   6.901
13920TIP3   OH241700   3.474   7.754   0.162
13920TIP3    H141701   3.409   7.685   0.157
13920TIP3    H241702   3.545   7.717   0.213
13921TIP3   OH241703   6.096   6.684   4.484
13921TIP3    H141704   6.054   6.723   4.407
13921TIP3    H241705   6.186   6.666   4.455
13922TIP3   OH241706   2.192   1.181   3.350
13922TIP3    H141707   2.192   1.198   3.256
13922TIP3    H241708   2.116   1.227   3.384
13923TIP3   OH241709   2.339   4.005   6.252
13923TIP3    H141710   2.269   4.009   6.187
13923TIP3    H241711   2.411   3.962   6.206
13924TIP3   OH241712   3.763   2.832   5.619
13924TIP3    H141713   3.756   2.756   5.678
13924TIP3    H241714   3.766   2.794   5.531
13925TIP3   OH241715   7.510   5.359   0.328
13925TIP3    H141716   7.573   5.383   0.395
13925TIP3    H241717   7.514   5.264   0.323
13926TIP3   OH241718   4.137   3.091   6.165
13926TIP3    H141719   4.164   3.041   6.088
13926TIP3    H241720   4.208   3.076   6.228
13927TIP3   OH241721   4.385   7.516   2.902
13927TIP3    H141722   4.425   7.591   2.857
13927TIP3    H241723   4.354   7.552   2.985
13928TIP3   OH241724   6.460   0.809   2.921
13928TIP3    H141725   6.550   0.837   2.939
13928TIP3    H241726   6.408   0.852   2.989
13929TIP3   OH241727   2.149   1.057   2.411
13929TIP3    H141728   2.162   1.144   2.449
13929TIP3    H241729   2.184   0.996   2.477
13930TIP3   OH241730   7.590   5.735   2.805
13930TIP3    H141731   7.564   5.799   2.871
13930TIP3    H241732   7.653   5.781   2.750
13931TIP3   OH241733   6.816   0.632   2.556
13931TIP3    H141734   6.893   0.606   2.506
13931TIP3    H241735   6.812   0.569   2.628
13932TIP3   OH241736   6.994   0.016   5.528
13932TIP3    H141737   7.061  -0.044   5.562
13932TIP3    H241738   7.044   0.089   5.492
13933TIP3   OH241739   4.929   4.631   2.480
13933TIP3    H141740   4.985   4.701   2.513
13933TIP3    H241741   4.956   4.619   2.389
13934TIP3   OH241742   1.625   6.902   4.645
13934TIP3    H141743   1.609   6.934   4.733
13934TIP3    H241744   1.707   6.943   4.619
13935TIP3   OH241745   4.278   6.933   3.898
13935TIP3    H141746   4.217   6.892   3.836
13935TIP3    H241747   4.362   6.932   3.854
13936TIP3   OH241748   2.669   5.283   0.013
13936TIP3    H141749   2.585   5.241   0.032
13936TIP3    H241750   2.685   5.341   0.088
13937TIP3   OH241751   7.186   5.268   4.808
13937TIP3    H141752   7.195   5.352   4.853
13937TIP3    H241753   7.244   5.275   4.732
13938TIP3   OH241754   1.564   2.182   0.836
13938TIP3    H141755   1.621   2.126   0.782
13938TIP3    H241756   1.601   2.270   0.827
13939TIP3   OH241757   8.213   2.485   0.755
13939TIP3    H141758   8.293   2.516   0.713
13939TIP3    H241759   8.145   2.546   0.725
13940TIP3   OH241760   8.295   0.676   4.976
13940TIP3    H141761   8.356   0.681   4.902
13940TIP3    H241762   8.320   0.748   5.033
13941TIP3   OH241763   4.290   4.708   0.869
13941TIP3    H141764   4.275   4.748   0.784
13941TIP3    H241765   4.203   4.698   0.907
13942TIP3   OH241766   6.248   6.531   2.259
13942TIP3    H141767   6.192   6.461   2.293
13942TIP3    H241768   6.215   6.547   2.170
13943TIP3   OH241769   0.942   1.475   1.796
13943TIP3    H141770   1.035   1.480   1.817
13943TIP3    H241771   0.921   1.562   1.762
13944TIP3   OH241772   0.558   4.084   1.294
13944TIP3    H141773   0.549   4.009   1.353
13944TIP3    H241774   0.482   4.138   1.312
13945TIP3   OH241775   6.239   5.417   0.420
13945TIP3    H141776   6.323   5.390   0.382
13945TIP3    H241777   6.242   5.513   0.420
13946TIP3   OH241778   5.243   1.559   3.656
13946TIP3    H141779   5.264   1.471   3.623
13946TIP3    H241780   5.320   1.611   3.632
13947TIP3   OH241781   2.485   3.515   6.855
13947TIP3    H141782   2.428   3.466   6.796
13947TIP3    H241783   2.491   3.460   6.933
13948TIP3   OH241784   4.158   3.151   0.118
13948TIP3    H141785   4.063   3.141   0.113
13948TIP3    H241786   4.183   3.108   0.199
13949TIP3   OH241787   1.572   3.606   4.002
13949TIP3    H141788   1.574   3.698   3.975
13949TIP3    H241789   1.626   3.561   3.936
13950TIP3   OH241790   6.228   5.604   5.628
13950TIP3    H141791   6.255   5.611   5.536
13950TIP3    H241792   6.294   5.546   5.667
13951TIP3   OH241793   6.830   1.879   1.519
13951TIP3    H141794   6.896   1.809   1.526
13951TIP3    H241795   6.782   1.859   1.439
13952TIP3   OH241796   3.131   1.712   2.853
13952TIP3    H141797   3.036   1.716   2.868
13952TIP3    H241798   3.154   1.620   2.868
13953TIP3   OH241799   8.048   1.287   5.087
13953TIP3    H141800   8.123   1.345   5.073
13953TIP3    H241801   7.972   1.341   5.067
13954TIP3   OH241802   3.815   0.497   0.755
13954TIP3    H141803   3.828   0.405   0.733
13954TIP3    H241804   3.892   0.541   0.720
13955TIP3   OH241805   6.333   3.129   3.104
13955TIP3    H141806   6.316   3.144   3.011
13955TIP3    H241807   6.429   3.132   3.111
13956TIP3   OH241808   0.609   1.276   6.796
13956TIP3    H141809   0.673   1.319   6.739
13956TIP3    H241810   0.655   1.200   6.831
13957TIP3   OH241811   8.078   3.144   3.183
13957TIP3    H141812   8.150   3.169   3.126
13957TIP3    H241813   8.056   3.224   3.231
13958TIP3   OH241814   6.707   6.910   0.952
13958TIP3    H141815   6.657   6.985   0.920
13958TIP3    H241816   6.777   6.949   1.005
13959TIP3   OH241817   7.462   3.648   5.305
13959TIP3    H141818   7.505   3.576   5.352
13959TIP3    H241819   7.453   3.717   5.371
13960TIP3   OH241820   0.991   2.216   6.249
13960TIP3    H141821   0.909   2.180   6.215
13960TIP3    H241822   0.987   2.310   6.229
13961TIP3   OH241823   7.833   3.428   4.859
13961TIP3    H141824   7.866   3.488   4.926
13961TIP3    H241825   7.819   3.345   4.906
13962TIP3   OH241826   1.416   5.628   2.359
13962TIP3    H141827   1.477   5.700   2.341
13962TIP3    H241828   1.336   5.671   2.389
13963TIP3   OH241829   4.764   0.749   3.122
13963TIP3    H141830   4.722   0.753   3.208
13963TIP3    H241831   4.722   0.819   3.071
13964TIP3   OH241832   1.696   6.600   3.603
13964TIP3    H141833   1.706   6.647   3.686
13964TIP3    H241834   1.747   6.520   3.614
13965TIP3   OH241835   0.880   2.570   0.347
13965TIP3    H141836   0.870   2.571   0.442
13965TIP3    H241837   0.964   2.613   0.330
13966TIP3   OH241838   2.996   1.463   2.080
13966TIP3    H141839   2.914   1.496   2.118
13966TIP3    H241840   3.020   1.528   2.014
13967TIP3   OH241841   2.829   6.693   6.226
13967TIP3    H141842   2.902   6.755   6.236
13967TIP3    H241843   2.841   6.630   6.297
13968TIP3   OH241844   1.982   2.676   0.699
13968TIP3    H141845   2.056   2.628   0.661
13968TIP3    H241846   1.945   2.615   0.762
13969TIP3   OH241847   0.757   5.321   1.886
13969TIP3    H141848   0.666   5.353   1.886
13969TIP3    H241849   0.762   5.262   1.962
13970TIP3   OH241850   7.465   1.098   3.261
13970TIP3    H141851   7.552   1.061   3.280
13970TIP3    H241852   7.438   1.139   3.343
13971TIP3   OH241853   7.651   1.714   1.376
13971TIP3    H141854   7.699   1.704   1.294
13971TIP3    H241855   7.583   1.779   1.356
13972TIP3   OH241856   1.556   3.439   5.951
13972TIP3    H141857   1.536   3.417   5.860
13972TIP3    H241858   1.608   3.519   5.945
13973TIP3   OH241859   1.681   5.949   3.412
13973TIP3    H141860   1.636   5.865   3.410
13973TIP3    H241861   1.655   5.992   3.331
13974TIP3   OH241862   5.510   5.500   0.905
13974TIP3    H141863   5.431   5.553   0.903
13974TIP3    H241864   5.501   5.445   0.983
13975TIP3   OH241865   2.949   1.636   2.319
13975TIP3    H141866   2.925   1.588   2.399
13975TIP3    H241867   3.045   1.640   2.322
13976TIP3   OH241868   6.967   0.720   4.685
13976TIP3    H141869   6.992   0.796   4.738
13976TIP3    H241870   6.955   0.755   4.597
13977TIP3   OH241871   3.797   2.002   4.966
13977TIP3    H141872   3.765   1.996   5.056
13977TIP3    H241873   3.755   2.082   4.932
13978TIP3   OH241874   6.017   3.960   5.974
13978TIP3    H141875   6.110   3.941   5.958
13978TIP3    H241876   5.986   3.999   5.892
13979TIP3   OH241877   5.726   0.097   6.025
13979TIP3    H141878   5.719   0.034   6.096
13979TIP3    H241879   5.643   0.091   5.979
13980TIP3   OH241880   3.141   6.234   4.089
13980TIP3    H141881   3.073   6.265   4.028
13980TIP3    H241882   3.152   6.142   4.066
13981TIP3   OH241883   6.700   0.973   2.914
13981TIP3    H141884   6.650   1.054   2.919
13981TIP3    H241885   6.747   0.979   2.831
13982TIP3   OH241886   0.100   0.173   2.410
13982TIP3    H141887   0.108   0.178   2.315
13982TIP3    H241888   0.153   0.096   2.435
13983TIP3   OH241889   4.377   5.997   6.831
13983TIP3    H141890   4.440   5.926   6.835
13983TIP3    H241891   4.417   6.062   6.772
13984TIP3   OH241892   4.058   3.831   2.952
13984TIP3    H141893   4.000   3.905   2.931
13984TIP3    H241894   4.070   3.836   3.047
13985TIP3   OH241895   3.581   3.255   1.885
13985TIP3    H141896   3.531   3.179   1.856
13985TIP3    H241897   3.669   3.242   1.848
13986TIP3   OH241898   3.613   5.221   2.746
13986TIP3    H141899   3.545   5.160   2.775
13986TIP3    H241900   3.578   5.258   2.665
13987TIP3   OH241901   7.573   6.951   5.589
13987TIP3    H141902   7.582   6.863   5.551
13987TIP3    H241903   7.542   6.936   5.678
13988TIP3   OH241904   1.902   7.297   6.072
13988TIP3    H141905   1.962   7.247   6.017
13988TIP3    H241906   1.927   7.388   6.057
13989TIP3   OH241907   1.383   2.201   0.100
13989TIP3    H141908   1.414   2.289   0.120
13989TIP3    H241909   1.462   2.152   0.077
13990TIP3   OH241910   7.376   1.712   3.301
13990TIP3    H141911   7.393   1.705   3.395
13990TIP3    H241912   7.340   1.800   3.289
13991TIP3   OH241913   5.069   6.040   4.996
13991TIP3    H141914   5.007   6.082   4.936
13991TIP3    H241915   5.155   6.063   4.961
13992TIP3   OH241916   0.966   0.072   1.066
13992TIP3    H141917   0.946   0.156   1.106
13992TIP3    H241918   0.931   0.079   0.977
13993TIP3   OH241919   4.558   6.724   0.177
13993TIP3    H141920   4.559   6.774   0.258
13993TIP3    H241921   4.469   6.689   0.172
13994TIP3   OH241922   8.399   0.426   3.496
13994TIP3    H141923   8.342   0.461   3.428
13994TIP3    H241924   8.346   0.359   3.539
13995TIP3   OH241925   4.895   6.325   2.319
13995TIP3    H141926   4.822   6.357   2.265
13995TIP3    H241927   4.869   6.346   2.409
13996TIP3   OH241928   8.381   0.309   5.893
13996TIP3    H141929   8.407   0.399   5.910
13996TIP3    H241930   8.294   0.300   5.932
13997TIP3   OH241931   7.699   7.495   4.980
13997TIP3    H141932   7.768   7.498   5.046
13997TIP3    H241933   7.683   7.587   4.958
13998TIP3   OH241934   5.055   5.272   1.532
13998TIP3    H141935   5.125   5.210   1.554
13998TIP3    H241936   5.085   5.313   1.451
13999TIP3   OH241937   4.209   1.587   3.544
13999TIP3    H141938   4.159   1.570   3.464
13999TIP3    H241939   4.251   1.503   3.563
14000TIP3   OH241940   7.790   4.661   1.545
14000TIP3    H141941   7.772   4.686   1.455
14000TIP3    H241942   7.797   4.565   1.543
14001TIP3   OH241943   3.374   7.168   0.146
14001TIP3    H141944   3.468   7.170   0.127
14001TIP3    H241945   3.370   7.150   0.240
14002TIP3   OH241946   0.242   5.217   3.556
14002TIP3    H141947   0.311   5.282   3.567
14002TIP3    H241948   0.166   5.253   3.602
14003TIP3   OH241949   0.302   3.914   1.458
14003TIP3    H141950   0.217   3.904   1.501
14003TIP3    H241951   0.290   3.988   1.399
14004TIP3   OH241952   2.020   7.606   3.914
14004TIP3    H141953   2.042   7.550   3.988
14004TIP3    H241954   2.041   7.553   3.837
14005TIP3   OH241955   7.098   2.383   6.108
14005TIP3    H141956   7.045   2.449   6.064
14005TIP3    H241957   7.181   2.381   6.059
14006TIP3   OH241958   0.953   6.958   4.904
14006TIP3    H141959   0.938   7.040   4.950
14006TIP3    H241960   0.935   6.890   4.969
14007TIP3   OH241961   7.722   7.603   1.783
14007TIP3    H141962   7.742   7.591   1.690
14007TIP3    H241963   7.807   7.602   1.826
14008TIP3   OH241964   3.635   0.644   3.642
14008TIP3    H141965   3.548   0.670   3.670
14008TIP3    H241966   3.622   0.604   3.556
14009TIP3   OH241967   0.601   5.229   4.283
14009TIP3    H141968   0.681   5.188   4.317
14009TIP3    H241969   0.551   5.156   4.246
14010TIP3   OH241970   2.658   5.224   4.116
14010TIP3    H141971   2.752   5.241   4.120
14010TIP3    H241972   2.651   5.130   4.098
14011TIP3   OH241973   0.480   1.689   4.563
14011TIP3    H141974   0.557   1.633   4.569
14011TIP3    H241975   0.514   1.777   4.580
14012TIP3   OH241976   7.691   7.062   4.269
14012TIP3    H141977   7.782   7.056   4.240
14012TIP3    H241978   7.680   7.153   4.296
14013TIP3   OH241979   1.864   6.137   5.039
14013TIP3    H141980   1.827   6.194   4.972
14013TIP3    H241981   1.829   6.172   5.121
14014TIP3   OH241982   0.961   1.813   3.653
14014TIP3    H141983   0.974   1.766   3.571
14014TIP3    H241984   0.876   1.783   3.685
14015TIP3   OH241985   4.141   0.825   5.400
14015TIP3    H141986   4.234   0.815   5.380
14015TIP3    H241987   4.136   0.815   5.495
14016TIP3   OH241988   4.093   2.309   6.611
14016TIP3    H141989   4.165   2.265   6.657
14016TIP3    H241990   4.024   2.242   6.606
14017TIP3   OH241991   0.408   7.127   3.642
14017TIP3    H141992   0.470   7.069   3.597
14017TIP3    H241993   0.457   7.209   3.654
14018TIP3   OH241994   7.197   1.618   1.030
14018TIP3    H141995   7.156   1.679   0.969
14018TIP3    H241996   7.124   1.582   1.080
14019TIP3   OH241997   2.061   4.350   0.090
14019TIP3    H141998   2.067   4.268   0.139
14019TIP3    H241999   2.058   4.419   0.157
14020TIP3   OH242000   7.925   0.034   2.923
14020TIP3    H142001   7.940   0.128   2.937
14020TIP3    H242002   7.829   0.026   2.918
14021TIP3   OH242003   3.142   7.628   1.416
14021TIP3    H142004   3.131   7.538   1.387
14021TIP3    H242005   3.159   7.620   1.510
14022TIP3   OH242006   6.732   6.382   6.480
14022TIP3    H142007   6.718   6.331   6.560
14022TIP3    H242008   6.700   6.326   6.409
14023TIP3   OH242009   5.526   0.298   5.668
14023TIP3    H142010   5.574   0.216   5.653
14023TIP3    H242011   5.593   0.366   5.667
14024TIP3   OH242012   6.032   4.610   6.760
14024TIP3    H142013   6.075   4.530   6.789
14024TIP3    H242014   6.029   4.604   6.665
14025TIP3   OH242015   2.261   5.219   0.311
14025TIP3    H142016   2.207   5.277   0.365
14025TIP3    H242017   2.297   5.156   0.373
14026TIP3   OH242018   7.960   1.931   6.409
14026TIP3    H142019   8.034   1.990   6.399
14026TIP3    H242020   7.993   1.845   6.381
14027TIP3   OH242021   7.288   6.386   0.998
14027TIP3    H142022   7.322   6.340   1.074
14027TIP3    H242023   7.334   6.470   0.998
14028TIP3   OH242024   1.134   4.364   1.042
14028TIP3    H142025   1.147   4.271   1.064
14028TIP3    H242026   1.138   4.409   1.127
14029TIP3   OH242027   1.973   2.488   6.193
14029TIP3    H142028   2.030   2.565   6.193
14029TIP3    H242029   1.976   2.454   6.282
14030TIP3   OH242030   6.117   6.879   2.237
14030TIP3    H142031   6.089   6.963   2.201
14030TIP3    H242032   6.205   6.866   2.203
14031TIP3   OH242033   6.583   6.386   1.960
14031TIP3    H142034   6.610   6.381   2.051
14031TIP3    H242035   6.488   6.400   1.964
14032TIP3   OH242036   7.983   6.174   5.049
14032TIP3    H142037   7.904   6.129   5.080
14032TIP3    H242038   8.054   6.113   5.069
14033TIP3   OH242039   2.773   0.868   4.173
14033TIP3    H142040   2.706   0.833   4.113
14033TIP3    H242041   2.723   0.896   4.250
14034TIP3   OH242042   1.170   7.042   5.114
14034TIP3    H142043   1.185   6.985   5.039
14034TIP3    H242044   1.256   7.051   5.155
14035TIP3   OH242045   4.859   5.798   2.663
14035TIP3    H142046   4.864   5.703   2.648
14035TIP3    H242047   4.889   5.836   2.581
14036TIP3   OH242048   7.808   7.846   3.727
14036TIP3    H142049   7.775   7.757   3.715
14036TIP3    H242050   7.875   7.839   3.794
14037TIP3   OH242051   5.691   6.192   4.492
14037TIP3    H142052   5.732   6.277   4.472
14037TIP3    H242053   5.714   6.177   4.584
14038TIP3   OH242054   0.930   2.313   3.644
14038TIP3    H142055   0.877   2.233   3.653
14038TIP3    H242056   0.996   2.290   3.580
14039TIP3   OH242057   4.572   3.105   0.651
14039TIP3    H142058   4.660   3.078   0.625
14039TIP3    H242059   4.586   3.174   0.716
14040TIP3   OH242060   4.697   3.560   5.091
14040TIP3    H142061   4.630   3.616   5.054
14040TIP3    H242062   4.736   3.516   5.015
14041TIP3   OH242063   4.517   4.841   3.023
14041TIP3    H142064   4.521   4.908   3.091
14041TIP3    H242065   4.608   4.832   2.993
14042TIP3   OH242066   1.436   7.462   5.726
14042TIP3    H142067   1.498   7.483   5.657
14042TIP3    H242068   1.382   7.392   5.689
14043TIP3   OH242069   0.194   4.078   3.032
14043TIP3    H142070   0.263   4.039   3.085
14043TIP3    H242071   0.210   4.045   2.944
14044TIP3   OH242072   0.337   3.300   5.992
14044TIP3    H142073   0.392   3.250   5.932
14044TIP3    H242074   0.357   3.392   5.972
14045TIP3   OH242075   3.723   6.149   4.006
14045TIP3    H142076   3.655   6.150   4.074
14045TIP3    H242077   3.757   6.238   4.005
14046TIP3   OH242078   0.301   1.708   2.224
14046TIP3    H142079   0.384   1.699   2.178
14046TIP3    H242080   0.323   1.755   2.305
14047TIP3   OH242081   6.343   0.828   6.278
14047TIP3    H142082   6.340   0.895   6.209
14047TIP3    H242083   6.289   0.863   6.348
14048TIP3   OH242084   4.029   5.863   0.870
14048TIP3    H142085   3.971   5.904   0.934
14048TIP3    H242086   4.001   5.899   0.786
14049TIP3   OH242087   1.311   7.203   3.098
14049TIP3    H142088   1.347   7.269   3.038
14049TIP3    H242089   1.385   7.147   3.119
14050TIP3   OH242090   7.158   7.768   5.979
14050TIP3    H142091   7.111   7.842   6.017
14050TIP3    H242092   7.181   7.713   6.055
14051TIP3   OH242093   1.572   1.129   3.056
14051TIP3    H142094   1.629   1.060   3.023
14051TIP3    H242095   1.499   1.132   2.995
14052TIP3   OH242096   6.528   2.765   4.119
14052TIP3    H142097   6.526   2.742   4.211
14052TIP3    H242098   6.593   2.835   4.113
14053TIP3   OH242099   7.713   5.515   1.768
14053TIP3    H142100   7.640   5.576   1.779
14053TIP3    H242101   7.791   5.569   1.767
14054TIP3   OH242102   8.366   6.232   3.772
14054TIP3    H142103   8.300   6.300   3.760
14054TIP3    H242104   8.361   6.179   3.693
14055TIP3   OH242105   6.538   4.185   1.157
14055TIP3    H142106   6.482   4.238   1.100
14055TIP3    H242107   6.622   4.231   1.158
14056TIP3   OH242108   6.414   7.067   4.000
14056TIP3    H142109   6.400   7.026   4.086
14056TIP3    H242110   6.332   7.112   3.982
14057TIP3   OH242111   2.310   3.215   5.490
14057TIP3    H142112   2.294   3.121   5.478
14057TIP3    H242113   2.352   3.243   5.409
14058TIP3   OH242114   5.085   6.468   4.902
14058TIP3    H142115   5.051   6.553   4.872
14058TIP3    H242116   5.132   6.488   4.983
14059TIP3   OH242117   6.564   0.396   5.542
14059TIP3    H142118   6.629   0.328   5.526
14059TIP3    H242119   6.554   0.440   5.458
14060TIP3   OH242120   1.398   1.043   4.052
14060TIP3    H142121   1.469   1.003   4.101
14060TIP3    H242122   1.353   0.970   4.010
14061TIP3   OH242123   5.863   3.618   4.492
14061TIP3    H142124   5.868   3.592   4.400
14061TIP3    H242125   5.896   3.708   4.494
14062TIP3   OH242126   5.860   6.707   0.604
14062TIP3    H142127   5.938   6.741   0.647
14062TIP3    H242128   5.866   6.612   0.613
14063TIP3   OH242129   5.840   0.244   0.678
14063TIP3    H142130   5.906   0.202   0.733
14063TIP3    H242131   5.848   0.338   0.698
14064TIP3   OH242132   5.219   6.002   4.511
14064TIP3    H142133   5.212   6.097   4.521
14064TIP3    H242134   5.130   5.969   4.523
14065TIP3   OH242135   7.110  -0.004   0.030
14065TIP3    H142136   7.049   0.010  -0.042
14065TIP3    H242137   7.195  -0.015  -0.013
14066TIP3   OH242138   2.176   3.781   4.047
14066TIP3    H142139   2.146   3.821   3.966
14066TIP3    H242140   2.268   3.759   4.030
14067TIP3   OH242141   6.826   0.713   2.933
14067TIP3    H142142   6.821   0.659   3.012
14067TIP3    H242143   6.797   0.800   2.962
14068TIP3   OH242144   6.339   3.971   1.256
14068TIP3    H142145   6.339   3.876   1.258
14068TIP3    H242146   6.407   3.993   1.192
14069TIP3   OH242147   3.808   6.582   2.509
14069TIP3    H142148   3.805   6.620   2.597
14069TIP3    H242149   3.829   6.656   2.452
14070TIP3   OH242150   5.688   3.132   5.975
14070TIP3    H142151   5.640   3.209   5.945
14070TIP3    H242152   5.715   3.088   5.895
14071TIP3   OH242153   1.560   0.844   6.555
14071TIP3    H142154   1.600   0.783   6.617
14071TIP3    H242155   1.610   0.832   6.474
14072TIP3   OH242156   5.023   2.030   3.133
14072TIP3    H142157   5.109   1.997   3.104
14072TIP3    H242158   4.982   1.955   3.177
14073TIP3   OH242159   6.196   0.214   3.592
14073TIP3    H142160   6.242   0.185   3.513
14073TIP3    H242161   6.148   0.136   3.622
14074TIP3   OH242162   3.620   5.749   3.887
14074TIP3    H142163   3.543   5.734   3.832
14074TIP3    H242164   3.654   5.834   3.859
14075TIP3   OH242165   7.637   2.676   5.120
14075TIP3    H142166   7.710   2.734   5.102
14075TIP3    H242167   7.658   2.595   5.074
14076TIP3   OH242168   7.140   4.583   5.687
14076TIP3    H142169   7.079   4.634   5.634
14076TIP3    H242170   7.169   4.644   5.755
14077TIP3   OH242171   2.227   0.748   2.322
14077TIP3    H142172   2.201   0.683   2.257
14077TIP3    H242173   2.148   0.800   2.337
14078TIP3   OH242174   2.009   6.728   6.789
14078TIP3    H142175   2.079   6.790   6.811
14078TIP3    H242176   2.052   6.643   6.790
14079TIP3   OH242177   1.143   0.714   5.109
14079TIP3    H142178   1.069   0.670   5.151
14079TIP3    H242179   1.171   0.653   5.040
14080TIP3   OH242180   3.333   2.405   0.344
14080TIP3    H142181   3.272   2.455   0.398
14080TIP3    H242182   3.276   2.356   0.284
14081TIP3   OH242183   4.321   0.044   4.510
14081TIP3    H142184   4.408   0.032   4.473
14081TIP3    H242185   4.264  -0.013   4.457
14082TIP3   OH242186   1.697   0.603   6.157
14082TIP3    H142187   1.743   0.519   6.147
14082TIP3    H242188   1.625   0.598   6.094
14083TIP3   OH242189   0.124   5.557   5.501
14083TIP3    H142190   0.141   5.472   5.542
14083TIP3    H242191   0.209   5.602   5.502
14084TIP3   OH242192   0.182   3.215   5.643
14084TIP3    H142193   0.179   3.254   5.556
14084TIP3    H242194   0.193   3.121   5.627
14085TIP3   OH242195   0.315   7.036   4.365
14085TIP3    H142196   0.402   7.049   4.401
14085TIP3    H242197   0.256   7.052   4.438
14086TIP3   OH242198   6.168   0.907   1.267
14086TIP3    H142199   6.254   0.902   1.226
14086TIP3    H242200   6.153   1.000   1.282
14087TIP3   OH242201   5.029   0.878   4.422
14087TIP3    H142202   5.042   0.805   4.362
14087TIP3    H242203   5.117   0.908   4.444
14088TIP3   OH242204   0.703   7.763   5.696
14088TIP3    H142205   0.737   7.844   5.656
14088TIP3    H242206   0.609   7.766   5.678
14089TIP3   OH242207   5.953   3.707   6.270
14089TIP3    H142208   5.976   3.645   6.201
14089TIP3    H242209   5.980   3.663   6.351
14090TIP3   OH242210   6.576   0.565   2.835
14090TIP3    H142211   6.666   0.591   2.851
14090TIP3    H242212   6.524   0.641   2.859
14091TIP3   OH242213   7.079   3.380   6.746
14091TIP3    H142214   6.987   3.387   6.772
14091TIP3    H242215   7.079   3.313   6.678
14092TIP3   OH242216   1.095   0.295   0.882
14092TIP3    H142217   1.097   0.346   0.801
14092TIP3    H242218   1.038   0.345   0.940
14093TIP3   OH242219   7.521   5.017   1.648
14093TIP3    H142220   7.541   5.076   1.576
14093TIP3    H242221   7.488   4.938   1.606
14094TIP3   OH242222   8.029   2.145   5.735
14094TIP3    H142223   7.933   2.139   5.735
14094TIP3    H242224   8.051   2.184   5.651
14095TIP3   OH242225   6.858   6.305   3.072
14095TIP3    H142226   6.836   6.372   3.136
14095TIP3    H242227   6.819   6.224   3.106
14096TIP3   OH242228   4.473   4.024   6.377
14096TIP3    H142229   4.527   3.999   6.303
14096TIP3    H242230   4.408   4.084   6.340
14097TIP3   OH242231   1.806   0.162   1.184
14097TIP3    H142232   1.735   0.162   1.120
14097TIP3    H242233   1.834   0.071   1.189
14098TIP3   OH242234   6.123   6.189   1.738
14098TIP3    H142235   6.147   6.133   1.664
14098TIP3    H242236   6.131   6.132   1.814
14099TIP3   OH242237   6.717   1.075   5.786
14099TIP3    H142238   6.769   1.133   5.842
14099TIP3    H242239   6.782   1.023   5.738
14100TIP3   OH242240   1.268   5.750   0.187
14100TIP3    H142241   1.334   5.799   0.137
14100TIP3    H242242   1.196   5.812   0.200
14101TIP3   OH242243   5.185   0.191   1.327
14101TIP3    H142244   5.257   0.172   1.387
14101TIP3    H242245   5.106   0.168   1.377
14102TIP3   OH242246   0.992   2.398   0.806
14102TIP3    H142247   1.041   2.336   0.752
14102TIP3    H242248   0.901   2.368   0.800
14103TIP3   OH242249   0.347   6.550   3.074
14103TIP3    H142250   0.417   6.510   3.022
14103TIP3    H242251   0.321   6.482   3.136
14104TIP3   OH242252   8.230   0.086   4.339
14104TIP3    H142253   8.233   0.062   4.432
14104TIP3    H242254   8.266   0.009   4.295
14105TIP3   OH242255   3.750   1.522   2.931
14105TIP3    H142256   3.681   1.458   2.946
14105TIP3    H242257   3.704   1.603   2.908
14106TIP3   OH242258   4.166   7.640   4.458
14106TIP3    H142259   4.224   7.566   4.445
14106TIP3    H242260   4.131   7.629   4.546
14107TIP3   OH242261   6.323   3.673   1.274
14107TIP3    H142262   6.360   3.685   1.362
14107TIP3    H242263   6.287   3.585   1.275
14108TIP3   OH242264   1.699   5.373   2.311
14108TIP3    H142265   1.610   5.360   2.279
14108TIP3    H242266   1.699   5.462   2.347
14109TIP3   OH242267   1.368   7.403   6.360
14109TIP3    H142268   1.455   7.442   6.369
14109TIP3    H242269   1.332   7.441   6.281
14110TIP3   OH242270   1.918   0.147   4.823
14110TIP3    H142271   1.994   0.139   4.765
14110TIP3    H242272   1.843   0.135   4.766
14111TIP3   OH242273   0.147   3.464   5.353
14111TIP3    H142274   0.055   3.461   5.377
14111TIP3    H242275   0.148   3.511   5.269
14112TIP3   OH242276   6.853   0.422   2.779
14112TIP3    H142277   6.829   0.458   2.865
14112TIP3    H242278   6.793   0.348   2.768
14113TIP3   OH242279   6.068   3.016   5.057
14113TIP3    H142280   6.028   2.940   5.016
14113TIP3    H242281   6.043   3.090   5.001
14114TIP3   OH242282   3.555   5.563   1.485
14114TIP3    H142283   3.512   5.492   1.530
14114TIP3    H242284   3.582   5.623   1.554
14115TIP3   OH242285   7.038   1.442   4.605
14115TIP3    H142286   7.007   1.351   4.600
14115TIP3    H242287   7.111   1.446   4.543
14116TIP3   OH242288   0.150   7.474   6.166
14116TIP3    H142289   0.108   7.426   6.095
14116TIP3    H242290   0.082   7.534   6.198
14117TIP3   OH242291   4.946   4.988   5.532
14117TIP3    H142292   4.916   5.050   5.466
14117TIP3    H242293   4.882   4.917   5.530
14118TIP3   OH242294   4.400   2.522   4.659
14118TIP3    H142295   4.315   2.564   4.675
14118TIP3    H242296   4.379   2.429   4.648
14119TIP3   OH242297   2.640   5.254   4.401
14119TIP3    H142298   2.735   5.257   4.406
14119TIP3    H242299   2.621   5.248   4.307
14120TIP3   OH242300   6.020   1.107   0.942
14120TIP3    H142301   6.108   1.144   0.953
14120TIP3    H242302   5.962   1.173   0.980
14121TIP3   OH242303   1.662   6.193   3.583
14121TIP3    H142304   1.714   6.121   3.547
14121TIP3    H242305   1.593   6.150   3.633
14122TIP3   OH242306   0.586   0.855   2.765
14122TIP3    H142307   0.661   0.897   2.808
14122TIP3    H242308   0.527   0.832   2.838
14123TIP3   OH242309   7.307   4.137   1.300
14123TIP3    H142310   7.315   4.196   1.375
14123TIP3    H242311   7.368   4.173   1.235
14124TIP3   OH242312   7.590   0.663   3.008
14124TIP3    H142313   7.512   0.713   2.984
14124TIP3    H242314   7.555   0.585   3.052
14125TIP3   OH242315   1.513   3.490   1.779
14125TIP3    H142316   1.544   3.506   1.868
14125TIP3    H242317   1.467   3.406   1.785
14126TIP3   OH242318   1.170   3.029   1.076
14126TIP3    H142319   1.142   3.120   1.068
14126TIP3    H242320   1.185   3.017   1.170
14127TIP3   OH242321   5.515   1.388   1.452
14127TIP3    H142322   5.484   1.335   1.379
14127TIP3    H242323   5.471   1.351   1.529
14128TIP3   OH242324   4.478   5.294   1.191
14128TIP3    H142325   4.562   5.330   1.219
14128TIP3    H242326   4.415   5.332   1.252
14129TIP3   OH242327   5.282   2.486   6.639
14129TIP3    H142328   5.222   2.469   6.712
14129TIP3    H242329   5.331   2.564   6.665
14130TIP3   OH242330   2.827   2.148   5.656
14130TIP3    H142331   2.915   2.182   5.640
14130TIP3    H242332   2.801   2.109   5.572
14131TIP3   OH242333   0.229   5.488   4.875
14131TIP3    H142334   0.254   5.440   4.954
14131TIP3    H242335   0.304   5.543   4.854
14132TIP3   OH242336   2.741   3.272   4.384
14132TIP3    H142337   2.806   3.247   4.449
14132TIP3    H242338   2.774   3.235   4.302
14133TIP3   OH242339   7.691   0.756   0.275
14133TIP3    H142340   7.745   0.691   0.319
14133TIP3    H242341   7.669   0.819   0.344
14134TIP3   OH242342   7.918   7.323   2.945
14134TIP3    H142343   7.833   7.310   2.902
14134TIP3    H242344   7.928   7.248   3.003
14135TIP3   OH242345   7.738   5.472   6.483
14135TIP3    H142346   7.748   5.458   6.577
14135TIP3    H242347   7.780   5.396   6.443
14136TIP3   OH242348   8.091   1.881   1.488
14136TIP3    H142349   8.173   1.881   1.536
14136TIP3    H242350   8.082   1.970   1.455
14137TIP3   OH242351   7.781   2.364   0.248
14137TIP3    H142352   7.688   2.366   0.273
14137TIP3    H242353   7.811   2.277   0.276
14138TIP3   OH242354   2.080   1.390   0.856
14138TIP3    H142355   2.157   1.411   0.909
14138TIP3    H242356   2.005   1.404   0.915
14139TIP3   OH242357   7.031   4.226   1.267
14139TIP3    H142358   7.102   4.207   1.206
14139TIP3    H242359   6.998   4.140   1.293
14140TIP3   OH242360   1.642   4.783   2.409
14140TIP3    H142361   1.664   4.841   2.482
14140TIP3    H242362   1.724   4.736   2.390
14141TIP3   OH242363   6.606   2.014   1.754
14141TIP3    H142364   6.658   1.958   1.811
14141TIP3    H242365   6.529   2.036   1.805
14142TIP3   OH242366   3.753   7.378   3.049
14142TIP3    H142367   3.785   7.387   3.139
14142TIP3    H242368   3.658   7.382   3.057
14143TIP3   OH242369   1.956   4.748   4.029
14143TIP3    H142370   1.887   4.745   4.095
14143TIP3    H242371   2.032   4.710   4.074
14144TIP3   OH242372   6.732   6.559   5.959
14144TIP3    H142373   6.763   6.579   6.047
14144TIP3    H242374   6.736   6.463   5.953
14145TIP3   OH242375   4.402   1.845   6.679
14145TIP3    H142376   4.374   1.911   6.743
14145TIP3    H242377   4.322   1.821   6.633
14146TIP3   OH242378   2.812   0.877   1.999
14146TIP3    H142379   2.812   0.893   1.905
14146TIP3    H242380   2.903   0.855   2.019
14147TIP3   OH242381   3.143   7.656   4.796
14147TIP3    H142382   3.139   7.644   4.891
14147TIP3    H242383   3.100   7.740   4.780
14148TIP3   OH242384   7.949   7.624   2.729
14148TIP3    H142385   7.986   7.538   2.708
14148TIP3    H242386   8.024   7.683   2.728
14149TIP3   OH242387   4.838   1.692   2.709
14149TIP3    H142388   4.818   1.759   2.643
14149TIP3    H242389   4.850   1.741   2.790
14150TIP3   OH242390   4.500   2.479   3.244
14150TIP3    H142391   4.502   2.566   3.205
14150TIP3    H242392   4.582   2.438   3.215
14151TIP3   OH242393   4.918   6.972   4.218
14151TIP3    H142394   4.875   6.896   4.257
14151TIP3    H242395   4.949   7.024   4.293
14152TIP3   OH242396   2.240   7.044   2.276
14152TIP3    H142397   2.320   7.093   2.294
14152TIP3    H242398   2.267   6.975   2.216
14153TIP3   OH242399   6.128   4.138   5.676
14153TIP3    H142400   6.048   4.128   5.726
14153TIP3    H242401   6.149   4.049   5.645
14154TIP3   OH242402   2.697   5.708   4.456
14154TIP3    H142403   2.671   5.675   4.542
14154TIP3    H242404   2.785   5.744   4.470
14155TIP3   OH242405   3.679   1.806   4.572
14155TIP3    H142406   3.768   1.828   4.597
14155TIP3    H242407   3.624   1.862   4.628
14156TIP3   OH242408   3.842   5.976   5.644
14156TIP3    H142409   3.784   5.963   5.569
14156TIP3    H242410   3.930   5.976   5.607
14157TIP3   OH242411   6.931   0.269   6.647
14157TIP3    H142412   6.904   0.207   6.715
14157TIP3    H242413   7.026   0.276   6.657
14158TIP3   OH242414   5.638   2.307   0.727
14158TIP3    H142415   5.585   2.333   0.802
14158TIP3    H242416   5.726   2.295   0.762
14159TIP3   OH242417   6.646   7.838   3.238
14159TIP3    H142418   6.738   7.864   3.237
14159TIP3    H242419   6.603   7.899   3.178
14160TIP3   OH242420   4.428   5.806   3.795
14160TIP3    H142421   4.484   5.876   3.759
14160TIP3    H242422   4.464   5.725   3.758
14161TIP3   OH242423   6.290   7.362   1.504
14161TIP3    H142424   6.212   7.361   1.560
14161TIP3    H242425   6.337   7.282   1.529
14162TIP3   OH242426   2.286   4.641   2.439
14162TIP3    H142427   2.313   4.643   2.531
14162TIP3    H242428   2.226   4.567   2.433
14163TIP3   OH242429   5.697   2.912   3.019
14163TIP3    H142430   5.657   2.946   2.939
14163TIP3    H242431   5.790   2.904   2.998
14164TIP3   OH242432   6.819   5.870   4.695
14164TIP3    H142433   6.737   5.834   4.660
14164TIP3    H242434   6.885   5.804   4.673
14165TIP3   OH242435   1.877   4.493   4.938
14165TIP3    H142436   1.950   4.432   4.933
14165TIP3    H242437   1.808   4.445   4.984
14166TIP3   OH242438   0.078   4.192   0.049
14166TIP3    H142439   0.051   4.106   0.015
14166TIP3    H242440   0.013   4.253   0.015
14167TIP3   OH242441   0.173   2.181   2.718
14167TIP3    H142442   0.079   2.180   2.697
14167TIP3    H242443   0.176   2.171   2.813
14168TIP3   OH242444   4.289   4.055   3.095
14168TIP3    H142445   4.293   4.027   3.004
14168TIP3    H242446   4.285   4.150   3.092
14169TIP3   OH242447   1.089   4.771   0.931
14169TIP3    H142448   1.059   4.756   0.842
14169TIP3    H242449   1.173   4.817   0.921
14170TIP3   OH242450   0.516   3.831   2.045
14170TIP3    H142451   0.571   3.908   2.061
14170TIP3    H242452   0.577   3.765   2.011
14171TIP3   OH242453   5.821   0.323   6.226
14171TIP3    H142454   5.775   0.368   6.297
14171TIP3    H242455   5.759   0.259   6.193
14172TIP3   OH242456   4.238   7.628   6.232
14172TIP3    H142457   4.305   7.634   6.300
14172TIP3    H242458   4.234   7.534   6.211
14173TIP3   OH242459   4.405   6.135   0.493
14173TIP3    H142460   4.382   6.127   0.400
14173TIP3    H242461   4.431   6.227   0.503
14174TIP3   OH242462   6.402   6.959   6.190
14174TIP3    H142463   6.476   7.007   6.153
14174TIP3    H242464   6.429   6.867   6.186
14175TIP3   OH242465   5.334   7.105   1.547
14175TIP3    H142466   5.258   7.118   1.490
14175TIP3    H242467   5.313   7.152   1.627
14176TIP3   OH242468   0.351   2.063   4.779
14176TIP3    H142469   0.264   2.024   4.789
14176TIP3    H242470   0.391   2.015   4.706
14177TIP3   OH242471   1.830   1.588   0.681
14177TIP3    H142472   1.891   1.523   0.647
14177TIP3    H242473   1.836   1.661   0.620
14178TIP3   OH242474   5.645   7.729   6.831
14178TIP3    H142475   5.608   7.653   6.876
14178TIP3    H242476   5.702   7.691   6.764
14179TIP3   OH242477   4.615   5.387   4.879
14179TIP3    H142478   4.683   5.322   4.896
14179TIP3    H242479   4.661   5.460   4.836
14180TIP3   OH242480   4.216   6.296   1.282
14180TIP3    H142481   4.194   6.266   1.194
14180TIP3    H242482   4.250   6.384   1.270
14181TIP3   OH242483   6.586   4.413   5.544
14181TIP3    H142484   6.597   4.398   5.638
14181TIP3    H242485   6.538   4.336   5.513
14182TIP3   OH242486   8.150   3.272   3.848
14182TIP3    H142487   8.191   3.190   3.818
14182TIP3    H242488   8.176   3.337   3.783
14183TIP3   OH242489   7.625   7.161   2.116
14183TIP3    H142490   7.669   7.205   2.189
14183TIP3    H242491   7.663   7.200   2.038
14184TIP3   OH242492   0.996   1.945   3.170
14184TIP3    H142493   1.060   1.876   3.185
14184TIP3    H242494   0.912   1.906   3.192
14185TIP3   OH242495   3.591   1.703   3.915
14185TIP3    H142496   3.613   1.727   3.825
14185TIP3    H242497   3.654   1.634   3.937
14186TIP3   OH242498   2.851   2.507   0.718
14186TIP3    H142499   2.835   2.563   0.642
14186TIP3    H242500   2.818   2.421   0.692
14187TIP3   OH242501   7.638   6.514   1.574
14187TIP3    H142502   7.710   6.576   1.587
14187TIP3    H242503   7.650   6.450   1.644
14188TIP3   OH242504   5.792   1.850   4.075
14188TIP3    H142505   5.749   1.796   4.142
14188TIP3    H242506   5.884   1.854   4.103
14189TIP3   OH242507   2.745   2.203   5.104
14189TIP3    H142508   2.691   2.275   5.137
14189TIP3    H242509   2.682   2.143   5.064
14190TIP3   OH242510   4.445   5.141   6.695
14190TIP3    H142511   4.489   5.092   6.626
14190TIP3    H242512   4.384   5.199   6.649
14191TIP3   OH242513   5.809   0.934   5.854
14191TIP3    H142514   5.756   0.873   5.904
14191TIP3    H242515   5.900   0.908   5.873
14192TIP3   OH242516   6.860   6.468   4.242
14192TIP3    H142517   6.944   6.472   4.288
14192TIP3    H242518   6.869   6.531   4.171
14193TIP3   OH242519   5.189   1.190   1.852
14193TIP3    H142520   5.195   1.122   1.785
14193TIP3    H242521   5.102   1.177   1.891
14194TIP3   OH242522  -0.008   0.718   1.172
14194TIP3    H142523  -0.009   0.761   1.087
14194TIP3    H242524   0.032   0.783   1.230
14195TIP3   OH242525   2.516   1.173   4.380
14195TIP3    H142526   2.531   1.266   4.368
14195TIP3    H242527   2.423   1.161   4.361
14196TIP3   OH242528   7.583   6.803   3.704
14196TIP3    H142529   7.568   6.896   3.722
14196TIP3    H242530   7.677   6.798   3.686
14197TIP3   OH242531   2.954   5.952   5.479
14197TIP3    H142532   2.903   5.909   5.411
14197TIP3    H242533   2.978   5.881   5.539
14198TIP3   OH242534   7.980   1.637   4.618
14198TIP3    H142535   7.908   1.699   4.608
14198TIP3    H242536   8.055   1.682   4.579
14199TIP3   OH242537   8.133   6.019   2.899
14199TIP3    H142538   8.185   6.015   2.979
14199TIP3    H242539   8.198   6.035   2.830
14200TIP3   OH242540   0.969   5.223   5.152
14200TIP3    H142541   0.889   5.171   5.160
14200TIP3    H242542   0.938   5.314   5.154
14201TIP3   OH242543   2.965   0.663   2.380
14201TIP3    H142544   3.053   0.627   2.375
14201TIP3    H242545   2.915   0.614   2.314
14202TIP3   OH242546   7.200   6.722   6.318
14202TIP3    H142547   7.207   6.672   6.399
14202TIP3    H242548   7.286   6.760   6.305
14203TIP3   OH242549   7.643   5.140   5.397
14203TIP3    H142550   7.628   5.045   5.399
14203TIP3    H242551   7.633   5.164   5.305
14204TIP3   OH242552   4.150   0.069   0.450
14204TIP3    H142553   4.212   0.123   0.400
14204TIP3    H242554   4.156  -0.017   0.409
14205TIP3   OH242555   1.963   1.659   3.311
14205TIP3    H142556   1.948   1.661   3.217
14205TIP3    H242557   1.992   1.747   3.333
14206TIP3   OH242558   0.377   0.399   3.947
14206TIP3    H142559   0.318   0.431   3.879
14206TIP3    H242560   0.445   0.466   3.953
14207TIP3   OH242561   4.342   7.280   2.260
14207TIP3    H142562   4.295   7.322   2.332
14207TIP3    H242563   4.421   7.332   2.250
14208TIP3   OH242564   4.236   2.825   0.868
14208TIP3    H142565   4.263   2.893   0.930
14208TIP3    H242566   4.317   2.802   0.822
14209TIP3   OH242567   0.871   7.232   2.705
14209TIP3    H142568   0.789   7.281   2.703
14209TIP3    H242569   0.853   7.152   2.656
14210TIP3   OH242570   4.154   4.283   3.656
14210TIP3    H142571   4.229   4.266   3.599
14210TIP3    H242572   4.179   4.362   3.705
14211TIP3   OH242573   7.590   4.774   1.822
14211TIP3    H142574   7.685   4.776   1.833
14211TIP3    H242575   7.574   4.832   1.747
14212TIP3   OH242576   8.269   6.587   2.650
14212TIP3    H142577   8.177   6.587   2.675
14212TIP3    H242578   8.310   6.650   2.710
14213TIP3   OH242579   5.040   0.853   5.628
14213TIP3    H142580   4.980   0.806   5.686
14213TIP3    H242581   5.070   0.787   5.566
14214TIP3   OH242582   1.149   1.028   0.953
14214TIP3    H142583   1.103   1.050   1.034
14214TIP3    H242584   1.221   1.090   0.948
14215TIP3   OH242585   1.634   2.133   4.628
14215TIP3    H142586   1.542   2.124   4.651
14215TIP3    H242587   1.667   2.043   4.621
14216TIP3   OH242588   6.206   6.640   1.310
14216TIP3    H142589   6.293   6.608   1.332
14216TIP3    H242590   6.218   6.734   1.297
14217TIP3   OH242591   5.363   7.919   2.153
14217TIP3    H142592   5.313   7.893   2.076
14217TIP3    H242593   5.390   7.837   2.193
14218TIP3   OH242594   4.944   3.258   5.511
14218TIP3    H142595   5.031   3.271   5.474
14218TIP3    H242596   4.884   3.283   5.441
14219TIP3   OH242597   7.697   6.898   2.131
14219TIP3    H142598   7.672   6.989   2.116
14219TIP3    H242599   7.629   6.863   2.190
14220TIP3   OH242600   3.432   1.179   5.285
14220TIP3    H142601   3.403   1.092   5.257
14220TIP3    H242602   3.376   1.199   5.360
14221TIP3   OH242603   3.224   7.295   6.754
14221TIP3    H142604   3.295   7.234   6.737
14221TIP3    H242605   3.209   7.340   6.671
14222TIP3   OH242606   0.075   4.604   6.727
14222TIP3    H142607   0.152   4.561   6.691
14222TIP3    H242608   0.003   4.576   6.670
14223TIP3   OH242609   6.480   7.546   2.425
14223TIP3    H142610   6.447   7.475   2.480
14223TIP3    H242611   6.450   7.626   2.468
14224TIP3   OH242612   2.499   1.421   6.727
14224TIP3    H142613   2.430   1.391   6.668
14224TIP3    H242614   2.473   1.511   6.750
14225TIP3   OH242615   1.443   4.558   4.602
14225TIP3    H142616   1.487   4.635   4.638
14225TIP3    H242617   1.384   4.529   4.672
14226TIP3   OH242618   7.110   3.441   6.102
14226TIP3    H142619   7.175   3.497   6.145
14226TIP3    H242620   7.153   3.411   6.022
14227TIP3   OH242621   1.065   4.823   3.161
14227TIP3    H142622   1.114   4.869   3.093
14227TIP3    H242623   1.045   4.737   3.123
14228TIP3   OH242624   6.516   4.189   4.117
14228TIP3    H142625   6.558   4.224   4.196
14228TIP3    H242626   6.538   4.253   4.049
14229TIP3   OH242627   5.901   0.442   5.132
14229TIP3    H142628   5.846   0.401   5.198
14229TIP3    H242629   5.874   0.534   5.133
14230TIP3   OH242630   7.095   4.729   0.939
14230TIP3    H142631   7.008   4.768   0.932
14230TIP3    H242632   7.147   4.774   0.872
14231TIP3   OH242633   4.863   4.503   6.416
14231TIP3    H142634   4.796   4.478   6.353
14231TIP3    H242635   4.866   4.599   6.412
14232TIP3   OH242636   6.586   6.170   0.687
14232TIP3    H142637   6.589   6.262   0.715
14232TIP3    H242638   6.677   6.144   0.680
14233TIP3   OH242639   2.866   3.283   3.254
14233TIP3    H142640   2.893   3.211   3.311
14233TIP3    H242641   2.914   3.268   3.173
14234TIP3   OH242642   3.713   6.942   0.455
14234TIP3    H142643   3.621   6.917   0.458
14234TIP3    H242644   3.712   7.038   0.460
14235TIP3   OH242645   7.919   0.661   6.262
14235TIP3    H142646   7.875   0.620   6.336
14235TIP3    H242647   8.011   0.637   6.272
14236TIP3   OH242648   5.168  -0.013   3.319
14236TIP3    H142649   5.125  -0.009   3.405
14236TIP3    H242650   5.138   0.065   3.273
14237TIP3   OH242651   5.372   5.040   1.450
14237TIP3    H142652   5.463   5.048   1.479
14237TIP3    H242653   5.320   5.065   1.526
14238TIP3   OH242654   6.693   1.590   3.195
14238TIP3    H142655   6.658   1.553   3.276
14238TIP3    H242656   6.677   1.522   3.129
14239TIP3   OH242657   3.798   0.161   3.717
14239TIP3    H142658   3.737   0.177   3.645
14239TIP3    H242659   3.820   0.248   3.750
14240TIP3   OH242660   6.827   0.534   1.254
14240TIP3    H142661   6.896   0.483   1.297
14240TIP3    H242662   6.871   0.614   1.224
14241TIP3   OH242663   4.643   3.175   5.943
14241TIP3    H142664   4.695   3.161   5.864
14241TIP3    H242665   4.558   3.136   5.923
14242TIP3   OH242666   5.227   5.731   5.029
14242TIP3    H142667   5.284   5.801   5.060
14242TIP3    H242668   5.139   5.758   5.055
14243TIP3   OH242669  -0.019   7.689   3.493
14243TIP3    H142670   0.075   7.700   3.509
14243TIP3    H242671  -0.053   7.649   3.573
14244TIP3   OH242672   7.367   0.551   1.362
14244TIP3    H142673   7.276   0.531   1.381
14244TIP3    H242674   7.368   0.645   1.346
14245TIP3   OH242675   3.547   4.907   2.742
14245TIP3    H142676   3.508   4.919   2.828
14245TIP3    H242677   3.477   4.929   2.680
14246TIP3   OH242678   8.134   3.267   6.651
14246TIP3    H142679   8.129   3.177   6.620
14246TIP3    H242680   8.119   3.320   6.572
14247TIP3   OH242681   6.626   0.958   5.358
14247TIP3    H142682   6.648   0.887   5.298
14247TIP3    H242683   6.708   1.005   5.372
14248TIP3   OH242684   3.887   1.785   0.586
14248TIP3    H142685   3.979   1.791   0.614
14248TIP3    H242686   3.875   1.693   0.562
14249TIP3   OH242687   1.168   5.653   4.216
14249TIP3    H142688   1.250   5.689   4.182
14249TIP3    H242689   1.196   5.585   4.278
14250TIP3   OH242690   0.745   5.919   2.957
14250TIP3    H142691   0.717   5.894   3.045
14250TIP3    H242692   0.808   5.852   2.932
14251TIP3   OH242693   2.458   7.543   0.982
14251TIP3    H142694   2.436   7.615   1.041
14251TIP3    H242695   2.459   7.582   0.895
14252TIP3   OH242696   5.055   0.444   1.724
14252TIP3    H142697   5.039   0.501   1.648
14252TIP3    H242698   5.052   0.503   1.799
14253TIP3   OH242699   1.226   7.214   4.743
14253TIP3    H142700   1.260   7.246   4.660
14253TIP3    H242701   1.302   7.214   4.802
14254TIP3   OH242702   2.879   5.002   3.584
14254TIP3    H142703   2.928   4.922   3.600
14254TIP3    H242704   2.884   5.014   3.489
14255TIP3   OH242705   3.919   1.337   4.636
14255TIP3    H142706   3.862   1.414   4.632
14255TIP3    H242707   3.913   1.309   4.728
14256TIP3   OH242708   0.707   1.430   3.424
14256TIP3    H142709   0.681   1.389   3.341
14256TIP3    H242710   0.631   1.484   3.448
14257TIP3   OH242711   2.871   1.550   5.833
14257TIP3    H142712   2.823   1.559   5.750
14257TIP3    H242713   2.872   1.456   5.850
14258TIP3   OH242714   6.974   0.248   4.486
14258TIP3    H142715   6.912   0.267   4.556
14258TIP3    H242716   6.946   0.305   4.414
14259TIP3   OH242717   5.459   6.858   5.725
14259TIP3    H142718   5.402   6.797   5.771
14259TIP3    H242719   5.429   6.944   5.753
14260TIP3   OH242720   3.120   4.992   4.202
14260TIP3    H142721   3.044   5.028   4.247
14260TIP3    H242722   3.183   4.975   4.273
14261TIP3   OH242723   1.753   3.628   6.671
14261TIP3    H142724   1.833   3.577   6.681
14261TIP3    H242725   1.782   3.715   6.643
14262TIP3   OH242726   6.337   6.877   2.860
14262TIP3    H142727   6.351   6.949   2.921
14262TIP3    H242728   6.421   6.867   2.815
14263TIP3   OH242729   4.845   3.281   1.285
14263TIP3    H142730   4.880   3.226   1.214
14263TIP3    H242731   4.915   3.282   1.351
14264TIP3   OH242732   6.499   6.690   3.133
14264TIP3    H142733   6.512   6.677   3.227
14264TIP3    H242734   6.420   6.640   3.113
14265TIP3   OH242735   5.511   6.204   2.503
14265TIP3    H142736   5.600   6.176   2.524
14265TIP3    H242737   5.512   6.216   2.408
14266TIP3   OH242738   1.229   2.608   5.776
14266TIP3    H142739   1.142   2.582   5.806
14266TIP3    H242740   1.289   2.564   5.837
14267TIP3   OH242741   7.167   5.022   6.070
14267TIP3    H142742   7.166   5.114   6.042
14267TIP3    H242743   7.120   5.022   6.154
14268TIP3   OH242744   5.682   2.615   5.584
14268TIP3    H142745   5.678   2.601   5.490
14268TIP3    H242746   5.775   2.606   5.606
14269TIP3   OH242747   0.055   0.929   3.369
14269TIP3    H142748  -0.030   0.967   3.343
14269TIP3    H242749   0.083   0.879   3.292
14270TIP3   OH242750   3.992   2.180   3.655
14270TIP3    H142751   3.969   2.202   3.746
14270TIP3    H242752   4.001   2.265   3.612
14271TIP3   OH242753   1.385   0.148   5.838
14271TIP3    H142754   1.480   0.152   5.847
14271TIP3    H242755   1.351   0.180   5.921
14272TIP3   OH242756   6.220   5.216   1.795
14272TIP3    H142757   6.151   5.282   1.790
14272TIP3    H242758   6.206   5.161   1.718
14273TIP3   OH242759   0.839   0.200   5.235
14273TIP3    H142760   0.817   0.113   5.269
14273TIP3    H242761   0.773   0.216   5.167
14274TIP3   OH242762   3.645   3.211   5.342
14274TIP3    H142763   3.645   3.249   5.430
14274TIP3    H242764   3.724   3.246   5.301
14275TIP3   OH242765   3.887   5.557   1.636
14275TIP3    H142766   3.820   5.502   1.676
14275TIP3    H242767   3.871   5.644   1.671
14276TIP3   OH242768   2.233   6.845   2.791
14276TIP3    H142769   2.254   6.767   2.739
14276TIP3    H242770   2.188   6.904   2.731
14277TIP3   OH242771   7.298   1.041   6.827
14277TIP3    H142772   7.360   1.112   6.841
14277TIP3    H242773   7.215   1.084   6.805
14278TIP3   OH242774   0.609   4.821   0.812
14278TIP3    H142775   0.618   4.727   0.795
14278TIP3    H242776   0.632   4.863   0.729
14279TIP3   OH242777   8.074   3.223   0.297
14279TIP3    H142778   8.005   3.245   0.235
14279TIP3    H242779   8.027   3.197   0.377
14280TIP3   OH242780   2.436   6.633   2.970
14280TIP3    H142781   2.342   6.649   2.955
14280TIP3    H242782   2.438   6.551   3.019
14281TIP3   OH242783   0.324   3.502   3.138
14281TIP3    H142784   0.285   3.581   3.101
14281TIP3    H242785   0.416   3.523   3.148
14282TIP3   OH242786   6.580   2.971   3.781
14282TIP3    H142787   6.660   2.951   3.830
14282TIP3    H242788   6.559   2.889   3.736
14283TIP3   OH242789   8.311   6.817   0.651
14283TIP3    H142790   8.303   6.723   0.640
14283TIP3    H242791   8.224   6.851   0.631
14284TIP3   OH242792   5.162   7.748   1.031
14284TIP3    H142793   5.238   7.689   1.035
14284TIP3    H242794   5.100   7.703   0.973
14285TIP3   OH242795   3.705   1.709   6.629
14285TIP3    H142796   3.722   1.802   6.639
14285TIP3    H242797   3.759   1.683   6.554
14286TIP3   OH242798   0.614   7.827   4.783
14286TIP3    H142799   0.535   7.870   4.815
14286TIP3    H242800   0.685   7.863   4.837
14287TIP3   OH242801   5.205   2.397   2.565
14287TIP3    H142802   5.136   2.464   2.558
14287TIP3    H242803   5.228   2.396   2.658
14288TIP3   OH242804   1.867   2.082   2.357
14288TIP3    H142805   1.962   2.093   2.363
14288TIP3    H242806   1.852   2.041   2.272
14289TIP3   OH242807   3.258   5.733   3.017
14289TIP3    H142808   3.290   5.811   2.972
14289TIP3    H242809   3.308   5.661   2.978
14290TIP3   OH242810   4.405   0.389   3.349
14290TIP3    H142811   4.422   0.482   3.334
14290TIP3    H242812   4.313   0.378   3.323
14291TIP3   OH242813   5.755   5.955   5.487
14291TIP3    H142814   5.808   5.991   5.416
14291TIP3    H242815   5.803   5.878   5.517
14292TIP3   OH242816   0.271   3.648   1.492
14292TIP3    H142817   0.328   3.600   1.431
14292TIP3    H242818   0.292   3.740   1.477
14293TIP3   OH242819   6.731   0.583   0.463
14293TIP3    H142820   6.823   0.559   0.454
14293TIP3    H242821   6.718   0.597   0.557
14294TIP3   OH242822   5.742   6.308   6.062
14294TIP3    H142823   5.710   6.376   6.122
14294TIP3    H242824   5.830   6.336   6.039
14295TIP3   OH242825   4.522   6.539   3.303
14295TIP3    H142826   4.596   6.519   3.246
14295TIP3    H242827   4.539   6.490   3.383
14296TIP3   OH242828   7.810   3.499   5.247
14296TIP3    H142829   7.737   3.471   5.303
14296TIP3    H242830   7.798   3.594   5.239
14297TIP3   OH242831   1.872   2.222   2.708
14297TIP3    H142832   1.904   2.228   2.798
14297TIP3    H242833   1.886   2.131   2.684
14298TIP3   OH242834   1.322   7.482   0.146
14298TIP3    H142835   1.275   7.400   0.137
14298TIP3    H242836   1.389   7.465   0.212
14299TIP3   OH242837   0.183   2.315   6.331
14299TIP3    H142838   0.242   2.285   6.400
14299TIP3    H242839   0.167   2.407   6.351
14300TIP3   OH242840   0.393   0.493   4.557
14300TIP3    H142841   0.392   0.404   4.591
14300TIP3    H242842   0.379   0.482   4.463
14301TIP3   OH242843   2.129   2.113   2.377
14301TIP3    H142844   2.130   2.208   2.375
14301TIP3    H242845   2.205   2.089   2.429
14302TIP3   OH242846   4.583   6.604   0.558
14302TIP3    H142847   4.619   6.692   0.566
14302TIP3    H242848   4.518   6.612   0.488
14303TIP3   OH242849   3.435   5.378   4.764
14303TIP3    H142850   3.426   5.460   4.716
14303TIP3    H242851   3.449   5.311   4.697
14304TIP3   OH242852   4.406   2.962   5.584
14304TIP3    H142853   4.452   2.881   5.604
14304TIP3    H242854   4.431   2.982   5.494
14305TIP3   OH242855   1.239   5.894   2.313
14305TIP3    H142856   1.293   5.948   2.255
14305TIP3    H242857   1.205   5.825   2.257
14306TIP3   OH242858   5.186   6.691   3.041
14306TIP3    H142859   5.104   6.740   3.048
14306TIP3    H242860   5.165   6.615   2.987
14307TIP3   OH242861   4.287   4.817   3.910
14307TIP3    H142862   4.272   4.857   3.996
14307TIP3    H242863   4.242   4.733   3.915
14308TIP3   OH242864   1.641   6.889   1.636
14308TIP3    H142865   1.674   6.888   1.726
14308TIP3    H242866   1.560   6.939   1.640
14309TIP3   OH242867   3.516   7.810   3.653
14309TIP3    H142868   3.449   7.847   3.596
14309TIP3    H242869   3.524   7.873   3.725
14310TIP3   OH242870   7.596   0.512   4.703
14310TIP3    H142871   7.608   0.601   4.736
14310TIP3    H242872   7.562   0.524   4.615
14311TIP3   OH242873   3.712   1.334   4.329
14311TIP3    H142874   3.672   1.406   4.379
14311TIP3    H242875   3.647   1.313   4.262
14312TIP3   OH242876   0.654   6.632   1.780
14312TIP3    H142877   0.601   6.618   1.858
14312TIP3    H242878   0.629   6.561   1.721
14313TIP3   OH242879   2.327   0.464   2.079
14313TIP3    H142880   2.408   0.472   2.130
14313TIP3    H242881   2.275   0.401   2.128
14314TIP3   OH242882   5.332   5.385   6.417
14314TIP3    H142883   5.362   5.346   6.498
14314TIP3    H242884   5.401   5.367   6.354
14315TIP3   OH242885   2.332   3.328   4.951
14315TIP3    H142886   2.276   3.264   4.907
14315TIP3    H242887   2.384   3.366   4.880
14316TIP3   OH242888   4.796   6.188   3.835
14316TIP3    H142889   4.871   6.159   3.782
14316TIP3    H242890   4.781   6.279   3.807
14317TIP3   OH242891   5.448   3.530   0.957
14317TIP3    H142892   5.416   3.441   0.970
14317TIP3    H242893   5.432   3.573   1.041
14318TIP3   OH242894   7.890   1.844   5.651
14318TIP3    H142895   7.825   1.783   5.685
14318TIP3    H242896   7.843   1.927   5.642
14319TIP3   OH242897   2.938   5.551   3.212
14319TIP3    H142898   2.897   5.532   3.296
14319TIP3    H242899   2.864   5.558   3.151
14320TIP3   OH242900   2.014   6.800   5.500
14320TIP3    H142901   2.076   6.846   5.556
14320TIP3    H242902   2.023   6.708   5.526
14321TIP3   OH242903   5.166   6.303   4.486
14321TIP3    H142904   5.171   6.356   4.406
14321TIP3    H242905   5.206   6.358   4.553
14322TIP3   OH242906   1.340   5.180   0.166
14322TIP3    H142907   1.261   5.173   0.113
14322TIP3    H242908   1.365   5.090   0.184
14323TIP3   OH242909   7.520   1.118   0.625
14323TIP3    H142910   7.536   1.155   0.711
14323TIP3    H242911   7.428   1.138   0.607
14324TIP3   OH242912   7.233   3.466   1.839
14324TIP3    H142913   7.318   3.453   1.880
14324TIP3    H242914   7.212   3.558   1.856
14325TIP3   OH242915   7.848   4.196   2.122
14325TIP3    H142916   7.860   4.120   2.065
14325TIP3    H242917   7.894   4.173   2.202
14326TIP3   OH242918   6.835   0.258   1.463
14326TIP3    H142919   6.830   0.325   1.531
14326TIP3    H242920   6.922   0.220   1.474
14327TIP3   OH242921   7.206   5.796   2.963
14327TIP3    H142922   7.206   5.758   3.052
14327TIP3    H242923   7.285   5.761   2.922
14328TIP3   OH242924   2.904   3.587   0.553
14328TIP3    H142925   2.902   3.650   0.481
14328TIP3    H242926   2.971   3.524   0.528
14329TIP3   OH242927   6.603   1.007   4.856
14329TIP3    H142928   6.571   1.068   4.789
14329TIP3    H242929   6.612   0.924   4.809
14330TIP3   OH242930   4.566   7.667   1.765
14330TIP3    H142931   4.615   7.588   1.787
14330TIP3    H242932   4.519   7.690   1.846
14331TIP3   OH242933   3.414   2.995   4.647
14331TIP3    H142934   3.416   2.913   4.697
14331TIP3    H242935   3.472   2.979   4.573
14332TIP3   OH242936   5.257   1.545   4.139
14332TIP3    H142937   5.325   1.586   4.086
14332TIP3    H242938   5.177   1.557   4.089
14333TIP3   OH242939   2.513   0.881   0.171
14333TIP3    H142940   2.428   0.836   0.168
14333TIP3    H242941   2.532   0.892   0.264
14334TIP3   OH242942   3.357   5.202   1.159
14334TIP3    H142943   3.321   5.123   1.199
14334TIP3    H242944   3.282   5.241   1.112
14335TIP3   OH242945   1.552   7.450   1.539
14335TIP3    H142946   1.647   7.444   1.528
14335TIP3    H242947   1.518   7.373   1.493
14336TIP3   OH242948   0.746   1.470   2.799
14336TIP3    H142949   0.715   1.491   2.711
14336TIP3    H242950   0.776   1.554   2.834
14337TIP3   OH242951   4.981   2.411   6.369
14337TIP3    H142952   4.975   2.486   6.310
14337TIP3    H242953   5.016   2.447   6.451
14338TIP3   OH242954   3.711   0.291   1.754
14338TIP3    H142955   3.692   0.306   1.662
14338TIP3    H242956   3.741   0.200   1.758
14339TIP3   OH242957   4.803   5.639   5.717
14339TIP3    H142958   4.873   5.576   5.737
14339TIP3    H242959   4.848   5.724   5.713
14340TIP3   OH242960   2.182   2.965   0.788
14340TIP3    H142961   2.254   2.927   0.738
14340TIP3    H242962   2.112   2.977   0.724
14341TIP3   OH242963   4.017   6.293   3.707
14341TIP3    H142964   3.948   6.338   3.659
14341TIP3    H242965   4.053   6.230   3.644
14342TIP3   OH242966   2.478   4.373   0.411
14342TIP3    H142967   2.383   4.359   0.411
14342TIP3    H242968   2.504   4.359   0.320
14343TIP3   OH242969   3.733   7.677   0.256
14343TIP3    H142970   3.731   7.614   0.184
14343TIP3    H242971   3.817   7.723   0.245
14344TIP3   OH242972   3.718   6.115   4.707
14344TIP3    H142973   3.650   6.179   4.684
14344TIP3    H242974   3.794   6.142   4.657
14345TIP3   OH242975   6.178   1.155   1.724
14345TIP3    H142976   6.103   1.167   1.666
14345TIP3    H242977   6.242   1.107   1.672
14346TIP3   OH242978   4.132   6.499   1.814
14346TIP3    H142979   4.148   6.558   1.741
14346TIP3    H242980   4.147   6.554   1.892
14347TIP3   OH242981   0.693   6.234   5.386
14347TIP3    H142982   0.747   6.247   5.464
14347TIP3    H242983   0.730   6.158   5.344
14348TIP3   OH242984   2.946   3.983   3.295
14348TIP3    H142985   2.977   3.950   3.211
14348TIP3    H242986   2.909   3.907   3.340
14349TIP3   OH242987   1.480   7.269   0.867
14349TIP3    H142988   1.524   7.188   0.842
14349TIP3    H242989   1.546   7.318   0.917
14350TIP3   OH242990   2.612   4.865   0.654
14350TIP3    H142991   2.543   4.829   0.597
14350TIP3    H242992   2.565   4.917   0.719
14351TIP3   OH242993   7.259   7.027   1.857
14351TIP3    H142994   7.300   7.026   1.943
14351TIP3    H242995   7.318   6.976   1.801
14352TIP3   OH242996   4.287   3.784   6.052
14352TIP3    H142997   4.380   3.801   6.063
14352TIP3    H242998   4.257   3.850   5.989
14353TIP3   OH242999   6.821   0.967   4.485
14353TIP3    H143000   6.739   1.007   4.458
14353TIP3    H243001   6.866   1.037   4.534
14354TIP3   OH243002   2.766   2.056   5.403
14354TIP3    H143003   2.692   2.009   5.366
14354TIP3    H243004   2.795   2.115   5.333
14355TIP3   OH243005   1.945   7.080   2.776
14355TIP3    H143006   2.018   7.127   2.818
14355TIP3    H243007   1.874   7.086   2.839
14356TIP3   OH243008   1.679   0.376   5.962
14356TIP3    H143009   1.692   0.304   5.901
14356TIP3    H243010   1.639   0.335   6.039
14357TIP3   OH243011   1.234   4.423   2.478
14357TIP3    H143012   1.143   4.447   2.458
14357TIP3    H243013   1.255   4.471   2.557
14358TIP3   OH243014   5.590   3.215   0.480
14358TIP3    H143015   5.576   3.190   0.388
14358TIP3    H243016   5.647   3.147   0.514
14359TIP3   OH243017   7.887   2.353   1.281
14359TIP3    H143018   7.873   2.430   1.226
14359TIP3    H243019   7.900   2.388   1.369
14360TIP3   OH243020   2.646   3.692   6.227
14360TIP3    H143021   2.602   3.637   6.163
14360TIP3    H243022   2.598   3.775   6.224
14361TIP3   OH243023   5.640   3.119   4.386
14361TIP3    H143024   5.619   3.122   4.292
14361TIP3    H243025   5.735   3.109   4.389
14362TIP3   OH243026   3.586   2.497   4.285
14362TIP3    H143027   3.609   2.404   4.278
14362TIP3    H243028   3.608   2.534   4.200
14363TIP3   OH243029   5.658   6.015   6.248
14363TIP3    H143030   5.583   6.014   6.188
14363TIP3    H243031   5.729   6.054   6.197
14364TIP3   OH243032   3.492   3.980   5.620
14364TIP3    H143033   3.567   3.993   5.562
14364TIP3    H243034   3.442   3.910   5.578
14365TIP3   OH243035   3.823   0.857   4.618
14365TIP3    H143036   3.880   0.860   4.695
14365TIP3    H243037   3.772   0.938   4.622
14366TIP3   OH243038   8.177   5.449   4.852
14366TIP3    H143039   8.198   5.511   4.783
14366TIP3    H243040   8.251   5.389   4.854
14367TIP3   OH243041   8.185   2.422   6.409
14367TIP3    H143042   8.091   2.433   6.420
14367TIP3    H243043   8.196   2.334   6.375
14368TIP3   OH243044   0.095   4.921   1.815
14368TIP3    H143045   0.157   4.860   1.777
14368TIP3    H243046   0.091   4.994   1.753
14369TIP3   OH243047   8.361   2.249   5.606
14369TIP3    H143048   8.267   2.235   5.593
14369TIP3    H243049   8.395   2.161   5.626
14370TIP3   OH243050   3.343   0.941   0.615
14370TIP3    H143051   3.281   0.996   0.664
14370TIP3    H243052   3.429   0.970   0.643
14371TIP3   OH243053   4.048   3.539   6.678
14371TIP3    H143054   4.005   3.602   6.619
14371TIP3    H243055   4.051   3.585   6.762
14372TIP3   OH243056   6.722   4.539   2.209
14372TIP3    H143057   6.727   4.617   2.154
14372TIP3    H243058   6.812   4.508   2.214
14373TIP3   OH243059   4.323   5.124   3.090
14373TIP3    H143060   4.288   5.040   3.119
14373TIP3    H243061   4.379   5.153   3.162
14374TIP3   OH243062   6.340   7.015   3.126
14374TIP3    H143063   6.313   7.106   3.123
14374TIP3    H243064   6.309   6.983   3.210
14375TIP3   OH243065   6.563   4.141   5.625
14375TIP3    H143066   6.542   4.104   5.540
14375TIP3    H243067   6.653   4.113   5.643
14376TIP3   OH243068   5.408   1.659   1.563
14376TIP3    H143069   5.376   1.612   1.640
14376TIP3    H243070   5.455   1.593   1.512
14377TIP3   OH243071   6.383   3.919   4.342
14377TIP3    H143072   6.468   3.963   4.338
14377TIP3    H243073   6.395   3.838   4.293
14378TIP3   OH243074   7.478   4.916   1.117
14378TIP3    H143075   7.432   4.983   1.167
14378TIP3    H243076   7.424   4.837   1.128
14379TIP3   OH243077   5.799   0.104   2.015
14379TIP3    H143078   5.810   0.103   2.110
14379TIP3    H243079   5.870   0.160   1.983
14380TIP3   OH243080   7.172   4.905   3.317
14380TIP3    H143081   7.180   4.904   3.412
14380TIP3    H243082   7.138   4.818   3.295
14381TIP3   OH243083   1.981   0.257   0.559
14381TIP3    H143084   2.010   0.270   0.468
14381TIP3    H243085   2.048   0.200   0.597
14382TIP3   OH243086   5.569   7.701   5.998
14382TIP3    H143087   5.513   7.778   5.991
14382TIP3    H243088   5.604   7.689   5.909
14383TIP3   OH243089   4.156   4.855   0.097
14383TIP3    H143090   4.161   4.858   0.192
14383TIP3    H243091   4.242   4.886   0.067
14384TIP3   OH243092   6.096   6.859   1.896
14384TIP3    H143093   6.117   6.952   1.896
14384TIP3    H243094   6.147   6.823   1.823
14385TIP3   OH243095   7.461   5.502   0.752
14385TIP3    H143096   7.404   5.428   0.731
14385TIP3    H243097   7.523   5.468   0.816
14386TIP3   OH243098   5.326   6.578   6.764
14386TIP3    H143099   5.335   6.637   6.689
14386TIP3    H243100   5.315   6.491   6.724
14387TIP3   OH243101   3.465   3.758   1.864
14387TIP3    H143102   3.460   3.668   1.832
14387TIP3    H243103   3.407   3.807   1.806
14388TIP3   OH243104   3.024   1.804   4.803
14388TIP3    H143105   3.053   1.743   4.869
14388TIP3    H243106   3.094   1.868   4.796
14389TIP3   OH243107   0.208   2.402   2.213
14389TIP3    H143108   0.148   2.377   2.284
14389TIP3    H243109   0.187   2.494   2.197
14390TIP3   OH243110   6.677   5.146   6.523
14390TIP3    H143111   6.733   5.096   6.583
14390TIP3    H243112   6.600   5.168   6.576
14391TIP3   OH243113   6.532   1.410   0.207
14391TIP3    H143114   6.526   1.319   0.237
14391TIP3    H243115   6.499   1.407   0.117
14392TIP3   OH243116   1.026   4.621   2.832
14392TIP3    H143117   1.069   4.543   2.795
14392TIP3    H243118   1.013   4.679   2.758
14393TIP3   OH243119   4.340   6.454   2.482
14393TIP3    H143120   4.347   6.487   2.572
14393TIP3    H243121   4.428   6.463   2.447
14394TIP3   OH243122   1.318   5.942   6.723
14394TIP3    H143123   1.328   5.913   6.633
14394TIP3    H243124   1.242   6.000   6.722
14395TIP3   OH243125   2.728   5.109   2.807
14395TIP3    H143126   2.746   5.090   2.715
14395TIP3    H243127   2.768   5.036   2.854
14396TIP3   OH243128   7.174   7.357   3.578
14396TIP3    H143129   7.259   7.400   3.590
14396TIP3    H243130   7.149   7.330   3.666
14397TIP3   OH243131   3.736   7.770   4.600
14397TIP3    H143132   3.829   7.756   4.584
14397TIP3    H243133   3.694   7.688   4.575
14398TIP3   OH243134   1.957   5.697   3.496
14398TIP3    H143135   1.887   5.762   3.502
14398TIP3    H243136   1.976   5.689   3.403
14399TIP3   OH243137   2.533   5.294   1.666
14399TIP3    H143138   2.601   5.346   1.708
14399TIP3    H243139   2.465   5.285   1.732
14400TIP3   OH243140   1.746   5.340   2.023
14400TIP3    H143141   1.815   5.274   2.016
14400TIP3    H243142   1.717   5.334   2.114
14401TIP3   OH243143   2.062   4.946   2.064
14401TIP3    H143144   2.141   4.917   2.109
14401TIP3    H243145   1.992   4.891   2.100
14402TIP3   OH243146   5.872   4.667   2.581
14402TIP3    H143147   5.824   4.587   2.600
14402TIP3    H243148   5.912   4.691   2.664
14403TIP3   OH243149   2.954   6.245   2.029
14403TIP3    H143150   2.984   6.162   1.992
14403TIP3    H243151   3.017   6.264   2.099
14404TIP3   OH243152   1.003   2.241   2.780
14404TIP3    H143153   0.944   2.236   2.705
14404TIP3    H243154   1.012   2.335   2.798
14405TIP3   OH243155   0.700   7.215   6.475
14405TIP3    H143156   0.662   7.227   6.388
14405TIP3    H243157   0.791   7.189   6.459
14406TIP3   OH243158   0.796   2.982   5.056
14406TIP3    H143159   0.711   2.941   5.071
14406TIP3    H243160   0.791   3.067   5.100
14407TIP3   OH243161   0.484   4.727   3.975
14407TIP3    H143162   0.431   4.720   4.054
14407TIP3    H243163   0.458   4.652   3.922
14408TIP3   OH243164   8.251   0.559   0.080
14408TIP3    H143165   8.309   0.601   0.017
14408TIP3    H243166   8.168   0.607   0.073
14409TIP3   OH243167   4.534   1.534   2.560
14409TIP3    H143168   4.546   1.576   2.475
14409TIP3    H243169   4.452   1.485   2.551
14410TIP3   OH243170   2.454   4.663   1.280
14410TIP3    H143171   2.379   4.618   1.241
14410TIP3    H243172   2.503   4.594   1.324
14411TIP3   OH243173   7.824   3.437   2.019
14411TIP3    H143174   7.841   3.502   2.087
14411TIP3    H243175   7.734   3.453   1.992
14412TIP3   OH243176   2.613   3.449   6.373
14412TIP3    H143177   2.582   3.527   6.326
14412TIP3    H243178   2.539   3.388   6.369
14413TIP3   OH243179   1.028   4.173   0.826
14413TIP3    H143180   1.104   4.219   0.791
14413TIP3    H243181   1.006   4.221   0.906
14414TIP3   OH243182   4.633   4.694   4.102
14414TIP3    H143183   4.553   4.642   4.104
14414TIP3    H243184   4.613   4.766   4.042
14415TIP3   OH243185   7.561   2.360   6.775
14415TIP3    H143186   7.637   2.313   6.809
14415TIP3    H243187   7.491   2.294   6.772
14416TIP3   OH243188   6.911   7.068   1.076
14416TIP3    H143189   7.007   7.070   1.080
14416TIP3    H243190   6.886   7.018   1.154
14417TIP3   OH243191   5.820   4.375   5.928
14417TIP3    H143192   5.789   4.379   6.019
14417TIP3    H243193   5.744   4.344   5.879
14418TIP3   OH243194   1.520   4.802   5.035
14418TIP3    H143195   1.497   4.737   4.967
14418TIP3    H243196   1.604   4.771   5.069
14419TIP3   OH243197   7.063   5.752   6.204
14419TIP3    H143198   7.085   5.744   6.297
14419TIP3    H243199   7.058   5.662   6.172
14420TIP3   OH243200   3.316   0.650   6.255
14420TIP3    H143201   3.316   0.701   6.173
14420TIP3    H243202   3.241   0.591   6.246
14421TIP3   OH243203   5.427   3.446   5.231
14421TIP3    H143204   5.464   3.359   5.249
14421TIP3    H243205   5.444   3.461   5.138
14422TIP3   OH243206   7.220   5.375   2.925
14422TIP3    H143207   7.172   5.423   2.992
14422TIP3    H243208   7.303   5.422   2.917
14423TIP3   OH243209   7.450   3.746   3.673
14423TIP3    H143210   7.455   3.701   3.589
14423TIP3    H243211   7.420   3.679   3.735
14424TIP3   OH243212   0.350   1.168   6.842
14424TIP3    H143213   0.345   1.135   6.752
14424TIP3    H243214   0.442   1.192   6.853
14425TIP3   OH243215   5.546   3.649   4.345
14425TIP3    H143216   5.502   3.733   4.351
14425TIP3    H243217   5.639   3.669   4.358
14426TIP3   OH243218   7.861   5.999   1.019
14426TIP3    H143219   7.820   6.032   0.939
14426TIP3    H243220   7.851   6.071   1.082
14427TIP3   OH243221   0.448   2.249   2.261
14427TIP3    H143222   0.368   2.302   2.258
14427TIP3    H243223   0.432   2.177   2.200
14428TIP3   OH243224   5.729   6.440   4.681
14428TIP3    H143225   5.800   6.462   4.621
14428TIP3    H243226   5.760   6.362   4.728
14429TIP3   OH243227   3.997   2.577   5.071
14429TIP3    H143228   4.048   2.567   5.152
14429TIP3    H243229   3.963   2.490   5.054
14430TIP3   OH243230   5.453   4.178   0.270
14430TIP3    H143231   5.498   4.097   0.292
14430TIP3    H243232   5.515   4.247   0.296
14431TIP3   OH243233   7.339   5.659   3.177
14431TIP3    H143234   7.398   5.620   3.113
14431TIP3    H243235   7.339   5.599   3.251
14432TIP3   OH243236   2.859   4.989   3.285
14432TIP3    H143237   2.828   4.999   3.194
14432TIP3    H243238   2.779   4.975   3.335
14433TIP3   OH243239   0.069   1.908   4.306
14433TIP3    H143240   0.102   1.848   4.239
14433TIP3    H243241   0.128   1.983   4.301
14434TIP3   OH243242   7.005   2.014   3.115
14434TIP3    H143243   6.964   1.942   3.067
14434TIP3    H243244   6.995   2.090   3.057
14435TIP3   OH243245   3.639   5.056   1.478
14435TIP3    H143246   3.575   5.029   1.544
14435TIP3    H243247   3.692   4.977   1.463
14436TIP3   OH243248   6.551   6.276   2.819
14436TIP3    H143249   6.502   6.345   2.773
14436TIP3    H243250   6.487   6.207   2.834
14437TIP3   OH243251   7.354   0.699   1.635
14437TIP3    H143252   7.352   0.708   1.730
14437TIP3    H243253   7.327   0.785   1.603
14438TIP3   OH243254   8.307   6.192   2.403
14438TIP3    H143255   8.339   6.241   2.327
14438TIP3    H243256   8.234   6.244   2.436
14439TIP3   OH243257   1.302   4.305   5.036
14439TIP3    H143258   1.321   4.275   5.125
14439TIP3    H243259   1.374   4.272   4.983
14440TIP3   OH243260   3.036   7.557   2.653
14440TIP3    H143261   3.089   7.480   2.673
14440TIP3    H243262   3.040   7.610   2.733
14441TIP3   OH243263   4.585   2.068   2.393
14441TIP3    H143264   4.617   2.158   2.381
14441TIP3    H243265   4.503   2.078   2.442
14442TIP3   OH243266   4.735   5.626   1.474
14442TIP3    H143267   4.692   5.545   1.502
14442TIP3    H243268   4.825   5.617   1.507
14443TIP3   OH243269   3.259   4.423   1.352
14443TIP3    H143270   3.226   4.451   1.438
14443TIP3    H243271   3.214   4.340   1.335
14444TIP3   OH243272   4.609   3.629   4.437
14444TIP3    H143273   4.642   3.698   4.496
14444TIP3    H243274   4.647   3.651   4.352
14445TIP3   OH243275   1.514   5.477   0.893
14445TIP3    H143276   1.532   5.454   0.984
14445TIP3    H243277   1.420   5.460   0.882
14446TIP3   OH243278   1.260   7.538   6.128
14446TIP3    H143279   1.229   7.629   6.128
14446TIP3    H243280   1.196   7.491   6.074
14447TIP3   OH243281   5.549   2.531   1.930
14447TIP3    H143282   5.494   2.601   1.895
14447TIP3    H243283   5.527   2.454   1.876
14448TIP3   OH243284   2.881   3.867   4.931
14448TIP3    H143285   2.818   3.937   4.912
14448TIP3    H243286   2.926   3.895   5.010
14449TIP3   OH243287   1.260   1.904   3.622
14449TIP3    H143288   1.175   1.862   3.630
14449TIP3    H243289   1.297   1.869   3.540
14450TIP3   OH243290   4.634   3.563   5.436
14450TIP3    H143291   4.585   3.574   5.355
14450TIP3    H243292   4.567   3.551   5.503
14451TIP3   OH243293   7.881   3.863   2.342
14451TIP3    H143294   7.865   3.773   2.314
14451TIP3    H243295   7.836   3.869   2.427
14452TIP3   OH243296   1.599   6.148   0.043
14452TIP3    H143297   1.676   6.091   0.038
14452TIP3    H243298   1.566   6.152  -0.046
14453TIP3   OH243299   0.563   2.236   0.398
14453TIP3    H143300   0.469   2.221   0.412
14453TIP3    H243301   0.571   2.331   0.387
14454TIP3   OH243302   0.477   3.252   0.934
14454TIP3    H143303   0.390   3.273   0.901
14454TIP3    H243304   0.485   3.157   0.923
14455TIP3   OH243305   6.199   1.518   6.335
14455TIP3    H143306   6.155   1.433   6.344
14455TIP3    H243307   6.289   1.501   6.362
14456TIP3   OH243308   3.559   0.582   6.340
14456TIP3    H143309   3.469   0.598   6.311
14456TIP3    H243310   3.613   0.621   6.272
14457TIP3   OH243311   4.318   2.863   6.076
14457TIP3    H143312   4.405   2.893   6.050
14457TIP3    H243313   4.335   2.798   6.144
14458TIP3   OH243314   2.310   2.227   3.066
14458TIP3    H143315   2.406   2.227   3.066
14458TIP3    H243316   2.286   2.316   3.092
14459TIP3   OH243317   4.637   5.106   0.279
14459TIP3    H143318   4.602   5.179   0.331
14459TIP3    H243319   4.694   5.059   0.340
14460TIP3   OH243320   1.612   1.635   2.633
14460TIP3    H143321   1.648   1.710   2.681
14460TIP3    H243322   1.654   1.639   2.547
14461TIP3   OH243323   8.309   4.981   2.932
14461TIP3    H143324   8.347   5.008   3.015
14461TIP3    H243325   8.229   4.934   2.956
14462TIP3   OH243326   7.729   2.802   0.773
14462TIP3    H143327   7.674   2.790   0.850
14462TIP3    H243328   7.689   2.745   0.706
14463TIP3   OH243329   3.342   1.549   2.494
14463TIP3    H143330   3.436   1.564   2.480
14463TIP3    H243331   3.324   1.470   2.444
14464TIP3   OH243332   7.490   7.845   6.437
14464TIP3    H143333   7.525   7.848   6.526
14464TIP3    H243334   7.566   7.828   6.382
14465TIP3   OH243335   6.056   0.499   0.525
14465TIP3    H143336   5.975   0.499   0.576
14465TIP3    H243337   6.125   0.509   0.591
14466TIP3   OH243338   1.148   5.016   1.974
14466TIP3    H143339   1.158   5.018   2.069
14466TIP3    H243340   1.083   4.947   1.958
14467TIP3   OH243341   2.933   1.708   4.252
14467TIP3    H143342   3.021   1.737   4.277
14467TIP3    H243343   2.900   1.662   4.329
14468TIP3   OH243344   5.603   0.632   3.710
14468TIP3    H143345   5.552   0.604   3.634
14468TIP3    H243346   5.687   0.659   3.673
14469TIP3   OH243347   2.236   4.364   0.761
14469TIP3    H143348   2.303   4.297   0.750
14469TIP3    H243349   2.279   4.435   0.809
14470TIP3   OH243350   2.360   2.967   2.473
14470TIP3    H143351   2.365   3.051   2.428
14470TIP3    H243352   2.393   2.904   2.409
14471TIP3   OH243353   3.550   4.366   2.913
14471TIP3    H143354   3.481   4.418   2.871
14471TIP3    H243355   3.627   4.381   2.858
14472TIP3   OH243356   1.365   7.087   0.270
14472TIP3    H143357   1.291   7.077   0.211
14472TIP3    H243358   1.331   7.064   0.356
14473TIP3   OH243359   4.595   3.560   3.552
14473TIP3    H143360   4.548   3.633   3.594
14473TIP3    H243361   4.682   3.595   3.533
14474TIP3   OH243362   6.316   6.352   6.731
14474TIP3    H143363   6.398   6.306   6.747
14474TIP3    H243364   6.267   6.294   6.674
14475TIP3   OH243365   4.694   6.231   1.265
14475TIP3    H143366   4.688   6.307   1.207
14475TIP3    H243367   4.769   6.250   1.322
14476TIP3   OH243368   6.471   4.891   2.730
14476TIP3    H143369   6.532   4.941   2.784
14476TIP3    H243370   6.419   4.840   2.792
14477TIP3   OH243371   2.390   6.969   0.683
14477TIP3    H143372   2.459   7.028   0.714
14477TIP3    H243373   2.317   7.026   0.662
14478TIP3   OH243374   0.795   1.700   3.420
14478TIP3    H143375   0.782   1.605   3.419
14478TIP3    H243376   0.871   1.715   3.365
14479TIP3   OH243377   3.173   0.228   3.635
14479TIP3    H143378   3.101   0.201   3.579
14479TIP3    H243379   3.180   0.159   3.701
14480TIP3   OH243380   0.314   6.658   2.356
14480TIP3    H143381   0.303   6.731   2.417
14480TIP3    H243382   0.241   6.666   2.295
14481TIP3   OH243383   2.854   3.626   0.972
14481TIP3    H143384   2.897   3.652   0.890
14481TIP3    H243385   2.761   3.639   0.954
14482TIP3   OH243386   5.873   2.926   4.775
14482TIP3    H143387   5.942   2.942   4.710
14482TIP3    H243388   5.793   2.961   4.734
14483TIP3   OH243389   3.379   3.681   5.577
14483TIP3    H143390   3.464   3.697   5.536
14483TIP3    H243391   3.384   3.724   5.662
14484TIP3   OH243392   5.225   3.238   1.617
14484TIP3    H143393   5.240   3.305   1.684
14484TIP3    H243394   5.178   3.284   1.547
14485TIP3   OH243395   7.169   2.429   3.723
14485TIP3    H143396   7.130   2.497   3.778
14485TIP3    H243397   7.095   2.383   3.685
14486TIP3   OH243398   3.551   2.942   6.441
14486TIP3    H143399   3.464   2.979   6.461
14486TIP3    H243400   3.574   2.981   6.357
14487TIP3   OH243401   2.988   3.470   0.096
14487TIP3    H143402   3.034   3.448   0.014
14487TIP3    H243403   2.898   3.488   0.068
14488TIP3   OH243404   2.991   7.291   1.544
14488TIP3    H143405   2.938   7.345   1.485
14488TIP3    H243406   3.005   7.346   1.621
14489TIP3   OH243407   4.520   0.989   3.057
14489TIP3    H143408   4.502   1.045   3.133
14489TIP3    H243409   4.555   1.049   2.991
14490TIP3   OH243410   4.193   6.840   3.412
14490TIP3    H143411   4.124   6.896   3.446
14490TIP3    H243412   4.156   6.751   3.417
14491TIP3   OH243413   7.643   6.919   6.724
14491TIP3    H143414   7.624   6.927   6.631
14491TIP3    H243415   7.560   6.894   6.764
14492TIP3   OH243416   5.786   3.030   0.619
14492TIP3    H143417   5.831   2.960   0.666
14492TIP3    H243418   5.839   3.045   0.541
14493TIP3   OH243419   4.566   1.120   0.994
14493TIP3    H143420   4.591   1.033   0.962
14493TIP3    H243421   4.597   1.180   0.926
14494TIP3   OH243422   6.392   5.170   3.714
14494TIP3    H143423   6.429   5.140   3.797
14494TIP3    H243424   6.367   5.261   3.731
14495TIP3   OH243425   7.501   3.338   1.346
14495TIP3    H143426   7.480   3.339   1.253
14495TIP3    H243427   7.518   3.430   1.368
14496TIP3   OH243428   1.762   0.211   5.500
14496TIP3    H143429   1.788   0.228   5.591
14496TIP3    H243430   1.751   0.116   5.496
14497TIP3   OH243431   8.292   1.181   1.104
14497TIP3    H143432   8.263   1.184   1.013
14497TIP3    H243433   8.237   1.247   1.148
14498TIP3   OH243434   0.716   1.834   3.151
14498TIP3    H143435   0.697   1.887   3.228
14498TIP3    H243436   0.690   1.889   3.077
14499TIP3   OH243437   5.674   2.739   2.611
14499TIP3    H143438   5.659   2.648   2.636
14499TIP3    H243439   5.679   2.737   2.516
14500TIP3   OH243440   2.577   0.116   0.968
14500TIP3    H143441   2.542   0.163   1.044
14500TIP3    H243442   2.672   0.129   0.973
14501TIP3   OH243443   2.302   6.645   5.601
14501TIP3    H143444   2.381   6.699   5.588
14501TIP3    H243445   2.279   6.658   5.692
14502TIP3   OH243446   4.308   0.045   3.582
14502TIP3    H143447   4.266   0.106   3.642
14502TIP3    H243448   4.244   0.033   3.512
14503TIP3   OH243449   6.196   7.244   0.020
14503TIP3    H143450   6.257   7.175  -0.005
14503TIP3    H243451   6.243   7.326   0.003
14504TIP3   OH243452   1.183   3.229   4.860
14504TIP3    H143453   1.267   3.224   4.813
14504TIP3    H243454   1.208   3.253   4.949
14505TIP3   OH243455   6.900   6.563   1.985
14505TIP3    H143456   6.846   6.630   2.026
14505TIP3    H243457   6.990   6.592   2.000
14506TIP3   OH243458   5.188   5.681   4.424
14506TIP3    H143459   5.122   5.740   4.389
14506TIP3    H243460   5.140   5.624   4.485
14507TIP3   OH243461   7.202   4.424   6.087
14507TIP3    H143462   7.178   4.427   6.180
14507TIP3    H243463   7.294   4.397   6.086
14508TIP3   OH243464   1.918   6.615   4.843
14508TIP3    H143465   1.829   6.616   4.810
14508TIP3    H243466   1.959   6.692   4.803
14509TIP3   OH243467   5.438   3.515   2.842
14509TIP3    H143468   5.390   3.466   2.909
14509TIP3    H243469   5.505   3.562   2.891
14510TIP3   OH243470   5.399   6.357   3.920
14510TIP3    H143471   5.309   6.386   3.936
14510TIP3    H243472   5.452   6.436   3.929
14511TIP3   OH243473   1.095   7.394   4.274
14511TIP3    H143474   1.056   7.324   4.221
14511TIP3    H243475   1.100   7.469   4.215
14512TIP3   OH243476   6.623   6.915   3.020
14512TIP3    H143477   6.575   6.951   2.946
14512TIP3    H243478   6.563   6.853   3.061
14513TIP3   OH243479   8.026   2.979   1.911
14513TIP3    H143480   7.968   2.991   1.836
14513TIP3    H243481   8.006   3.052   1.969
14514TIP3   OH243482   6.760   7.885   6.064
14514TIP3    H143483   6.796   7.961   6.110
14514TIP3    H243484   6.793   7.894   5.975
14515TIP3   OH243485   0.369   4.388   0.326
14515TIP3    H143486   0.423   4.399   0.247
14515TIP3    H243487   0.413   4.320   0.377
14516TIP3   OH243488   4.501   4.443   6.692
14516TIP3    H143489   4.408   4.430   6.672
14516TIP3    H243490   4.509   4.536   6.711
14517TIP3   OH243491   3.945   6.375   6.418
14517TIP3    H143492   3.899   6.436   6.361
14517TIP3    H243493   4.007   6.330   6.361
14518TIP3   OH243494   0.275   7.473   6.846
14518TIP3    H143495   0.325   7.555   6.847
14518TIP3    H243496   0.340   7.405   6.859
14519TIP3   OH243497   6.922   3.935   1.994
14519TIP3    H143498   6.971   3.976   1.923
14519TIP3    H243499   6.990   3.901   2.053
14520TIP3   OH243500   4.573   6.877   1.817
14520TIP3    H143501   4.499   6.860   1.759
14520TIP3    H243502   4.534   6.916   1.896
14521TIP3   OH243503   4.264   5.172   4.026
14521TIP3    H143504   4.261   5.080   4.052
14521TIP3    H243505   4.175   5.203   4.041
14522TIP3   OH243506   1.755   4.557   4.501
14522TIP3    H143507   1.680   4.605   4.538
14522TIP3    H243508   1.810   4.625   4.461
14523TIP3   OH243509   4.071   0.464   4.509
14523TIP3    H143510   4.066   0.518   4.430
14523TIP3    H243511   4.041   0.521   4.580
14524TIP3   OH243512   2.680   0.673   3.640
14524TIP3    H143513   2.726   0.729   3.702
14524TIP3    H243514   2.610   0.727   3.605
14525TIP3   OH243515   7.297   2.522   0.286
14525TIP3    H143516   7.391   2.539   0.280
14525TIP3    H243517   7.275   2.541   0.377
14526TIP3   OH243518   1.577   6.439   2.135
14526TIP3    H143519   1.494   6.412   2.174
14526TIP3    H243520   1.636   6.365   2.151
14527TIP3   OH243521   1.053   6.624   4.975
14527TIP3    H143522   1.027   6.532   4.969
14527TIP3    H243523   0.980   6.666   5.022
14528TIP3   OH243524   8.224   5.511   4.148
14528TIP3    H143525   8.278   5.553   4.081
14528TIP3    H243526   8.167   5.452   4.099
14529TIP3   OH243527   2.609   3.455   1.910
14529TIP3    H143528   2.592   3.504   1.990
14529TIP3    H243529   2.576   3.367   1.928
14530TIP3   OH243530   7.556   4.847   3.722
14530TIP3    H143531   7.526   4.798   3.798
14530TIP3    H243532   7.498   4.922   3.717
14531TIP3   OH243533   1.028   0.999   0.462
14531TIP3    H143534   0.995   0.965   0.379
14531TIP3    H243535   1.056   0.921   0.511
14532TIP3   OH243536   3.300   5.854   6.793
14532TIP3    H143537   3.294   5.927   6.854
14532TIP3    H243538   3.214   5.812   6.798
14533TIP3   OH243539   5.220   0.369   2.747
14533TIP3    H143540   5.248   0.453   2.711
14533TIP3    H243541   5.207   0.387   2.840
14534TIP3   OH243542   5.278   4.891   3.732
14534TIP3    H143543   5.357   4.881   3.784
14534TIP3    H243544   5.229   4.960   3.776
14535TIP3   OH243545   6.712   7.760   3.910
14535TIP3    H143546   6.636   7.701   3.908
14535TIP3    H243547   6.684   7.832   3.967
14536TIP3   OH243548   7.153   4.367   0.297
14536TIP3    H143549   7.237   4.351   0.340
14536TIP3    H243550   7.141   4.291   0.240
14537TIP3   OH243551   0.649   6.998   4.126
14537TIP3    H143552   0.676   7.005   4.034
14537TIP3    H243553   0.705   7.060   4.172
14538TIP3   OH243554   6.264   6.113   1.487
14538TIP3    H143555   6.267   6.101   1.392
14538TIP3    H243556   6.262   6.208   1.500
14539TIP3   OH243557   0.664   1.797   6.157
14539TIP3    H143558   0.678   1.755   6.242
14539TIP3    H243559   0.685   1.730   6.093
14540TIP3   OH243560   1.679   7.827   0.511
14540TIP3    H143561   1.650   7.850   0.423
14540TIP3    H243562   1.772   7.807   0.502
14541TIP3   OH243563   2.489   2.620   5.728
14541TIP3    H143564   2.439   2.697   5.757
14541TIP3    H243565   2.467   2.552   5.792
14542TIP3   OH243566   1.229   6.693   5.301
14542TIP3    H143567   1.295   6.750   5.260
14542TIP3    H243568   1.166   6.677   5.231
14543TIP3   OH243569   3.241   4.557   1.603
14543TIP3    H143570   3.247   4.648   1.635
14543TIP3    H243571   3.148   4.536   1.610
14544TIP3   OH243572   4.888   1.069   1.160
14544TIP3    H143573   4.865   1.157   1.132
14544TIP3    H243574   4.820   1.045   1.223
14545TIP3   OH243575   7.461   1.604   2.440
14545TIP3    H143576   7.408   1.684   2.437
14545TIP3    H243577   7.516   1.615   2.518
14546TIP3   OH243578   6.996   1.436   0.787
14546TIP3    H143579   7.088   1.454   0.806
14546TIP3    H243580   6.952   1.440   0.872
14547TIP3   OH243581   6.825   1.036   6.045
14547TIP3    H143582   6.872   1.117   6.022
14547TIP3    H243583   6.892   0.968   6.040
14548TIP3   OH243584   8.158   2.139   1.837
14548TIP3    H143585   8.077   2.116   1.792
14548TIP3    H243586   8.185   2.058   1.881
14549TIP3   OH243587   4.914   1.094   2.992
14549TIP3    H143588   4.937   1.019   2.937
14549TIP3    H243589   4.876   1.157   2.931
14550TIP3   OH243590   3.670   6.377   2.405
14550TIP3    H143591   3.724   6.302   2.430
14550TIP3    H243592   3.708   6.451   2.452
14551TIP3   OH243593   1.778   4.714   5.071
14551TIP3    H143594   1.836   4.658   5.021
14551TIP3    H243595   1.835   4.782   5.108
14552TIP3   OH243596   4.412   2.349   0.512
14552TIP3    H143597   4.387   2.360   0.604
14552TIP3    H243598   4.346   2.397   0.463
14553TIP3   OH243599   3.335   4.452   1.105
14553TIP3    H143600   3.428   4.471   1.101
14553TIP3    H243601   3.315   4.448   1.198
14554TIP3   OH243602   5.495   2.592   3.579
14554TIP3    H143603   5.555   2.561   3.510
14554TIP3    H243604   5.422   2.530   3.575
14555TIP3   OH243605   7.879   7.750   4.168
14555TIP3    H143606   7.863   7.726   4.259
14555TIP3    H243607   7.792   7.755   4.128
14556TIP3   OH243608   6.252   3.830   3.934
14556TIP3    H143609   6.156   3.821   3.930
14556TIP3    H243610   6.276   3.787   4.016
14557TIP3   OH243611   3.383   0.619   5.841
14557TIP3    H143612   3.355   0.691   5.898
14557TIP3    H243613   3.324   0.547   5.863
14558TIP3   OH243614   5.681   6.287   5.543
14558TIP3    H143615   5.679   6.301   5.638
14558TIP3    H243616   5.744   6.216   5.530
14559TIP3   OH243617   2.052   1.314   5.975
14559TIP3    H143618   2.097   1.388   5.935
14559TIP3    H243619   1.970   1.306   5.926
14560TIP3   OH243620   4.960   7.671   3.470
14560TIP3    H143621   4.904   7.635   3.538
14560TIP3    H243622   5.048   7.641   3.494
14561TIP3   OH243623   3.656   7.133   0.219
14561TIP3    H143624   3.636   7.154   0.310
14561TIP3    H243625   3.659   7.217   0.174
14562TIP3   OH243626   6.091   2.308   5.421
14562TIP3    H143627   6.017   2.318   5.481
14562TIP3    H243628   6.050   2.291   5.336
14563TIP3   OH243629   7.689   5.086   0.493
14563TIP3    H143630   7.693   5.016   0.429
14563TIP3    H243631   7.740   5.157   0.454
14564TIP3   OH243632   0.825   0.527   6.269
14564TIP3    H143633   0.832   0.467   6.343
14564TIP3    H243634   0.736   0.514   6.236
14565TIP3   OH243635   1.688   3.138   4.928
14565TIP3    H143636   1.703   3.045   4.946
14565TIP3    H243637   1.699   3.181   5.013
14566TIP3   OH243638   2.839   7.754   4.989
14566TIP3    H143639   2.913   7.813   5.004
14566TIP3    H243640   2.788   7.795   4.919
14567TIP3   OH243641   5.387   1.581   0.722
14567TIP3    H143642   5.329   1.538   0.785
14567TIP3    H243643   5.464   1.525   0.717
14568TIP3   OH243644   5.220   4.986   5.452
14568TIP3    H143645   5.126   4.974   5.437
14568TIP3    H243646   5.231   4.977   5.547
14569TIP3   OH243647   0.706   7.094   3.839
14569TIP3    H143648   0.802   7.100   3.842
14569TIP3    H243649   0.686   7.090   3.745
14570TIP3   OH243650   6.637   2.258   5.302
14570TIP3    H143651   6.699   2.254   5.376
14570TIP3    H243652   6.632   2.168   5.270
14571TIP3   OH243653   7.147   6.300   3.050
14571TIP3    H143654   7.173   6.337   3.134
14571TIP3    H243655   7.055   6.274   3.062
14572TIP3   OH243656   7.734   7.336   2.303
14572TIP3    H143657   7.690   7.273   2.360
14572TIP3    H243658   7.825   7.337   2.333
14573TIP3   OH243659   7.824   5.800   3.899
14573TIP3    H143660   7.742   5.808   3.947
14573TIP3    H243661   7.818   5.717   3.854
14574TIP3   OH243662   5.715   6.932   2.170
14574TIP3    H143663   5.711   6.844   2.207
14574TIP3    H243664   5.646   6.980   2.216
14575TIP3   OH243665   2.617   6.328   1.583
14575TIP3    H143666   2.601   6.359   1.673
14575TIP3    H243667   2.681   6.390   1.548
14576TIP3   OH243668   5.861   3.400   6.412
14576TIP3    H143669   5.871   3.465   6.482
14576TIP3    H243670   5.819   3.326   6.455
14577TIP3   OH243671   3.995   3.738   5.759
14577TIP3    H143672   4.066   3.692   5.802
14577TIP3    H243673   3.989   3.697   5.672
14578TIP3   OH243674   2.145   2.352   3.901
14578TIP3    H143675   2.227   2.310   3.875
14578TIP3    H243676   2.114   2.396   3.823
14579TIP3   OH243677   0.146   3.244   4.205
14579TIP3    H143678   0.195   3.242   4.122
14579TIP3    H243679   0.201   3.297   4.263
14580TIP3   OH243680   7.429   0.518   3.193
14580TIP3    H143681   7.419   0.578   3.267
14580TIP3    H243682   7.344   0.520   3.149
14581TIP3   OH243683   6.751   2.784   3.575
14581TIP3    H143684   6.826   2.830   3.613
14581TIP3    H243685   6.791   2.722   3.514
14582TIP3   OH243686   5.475   7.254   4.582
14582TIP3    H143687   5.403   7.292   4.532
14582TIP3    H243688   5.482   7.309   4.660
14583TIP3   OH243689   0.348   5.720   0.962
14583TIP3    H143690   0.403   5.647   0.990
14583TIP3    H243691   0.371   5.733   0.870
14584TIP3   OH243692   6.632   2.173   1.420
14584TIP3    H143693   6.705   2.115   1.397
14584TIP3    H243694   6.672   2.239   1.477
14585TIP3   OH243695   0.894   2.144   5.301
14585TIP3    H143696   0.966   2.083   5.287
14585TIP3    H243697   0.902   2.207   5.230
14586TIP3   OH243698   3.639   5.316   2.232
14586TIP3    H143699   3.734   5.307   2.238
14586TIP3    H243700   3.623   5.408   2.254
14587TIP3   OH243701   0.024   7.245   1.530
14587TIP3    H143702   0.038   7.171   1.589
14587TIP3    H243703   0.097   7.240   1.468
14588TIP3   OH243704   1.051   0.198   1.345
14588TIP3    H143705   1.133   0.246   1.354
14588TIP3    H243706   1.078   0.110   1.319
14589TIP3   OH243707   1.521   4.002   6.258
14589TIP3    H143708   1.536   3.917   6.217
14589TIP3    H243709   1.594   4.056   6.228
14590TIP3   OH243710   1.528   4.326   0.478
14590TIP3    H143711   1.440   4.287   0.478
14590TIP3    H243712   1.586   4.252   0.498
14591TIP3   OH243713   6.073   7.393   2.631
14591TIP3    H143714   6.154   7.344   2.640
14591TIP3    H243715   6.047   7.379   2.539
14592TIP3   OH243716   7.838   1.016   3.830
14592TIP3    H143717   7.810   0.977   3.913
14592TIP3    H243718   7.790   1.098   3.825
14593TIP3   OH243719   5.234   0.689   2.807
14593TIP3    H143720   5.183   0.735   2.740
14593TIP3    H243721   5.324   0.694   2.776
14594TIP3   OH243722   0.594   5.364   4.514
14594TIP3    H143723   0.517   5.418   4.497
14594TIP3    H243724   0.624   5.337   4.427
14595TIP3   OH243725   1.953   1.630   5.809
14595TIP3    H143726   1.910   1.596   5.731
14595TIP3    H243727   1.912   1.583   5.882
14596TIP3   OH243728   4.039   0.303   2.156
14596TIP3    H143729   4.093   0.364   2.206
14596TIP3    H243730   3.971   0.275   2.218
14597TIP3   OH243731   5.640   5.388   5.355
14597TIP3    H143732   5.694   5.315   5.385
14597TIP3    H243733   5.682   5.418   5.274
14598TIP3   OH243734   2.737   7.714   5.520
14598TIP3    H143735   2.725   7.621   5.500
14598TIP3    H243736   2.774   7.752   5.440
14599TIP3   OH243737   5.346   0.266   0.107
14599TIP3    H143738   5.279   0.213   0.065
14599TIP3    H243739   5.405   0.202   0.148
14600TIP3   OH243740   6.876   5.657   6.440
14600TIP3    H143741   6.812   5.716   6.479
14600TIP3    H243742   6.886   5.586   6.503
14601TIP3   OH243743   1.524   7.769   2.468
14601TIP3    H143744   1.502   7.681   2.497
14601TIP3    H243745   1.567   7.756   2.383
14602TIP3   OH243746   1.485   7.141   5.231
14602TIP3    H143747   1.487   7.184   5.146
14602TIP3    H243748   1.566   7.090   5.234
14603TIP3   OH243749   1.551   0.784   2.820
14603TIP3    H143750   1.515   0.696   2.806
14603TIP3    H243751   1.550   0.824   2.734
14604TIP3   OH243752   7.568   6.502   5.585
14604TIP3    H143753   7.538   6.458   5.506
14604TIP3    H243754   7.526   6.454   5.656
14605TIP3   OH243755   4.388   3.730   1.071
14605TIP3    H143756   4.295   3.744   1.055
14605TIP3    H243757   4.421   3.689   0.991
14606TIP3   OH243758   5.104   4.010   4.165
14606TIP3    H143759   5.037   3.959   4.210
14606TIP3    H243760   5.068   4.025   4.077
14607TIP3   OH243761   4.738   1.486   3.074
14607TIP3    H143762   4.652   1.474   3.032
14607TIP3    H243763   4.738   1.577   3.104
14608TIP3   OH243764   1.809   2.529   3.384
14608TIP3    H143765   1.760   2.541   3.465
14608TIP3    H243766   1.843   2.615   3.363
14609TIP3   OH243767   6.771   7.758   5.033
14609TIP3    H143768   6.815   7.776   5.116
14609TIP3    H243769   6.841   7.756   4.968
14610TIP3   OH243770   6.171   7.189   3.992
14610TIP3    H143771   6.076   7.184   4.002
14610TIP3    H243772   6.194   7.277   4.024
14611TIP3   OH243773   3.185   3.885   3.487
14611TIP3    H143774   3.135   3.817   3.442
14611TIP3    H243775   3.144   3.891   3.573
14612TIP3   OH243776   6.012   1.633   3.910
14612TIP3    H143777   6.034   1.725   3.926
14612TIP3    H243778   6.076   1.583   3.961
14613TIP3   OH243779   3.352   7.897   5.376
14613TIP3    H143780   3.262   7.867   5.390
14613TIP3    H243781   3.391   7.897   5.464
14614TIP3   OH243782   1.067   2.049   1.696
14614TIP3    H143783   1.032   2.121   1.643
14614TIP3    H243784   1.151   2.081   1.728
14615TIP3   OH243785   0.605   6.936   0.086
14615TIP3    H143786   0.532   6.876   0.070
14615TIP3    H243787   0.673   6.910   0.024
14616TIP3   OH243788   4.622   0.668   5.635
14616TIP3    H143789   4.579   0.596   5.681
14616TIP3    H243790   4.568   0.745   5.655
14617TIP3   OH243791   7.578   4.048   2.982
14617TIP3    H143792   7.620   4.128   2.953
14617TIP3    H243793   7.515   4.027   2.913
14618TIP3   OH243794   1.129   4.923   5.836
14618TIP3    H143795   1.157   4.962   5.919
14618TIP3    H243796   1.192   4.853   5.820
14619TIP3   OH243797   2.795   5.649   2.270
14619TIP3    H143798   2.700   5.645   2.263
14619TIP3    H243799   2.817   5.738   2.245
14620TIP3   OH243800   3.613   0.139   0.537
14620TIP3    H143801   3.631   0.047   0.521
14620TIP3    H243802   3.605   0.178   0.450
14621TIP3   OH243803   6.644   1.627   2.450
14621TIP3    H143804   6.625   1.713   2.487
14621TIP3    H243805   6.662   1.644   2.358
14622TIP3   OH243806   4.898   1.941   2.149
14622TIP3    H143807   4.850   1.862   2.126
14622TIP3    H243808   4.949   1.918   2.226
14623TIP3   OH243809   6.363   2.269   2.406
14623TIP3    H143810   6.392   2.181   2.431
14623TIP3    H243811   6.299   2.254   2.336
14624TIP3   OH243812   3.123   0.618   2.733
14624TIP3    H143813   3.099   0.610   2.826
14624TIP3    H243814   3.039   0.619   2.687
14625TIP3   OH243815   8.263   2.611   6.150
14625TIP3    H143816   8.328   2.554   6.108
14625TIP3    H243817   8.181   2.562   6.144
14626TIP3   OH243818   0.394   4.184   0.056
14626TIP3    H143819   0.447   4.153   0.130
14626TIP3    H243820   0.310   4.140   0.067
14627TIP3   OH243821   5.710   2.673   0.631
14627TIP3    H143822   5.748   2.636   0.711
14627TIP3    H243823   5.781   2.725   0.593
14628TIP3   OH243824   0.678   1.177   4.957
14628TIP3    H143825   0.699   1.144   4.869
14628TIP3    H243826   0.758   1.221   4.985
14629TIP3   OH243827   5.177   3.446   6.545
14629TIP3    H143828   5.249   3.436   6.484
14629TIP3    H243829   5.190   3.533   6.583
14630TIP3   OH243830   7.624   0.777   1.044
14630TIP3    H143831   7.638   0.737   0.958
14630TIP3    H243832   7.688   0.734   1.101
14631TIP3   OH243833   2.536   2.226   6.085
14631TIP3    H143834   2.525   2.152   6.144
14631TIP3    H243835   2.609   2.201   6.028
14632TIP3   OH243836   4.976   6.682   4.763
14632TIP3    H143837   4.924   6.627   4.703
14632TIP3    H243838   5.050   6.712   4.709
14633TIP3   OH243839   5.776   0.803   5.390
14633TIP3    H143840   5.766   0.856   5.311
14633TIP3    H243841   5.749   0.715   5.363
14634TIP3   OH243842   6.806   7.555   1.303
14634TIP3    H143843   6.786   7.465   1.328
14634TIP3    H243844   6.902   7.560   1.306
14635TIP3   OH243845   1.112   1.809   5.404
14635TIP3    H143846   1.151   1.722   5.415
14635TIP3    H243847   1.022   1.792   5.377
14636TIP3   OH243848   2.464   4.752   4.960
14636TIP3    H143849   2.386   4.794   4.997
14636TIP3    H243850   2.538   4.796   5.002
14637TIP3   OH243851   3.740   4.632   3.699
14637TIP3    H143852   3.833   4.626   3.674
14637TIP3    H243853   3.733   4.716   3.744
14638TIP3   OH243854   1.055   3.628   5.050
14638TIP3    H143855   0.963   3.624   5.076
14638TIP3    H243856   1.052   3.650   4.956
14639TIP3   OH243857   8.024   6.352   5.785
14639TIP3    H143858   8.095   6.402   5.827
14639TIP3    H243859   7.947   6.371   5.838
14640TIP3   OH243860   4.614   5.284   2.617
14640TIP3    H143861   4.603   5.220   2.688
14640TIP3    H243862   4.580   5.365   2.653
14641TIP3   OH243863   2.622   5.114   6.325
14641TIP3    H143864   2.584   5.145   6.408
14641TIP3    H243865   2.637   5.194   6.274
14642TIP3   OH243866   6.019   2.345   5.734
14642TIP3    H143867   6.062   2.430   5.728
14642TIP3    H243868   6.090   2.282   5.720
14643TIP3   OH243869   7.428   3.259   1.867
14643TIP3    H143870   7.371   3.255   1.790
14643TIP3    H243871   7.392   3.195   1.927
14644TIP3   OH243872   4.161   0.111   0.132
14644TIP3    H143873   4.141   0.038   0.191
14644TIP3    H243874   4.257   0.108   0.123
14645TIP3   OH243875   3.818   4.949   2.265
14645TIP3    H143876   3.820   4.854   2.271
14645TIP3    H243877   3.777   4.977   2.347
14646TIP3   OH243878   0.071   1.648   6.330
14646TIP3    H143879   0.057   1.554   6.344
14646TIP3    H243880   0.114   1.679   6.410
14647TIP3   OH243881   5.302   2.640   2.400
14647TIP3    H143882   5.326   2.569   2.461
14647TIP3    H243883   5.366   2.709   2.419
14648TIP3   OH243884   7.237   6.881   6.674
14648TIP3    H143885   7.209   6.972   6.660
14648TIP3    H243886   7.167   6.843   6.728
14649TIP3   OH243887   4.940   7.599   2.782
14649TIP3    H143888   4.903   7.601   2.694
14649TIP3    H243889   4.871   7.563   2.837
14650TIP3   OH243890   0.631   4.612   2.972
14650TIP3    H143891   0.538   4.608   2.947
14650TIP3    H243892   0.675   4.642   2.894
14651TIP3   OH243893   5.301   4.453   1.963
14651TIP3    H143894   5.382   4.447   2.013
14651TIP3    H243895   5.325   4.501   1.884
14652TIP3   OH243896   3.362   4.062   2.538
14652TIP3    H143897   3.404   4.002   2.476
14652TIP3    H243898   3.414   4.142   2.532
14653TIP3   OH243899   6.216   1.960   5.495
14653TIP3    H143900   6.247   2.016   5.424
14653TIP3    H243901   6.281   1.891   5.503
14654TIP3   OH243902   7.793   2.169   5.104
14654TIP3    H143903   7.888   2.167   5.089
14654TIP3    H243904   7.783   2.150   5.198
14655TIP3   OH243905   6.712   3.093   5.210
14655TIP3    H143906   6.672   3.156   5.149
14655TIP3    H243907   6.637   3.046   5.247
14656TIP3   OH243908   3.952   6.952   2.005
14656TIP3    H143909   3.894   7.026   2.025
14656TIP3    H243910   4.040   6.989   2.008
14657TIP3   OH243911   0.721   1.725   3.771
14657TIP3    H143912   0.683   1.655   3.823
14657TIP3    H243913   0.667   1.729   3.693
14658TIP3   OH243914   4.758   3.115   2.192
14658TIP3    H143915   4.788   3.128   2.282
14658TIP3    H243916   4.763   3.202   2.152
14659TIP3   OH243917   5.514   2.549   1.425
14659TIP3    H143918   5.593   2.498   1.439
14659TIP3    H243919   5.445   2.499   1.468
14660TIP3   OH243920   5.956   7.644   2.717
14660TIP3    H143921   6.023   7.713   2.715
14660TIP3    H243922   6.003   7.565   2.691
14661TIP3   OH243923   4.511   2.014   3.105
14661TIP3    H143924   4.606   2.024   3.119
14661TIP3    H243925   4.472   2.042   3.188
14662TIP3   OH243926   4.272   2.315   4.842
14662TIP3    H143927   4.346   2.287   4.788
14662TIP3    H243928   4.311   2.335   4.927
14663TIP3   OH243929   6.483   5.580   4.066
14663TIP3    H143930   6.571   5.583   4.027
14663TIP3    H243931   6.432   5.642   4.015
14664TIP3   OH243932   5.693   0.230   3.368
14664TIP3    H143933   5.617   0.187   3.408
14664TIP3    H243934   5.764   0.167   3.376
14665TIP3   OH243935   3.133   1.434   1.767
14665TIP3    H143936   3.089   1.406   1.687
14665TIP3    H243937   3.224   1.450   1.740
14666TIP3   OH243938   5.973   0.174   4.947
14666TIP3    H143939   5.877   0.171   4.950
14666TIP3    H243940   5.994   0.260   4.911
14667TIP3   OH243941   3.029   5.944   2.302
14667TIP3    H143942   3.023   6.038   2.322
14667TIP3    H243943   2.954   5.926   2.247
14668TIP3   OH243944   0.105   0.115   2.917
14668TIP3    H143945   0.149   0.035   2.889
14668TIP3    H243946   0.061   0.091   2.998
14669TIP3   OH243947   6.175   5.397   0.942
14669TIP3    H143948   6.107   5.452   0.902
14669TIP3    H243949   6.168   5.314   0.894
14670TIP3   OH243950   0.096   5.633   6.601
14670TIP3    H143951   0.070   5.633   6.693
14670TIP3    H243952   0.172   5.692   6.599
14671TIP3   OH243953   8.181   4.709   4.740
14671TIP3    H143954   8.239   4.781   4.763
14671TIP3    H243955   8.184   4.650   4.815
14672TIP3   OH243956   0.459   2.990   6.095
14672TIP3    H143957   0.410   3.013   6.173
14672TIP3    H243958   0.546   2.968   6.127
14673TIP3   OH243959   6.837   2.522   4.339
14673TIP3    H143960   6.778   2.459   4.380
14673TIP3    H243961   6.838   2.497   4.246
14674TIP3   OH243962   3.851   7.556   2.859
14674TIP3    H143963   3.930   7.584   2.905
14674TIP3    H243964   3.810   7.492   2.917
14675TIP3   OH243965   0.962   0.573   1.103
14675TIP3    H143966   0.935   0.645   1.046
14675TIP3    H243967   0.888   0.513   1.104
14676TIP3   OH243968   6.021   7.764   5.910
14676TIP3    H143969   5.952   7.738   5.971
14676TIP3    H243970   5.975   7.787   5.829
14677TIP3   OH243971   6.574   4.136   4.858
14677TIP3    H143972   6.484   4.106   4.849
14677TIP3    H243973   6.618   4.066   4.906
14678TIP3   OH243974   2.281   1.923   6.428
14678TIP3    H143975   2.307   1.964   6.510
14678TIP3    H243976   2.186   1.911   6.436
14679TIP3   OH243977   6.154   0.451   4.989
14679TIP3    H143978   6.206   0.413   5.060
14679TIP3    H243979   6.065   0.451   5.023
14680TIP3   OH243980   6.693   5.155   0.537
14680TIP3    H143981   6.782   5.180   0.513
14680TIP3    H243982   6.704   5.092   0.608
14681TIP3   OH243983   5.764   1.471   2.232
14681TIP3    H143984   5.697   1.471   2.163
14681TIP3    H243985   5.714   1.471   2.313
14682TIP3   OH243986   7.180   0.313   3.455
14682TIP3    H143987   7.237   0.362   3.514
14682TIP3    H243988   7.211   0.222   3.461
14683TIP3   OH243989   6.765   4.705   4.196
14683TIP3    H143990   6.686   4.653   4.181
14683TIP3    H243991   6.828   4.672   4.132
14684TIP3   OH243992   5.413   0.292   6.776
14684TIP3    H143993   5.461   0.344   6.711
14684TIP3    H243994   5.361   0.357   6.824
14685TIP3   OH243995   0.109   6.578   4.213
14685TIP3    H143996   0.180   6.518   4.188
14685TIP3    H243997   0.144   6.665   4.195
14686TIP3   OH243998   3.058   5.780   3.260
14686TIP3    H143999   3.119   5.818   3.197
14686TIP3    H244000   3.044   5.690   3.230
14687TIP3   OH244001   6.054   2.305   4.943
14687TIP3    H144002   6.128   2.248   4.962
14687TIP3    H244003   6.092   2.380   4.899
14688TIP3   OH244004   5.060   3.082   3.678
14688TIP3    H144005   5.059   2.986   3.675
14688TIP3    H244006   5.113   3.109   3.603
14689TIP3   OH244007   5.655   6.363   5.280
14689TIP3    H144008   5.640   6.333   5.369
14689TIP3    H244009   5.718   6.435   5.289
14690TIP3   OH244010   7.460   6.372   5.014
14690TIP3    H144011   7.549   6.379   4.980
14690TIP3    H244012   7.408   6.346   4.938
14691TIP3   OH244013   7.520   5.606   4.689
14691TIP3    H144014   7.537   5.515   4.663
14691TIP3    H244015   7.561   5.658   4.620
14692TIP3   OH244016   3.299   7.762   6.715
14692TIP3    H144017   3.206   7.758   6.692
14692TIP3    H244018   3.322   7.855   6.707
14693TIP3   OH244019   3.295   3.584   2.371
14693TIP3    H144020   3.327   3.641   2.301
14693TIP3    H244021   3.364   3.518   2.382
14694TIP3   OH244022   7.647   1.523   4.859
14694TIP3    H144023   7.715   1.545   4.922
14694TIP3    H244024   7.580   1.478   4.911
14695TIP3   OH244025   3.890   0.179   1.471
14695TIP3    H144026   3.876   0.234   1.547
14695TIP3    H244027   3.935   0.236   1.408
14696TIP3   OH244028   1.457   3.651   6.691
14696TIP3    H144029   1.553   3.650   6.694
14696TIP3    H244030   1.437   3.648   6.597
14697TIP3   OH244031   5.412   7.895   1.405
14697TIP3    H144032   5.381   7.816   1.360
14697TIP3    H244033   5.504   7.904   1.379
14698TIP3   OH244034   0.188   6.361   0.031
14698TIP3    H144035   0.162   6.451   0.049
14698TIP3    H244036   0.132   6.307   0.087
14699TIP3   OH244037   1.059   0.139   3.039
14699TIP3    H144038   1.125   0.207   3.051
14699TIP3    H244039   1.096   0.081   2.973
14700TIP3   OH244040   7.616   0.341   5.540
14700TIP3    H144041   7.688   0.395   5.573
14700TIP3    H244042   7.587   0.290   5.616
14701TIP3   OH244043   3.650   3.039   2.949
14701TIP3    H144044   3.715   3.004   3.010
14701TIP3    H244045   3.593   3.093   3.004
14702TIP3   OH244046   5.154   3.883   0.414
14702TIP3    H144047   5.216   3.847   0.351
14702TIP3    H244048   5.208   3.905   0.491
14703TIP3   OH244049   2.059   3.324   2.563
14703TIP3    H144050   2.013   3.305   2.644
14703TIP3    H244051   2.089   3.239   2.531
14704TIP3   OH244052   3.084   6.649   1.580
14704TIP3    H144053   3.064   6.738   1.551
14704TIP3    H244054   3.136   6.661   1.660
14705TIP3   OH244055   1.379   3.728   0.072
14705TIP3    H144056   1.390   3.660   0.139
14705TIP3    H244057   1.466   3.737   0.033
14706TIP3   OH244058   4.952   0.851   6.327
14706TIP3    H144059   4.968   0.789   6.255
14706TIP3    H244060   4.865   0.829   6.359
14707TIP3   OH244061   0.260   3.374   0.837
14707TIP3    H144062   0.202   3.421   0.897
14707TIP3    H244063   0.210   3.369   0.755
14708TIP3   OH244064   5.243   2.568   4.966
14708TIP3    H144065   5.151   2.580   4.941
14708TIP3    H244066   5.264   2.648   5.016
14709TIP3   OH244067   0.671   1.323   6.186
14709TIP3    H144068   0.600   1.267   6.155
14709TIP3    H244069   0.645   1.347   6.275
14710TIP3   OH244070   6.876   5.075   1.914
14710TIP3    H144071   6.907   5.156   1.874
14710TIP3    H244072   6.783   5.090   1.930
14711TIP3   OH244073   5.967   0.559   0.265
14711TIP3    H144074   6.009   0.633   0.222
14711TIP3    H244075   6.012   0.550   0.349
14712TIP3   OH244076   0.003   2.696   6.814
14712TIP3    H144077  -0.002   2.636   6.739
14712TIP3    H244078   0.095   2.722   6.817
14713TIP3   OH244079   0.088   6.942   2.310
14713TIP3    H144080   0.047   7.024   2.335
14713TIP3    H244081   0.124   6.907   2.392
14714TIP3   OH244082   0.559   2.407   5.220
14714TIP3    H144083   0.557   2.463   5.298
14714TIP3    H244084   0.512   2.457   5.153
14715TIP3   OH244085   7.870   7.083   0.771
14715TIP3    H144086   7.867   6.994   0.735
14715TIP3    H244087   7.829   7.137   0.704
14716TIP3   OH244088   6.727   4.302   0.080
14716TIP3    H144089   6.778   4.333   0.004
14716TIP3    H244090   6.791   4.293   0.150
14717TIP3   OH244091   6.415   5.035   2.510
14717TIP3    H144092   6.451   4.976   2.576
14717TIP3    H244093   6.416   5.121   2.552
14718TIP3   OH244094   7.791   6.104   4.313
14718TIP3    H144095   7.817   6.058   4.233
14718TIP3    H244096   7.832   6.190   4.306
14719TIP3   OH244097   4.463   7.821   5.316
14719TIP3    H144098   4.480   7.904   5.270
14719TIP3    H244099   4.475   7.754   5.249
14720TIP3   OH244100   4.436   3.372   2.064
14720TIP3    H144101   4.420   3.437   2.132
14720TIP3    H244102   4.510   3.407   2.014
14721TIP3   OH244103   5.275   6.090   4.266
14721TIP3    H144104   5.202   6.085   4.204
14721TIP3    H244105   5.258   6.021   4.330
14722TIP3   OH244106   6.040   0.789   3.118
14722TIP3    H144107   6.070   0.803   3.028
14722TIP3    H244108   6.071   0.701   3.140
14723TIP3   OH244109   3.499   1.912   0.351
14723TIP3    H144110   3.501   1.998   0.394
14723TIP3    H244111   3.577   1.912   0.296
14724TIP3   OH244112   2.434   6.949   1.641
14724TIP3    H144113   2.492   6.876   1.615
14724TIP3    H244114   2.362   6.946   1.578
14725TIP3   OH244115   6.701   2.886   6.386
14725TIP3    H144116   6.767   2.817   6.378
14725TIP3    H244117   6.747   2.956   6.433
14726TIP3   OH244118   2.725   7.060   3.252
14726TIP3    H144119   2.809   7.097   3.278
14726TIP3    H244120   2.662   7.099   3.312
14727TIP3   OH244121   8.005   7.157   6.062
14727TIP3    H144122   7.952   7.235   6.082
14727TIP3    H244123   8.056   7.143   6.142
14728TIP3   OH244124   3.856   2.155   1.602
14728TIP3    H144125   3.871   2.137   1.695
14728TIP3    H244126   3.808   2.238   1.601
14729TIP3   OH244127   4.215   2.250   5.733
14729TIP3    H144128   4.127   2.284   5.716
14729TIP3    H244129   4.209   2.207   5.818
14730TIP3   OH244130   1.884   5.162   3.634
14730TIP3    H144131   1.837   5.171   3.551
14730TIP3    H244132   1.972   5.133   3.608
14731TIP3   OH244133   5.756   5.525   1.773
14731TIP3    H144134   5.766   5.486   1.860
14731TIP3    H244135   5.719   5.612   1.789
14732TIP3   OH244136   1.765   3.469   1.222
14732TIP3    H144137   1.728   3.382   1.210
14732TIP3    H244138   1.858   3.459   1.202
14733TIP3   OH244139   4.799   6.375   5.917
14733TIP3    H144140   4.815   6.418   5.833
14733TIP3    H244141   4.746   6.298   5.894
14734TIP3   OH244142   7.751   3.625   2.260
14734TIP3    H144143   7.721   3.555   2.318
14734TIP3    H244144   7.671   3.669   2.232
14735TIP3   OH244145   5.802   3.873   3.019
14735TIP3    H144146   5.871   3.833   3.072
14735TIP3    H244147   5.849   3.922   2.952
14736TIP3   OH244148   6.122   4.656   4.645
14736TIP3    H144149   6.102   4.563   4.630
14736TIP3    H244150   6.098   4.672   4.736
14737TIP3   OH244151   4.830   3.859   6.636
14737TIP3    H144152   4.831   3.764   6.632
14737TIP3    H244153   4.744   3.881   6.673
14738TIP3   OH244154   4.025   4.292   3.150
14738TIP3    H144155   4.007   4.365   3.210
14738TIP3    H244156   4.034   4.216   3.206
14739TIP3   OH244157   8.265   6.523   0.352
14739TIP3    H144158   8.211   6.601   0.339
14739TIP3    H244159   8.202   6.451   0.359
14740TIP3   OH244160   4.121   7.022   0.752
14740TIP3    H144161   4.115   7.072   0.833
14740TIP3    H244162   4.213   7.032   0.725
14741TIP3   OH244163   2.074   1.836   3.877
14741TIP3    H144164   2.130   1.842   3.800
14741TIP3    H244165   1.987   1.815   3.843
14742TIP3   OH244166   3.934   0.918   2.463
14742TIP3    H144167   3.868   0.959   2.517
14742TIP3    H244168   3.900   0.924   2.374
14743TIP3   OH244169   8.084   6.309   4.838
14743TIP3    H144170   8.148   6.365   4.882
14743TIP3    H244171   8.040   6.262   4.908
14744TIP3   OH244172   7.926   2.939   2.436
14744TIP3    H144173   7.871   2.866   2.465
14744TIP3    H244174   7.976   2.905   2.363
14745TIP3   OH244175   7.709   6.950   4.553
14745TIP3    H144176   7.628   6.999   4.537
14745TIP3    H244177   7.741   6.929   4.465
14746TIP3   OH244178   7.484   4.881   6.635
14746TIP3    H144179   7.405   4.932   6.614
14746TIP3    H244180   7.461   4.833   6.714
14747TIP3   OH244181   6.760   5.641   6.168
14747TIP3    H144182   6.782   5.665   6.258
14747TIP3    H244183   6.782   5.548   6.162
14748TIP3   OH244184   7.178   2.908   3.947
14748TIP3    H144185   7.172   2.964   3.870
14748TIP3    H244186   7.135   2.958   4.016
14749TIP3   OH244187   3.571   6.324   4.609
14749TIP3    H144188   3.619   6.400   4.643
14749TIP3    H244189   3.524   6.358   4.533
14750TIP3   OH244190   3.605   6.323   1.645
14750TIP3    H144191   3.628   6.414   1.625
14750TIP3    H244192   3.559   6.326   1.729
14751TIP3   OH244193   3.206   3.285   6.685
14751TIP3    H144194   3.258   3.289   6.766
14751TIP3    H244195   3.204   3.375   6.653
14752TIP3   OH244196   3.010   6.352   1.784
14752TIP3    H144197   2.992   6.320   1.873
14752TIP3    H244198   3.086   6.302   1.755
14753TIP3   OH244199   1.468   3.171   2.511
14753TIP3    H144200   1.373   3.189   2.510
14753TIP3    H244201   1.474   3.076   2.497
14754TIP3   OH244202   2.842   0.697   3.420
14754TIP3    H144203   2.792   0.668   3.496
14754TIP3    H244204   2.924   0.648   3.425
14755TIP3   OH244205   5.662   2.523   3.376
14755TIP3    H144206   5.656   2.543   3.282
14755TIP3    H244207   5.752   2.545   3.400
14756TIP3   OH244208   6.500   3.661   5.056
14756TIP3    H144209   6.520   3.599   5.126
14756TIP3    H244210   6.523   3.615   4.976
14757TIP3   OH244211   2.604   5.966   3.534
14757TIP3    H144212   2.644   5.881   3.515
14757TIP3    H244213   2.537   5.977   3.466
14758TIP3   OH244214   5.935   0.515   2.547
14758TIP3    H144215   5.910   0.592   2.497
14758TIP3    H244216   5.924   0.541   2.638
14759TIP3   OH244217   6.498   1.817   5.624
14759TIP3    H144218   6.590   1.843   5.629
14759TIP3    H244219   6.489   1.747   5.688
14760TIP3   OH244220   1.279   6.217   2.872
14760TIP3    H144221   1.221   6.199   2.798
14760TIP3    H244222   1.346   6.275   2.836
14761TIP3   OH244223   2.821   7.631   3.091
14761TIP3    H144224   2.875   7.563   3.132
14761TIP3    H244225   2.738   7.588   3.072
14762TIP3   OH244226   1.111   0.250   6.213
14762TIP3    H144227   1.082   0.323   6.268
14762TIP3    H244228   1.186   0.285   6.165
14763TIP3   OH244229   7.191   4.824   1.796
14763TIP3    H144230   7.124   4.866   1.743
14763TIP3    H244231   7.181   4.731   1.779
14764TIP3   OH244232   0.365   5.005   3.107
14764TIP3    H144233   0.386   4.913   3.092
14764TIP3    H244234   0.376   5.018   3.201
14765TIP3   OH244235   1.572   2.742   0.532
14765TIP3    H144236   1.575   2.696   0.448
14765TIP3    H244237   1.659   2.727   0.571
14766TIP3   OH244238   0.795   1.711   1.298
14766TIP3    H144239   0.787   1.687   1.206
14766TIP3    H244240   0.797   1.807   1.297
14767TIP3   OH244241   2.986   2.314   3.930
14767TIP3    H144242   3.045   2.245   3.899
14767TIP3    H244243   3.017   2.334   4.018
14768TIP3   OH244244   1.139   3.564   2.742
14768TIP3    H144245   1.129   3.486   2.798
14768TIP3    H244246   1.206   3.538   2.678
14769TIP3   OH244247   0.467   3.382   1.295
14769TIP3    H144248   0.530   3.374   1.223
14769TIP3    H244249   0.382   3.381   1.253
14770TIP3   OH244250   2.372   2.612   3.553
14770TIP3    H144251   2.435   2.664   3.604
14770TIP3    H244252   2.370   2.654   3.467
14771TIP3   OH244253   1.055   6.546   5.923
14771TIP3    H144254   1.063   6.609   5.851
14771TIP3    H244255   1.079   6.596   6.001
14772TIP3   OH244256   6.103   3.455   0.696
14772TIP3    H144257   6.120   3.412   0.612
14772TIP3    H244258   6.015   3.492   0.686
14773TIP3   OH244259   1.533   4.058   3.321
14773TIP3    H144260   1.579   4.060   3.237
14773TIP3    H244261   1.585   3.998   3.375
14774TIP3   OH244262   4.490   0.591   2.338
14774TIP3    H144263   4.556   0.568   2.272
14774TIP3    H244264   4.465   0.507   2.376
14775TIP3   OH244265   0.812   5.241   2.670
14775TIP3    H144266   0.721   5.249   2.698
14775TIP3    H244267   0.811   5.266   2.578
14776TIP3   OH244268   6.266   1.320   0.679
14776TIP3    H144269   6.316   1.283   0.606
14776TIP3    H244270   6.178   1.333   0.643
14777TIP3   OH244271   6.395   3.184   6.132
14777TIP3    H144272   6.303   3.203   6.112
14777TIP3    H244273   6.427   3.135   6.056
14778TIP3   OH244274   0.883   7.821   6.325
14778TIP3    H144275   0.955   7.852   6.269
14778TIP3    H244276   0.893   7.726   6.327
14779TIP3   OH244277   0.955   2.700   2.949
14779TIP3    H144278   0.964   2.783   2.902
14779TIP3    H244279   0.941   2.724   3.040
14780TIP3   OH244280   5.147   4.421   5.223
14780TIP3    H144281   5.211   4.466   5.168
14780TIP3    H244282   5.152   4.467   5.307
14781TIP3   OH244283   5.234   4.208   1.404
14781TIP3    H144284   5.247   4.300   1.379
14781TIP3    H244285   5.323   4.171   1.404
14782TIP3   OH244286   4.680   6.966   6.414
14782TIP3    H144287   4.720   7.047   6.448
14782TIP3    H244288   4.645   6.922   6.492
14783TIP3   OH244289   2.490   3.711   1.549
14783TIP3    H144290   2.553   3.640   1.536
14783TIP3    H244291   2.542   3.783   1.585
14784TIP3   OH244292   2.421   6.954   6.672
14784TIP3    H144293   2.457   6.866   6.683
14784TIP3    H244294   2.334   6.949   6.712
14785TIP3   OH244295   0.718   2.710   6.150
14785TIP3    H144296   0.767   2.791   6.161
14785TIP3    H244297   0.737   2.659   6.229
14786TIP3   OH244298   4.716   5.545   0.041
14786TIP3    H144299   4.657   5.620   0.043
14786TIP3    H244300   4.726   5.520   0.133
14787TIP3   OH244301   8.028   7.789   0.936
14787TIP3    H144302   8.101   7.852   0.929
14787TIP3    H244303   8.003   7.773   0.845
14788TIP3   OH244304   6.918   5.209   1.405
14788TIP3    H144305   6.850   5.163   1.355
14788TIP3    H244306   6.915   5.299   1.372
14789TIP3   OH244307   3.502   6.433   0.110
14789TIP3    H144308   3.556   6.510   0.126
14789TIP3    H244309   3.541   6.365   0.166
14790TIP3   OH244310   4.160   0.845   3.550
14790TIP3    H144311   4.107   0.769   3.574
14790TIP3    H244312   4.096   0.915   3.535
14791TIP3   OH244313   4.636   1.779   0.961
14791TIP3    H144314   4.567   1.755   1.023
14791TIP3    H244315   4.601   1.855   0.914
14792TIP3   OH244316   5.592   7.875   6.340
14792TIP3    H144317   5.587   7.952   6.397
14792TIP3    H244318   5.548   7.902   6.259
14793TIP3   OH244319   2.555   0.084   2.344
14793TIP3    H144320   2.561  -0.009   2.321
14793TIP3    H244321   2.489   0.087   2.413
14794TIP3   OH244322   6.947   5.702   5.931
14794TIP3    H144323   6.910   5.629   5.979
14794TIP3    H244324   6.924   5.779   5.983
14795TIP3   OH244325   5.130   6.484   5.170
14795TIP3    H144326   5.140   6.523   5.256
14795TIP3    H244327   5.037   6.490   5.151
14796TIP3   OH244328   8.316   3.518   1.228
14796TIP3    H144329   8.328   3.569   1.308
14796TIP3    H244330   8.234   3.470   1.242
14797TIP3   OH244331   1.585   1.291   5.147
14797TIP3    H144332   1.579   1.343   5.227
14797TIP3    H244333   1.644   1.341   5.091
14798TIP3   OH244334   4.120   7.730   5.244
14798TIP3    H144335   4.180   7.717   5.316
14798TIP3    H244336   4.155   7.805   5.196
14799TIP3   OH244337   7.807   3.614   1.228
14799TIP3    H144338   7.806   3.589   1.135
14799TIP3    H244339   7.891   3.659   1.240
14800TIP3   OH244340   3.929   3.575   5.487
14800TIP3    H144341   3.870   3.541   5.421
14800TIP3    H244342   3.934   3.506   5.553
14801TIP3   OH244343   7.380   7.310   2.455
14801TIP3    H144344   7.364   7.301   2.549
14801TIP3    H244345   7.454   7.252   2.437
14802TIP3   OH244346   2.301   4.873   6.013
14802TIP3    H144347   2.273   4.866   6.105
14802TIP3    H244348   2.396   4.864   6.016
14803TIP3   OH244349   3.761   7.579   5.389
14803TIP3    H144350   3.744   7.632   5.467
14803TIP3    H244351   3.682   7.525   5.379
14804TIP3   OH244352   5.560   3.127   4.117
14804TIP3    H144353   5.530   3.167   4.036
14804TIP3    H244354   5.593   3.041   4.091
14805TIP3   OH244355   2.403   0.757   1.062
14805TIP3    H144356   2.465   0.771   0.990
14805TIP3    H244357   2.446   0.693   1.118
14806TIP3   OH244358   6.916   4.305   5.421
14806TIP3    H144359   6.850   4.364   5.383
14806TIP3    H244360   6.961   4.268   5.346
14807TIP3   OH244361   3.811   1.755   5.850
14807TIP3    H144362   3.830   1.743   5.943
14807TIP3    H244363   3.888   1.798   5.814
14808TIP3   OH244364   2.327   6.056   2.937
14808TIP3    H144365   2.238   6.028   2.913
14808TIP3    H244366   2.381   6.028   2.863
14809TIP3   OH244367   1.275   6.313   1.869
14809TIP3    H144368   1.272   6.221   1.843
14809TIP3    H244369   1.329   6.355   1.802
14810TIP3   OH244370   1.386   4.150   6.734
14810TIP3    H144371   1.464   4.172   6.682
14810TIP3    H244372   1.335   4.093   6.677
14811TIP3   OH244373   5.565   1.037   4.922
14811TIP3    H144374   5.529   1.062   4.837
14811TIP3    H244375   5.649   1.083   4.926
14812TIP3   OH244376   5.457   5.971   1.920
14812TIP3    H144377   5.492   5.977   2.009
14812TIP3    H244378   5.417   6.056   1.905
14813TIP3   OH244379   7.716   0.490   2.799
14813TIP3    H144380   7.726   0.563   2.860
14813TIP3    H244381   7.786   0.429   2.821
14814TIP3   OH244382   6.997   1.282   4.904
14814TIP3    H144383   6.927   1.347   4.896
14814TIP3    H244384   6.999   1.261   4.997
14815TIP3   OH244385   1.512   5.969   2.226
14815TIP3    H144386   1.570   6.040   2.198
14815TIP3    H244387   1.572   5.901   2.258
14816TIP3   OH244388   4.914   4.611   2.206
14816TIP3    H144389   4.973   4.544   2.172
14816TIP3    H244390   4.827   4.582   2.178
14817TIP3   OH244391   5.357   1.896   2.742
14817TIP3    H144392   5.429   1.843   2.775
14817TIP3    H244393   5.327   1.946   2.818
14818TIP3   OH244394   2.605   3.555   4.601
14818TIP3    H144395   2.572   3.553   4.691
14818TIP3    H244396   2.690   3.510   4.606
14819TIP3   OH244397   1.059   5.670   1.678
14819TIP3    H144398   1.020   5.631   1.599
14819TIP3    H244399   0.985   5.684   1.737
14820TIP3   OH244400   5.770   6.665   2.854
14820TIP3    H144401   5.736   6.697   2.938
14820TIP3    H244402   5.698   6.680   2.793
14821TIP3   OH244403   5.421   1.502   4.809
14821TIP3    H144404   5.411   1.590   4.772
14821TIP3    H244405   5.333   1.479   4.840
14822TIP3   OH244406   5.797   2.913   6.497
14822TIP3    H144407   5.766   2.823   6.489
14822TIP3    H244408   5.883   2.905   6.539
14823TIP3   OH244409   0.121   7.497   2.026
14823TIP3    H144410   0.154   7.585   2.007
14823TIP3    H244411   0.026   7.508   2.030
14824TIP3   OH244412   6.493   0.922   2.023
14824TIP3    H144413   6.423   0.984   2.040
14824TIP3    H244414   6.477   0.851   2.085
14825TIP3   OH244415   5.061   0.999   6.790
14825TIP3    H144416   4.989   0.941   6.765
14825TIP3    H244417   5.018   1.076   6.827
14826TIP3   OH244418   7.310   7.131   5.696
14826TIP3    H144419   7.387   7.085   5.730
14826TIP3    H244420   7.267   7.067   5.639
14827TIP3   OH244421   5.573   1.117   6.739
14827TIP3    H144422   5.572   1.118   6.835
14827TIP3    H244423   5.521   1.041   6.715
14828TIP3   OH244424   5.623   0.395   2.603
14828TIP3    H144425   5.695   0.424   2.546
14828TIP3    H244426   5.571   0.336   2.548
14829TIP3   OH244427   5.121   1.087   6.543
14829TIP3    H144428   5.066   1.165   6.551
14829TIP3    H244429   5.149   1.068   6.633
14830TIP3   OH244430   4.859   5.957   5.850
14830TIP3    H144431   4.909   5.902   5.789
14830TIP3    H244432   4.923   5.982   5.917
14831TIP3   OH244433   5.636   1.654   5.634
14831TIP3    H144434   5.698   1.642   5.562
14831TIP3    H244435   5.661   1.587   5.698
14832TIP3   OH244436   5.073   4.593   4.579
14832TIP3    H144437   5.112   4.652   4.643
14832TIP3    H244438   5.114   4.617   4.496
14833TIP3   OH244439   2.612   1.434   1.346
14833TIP3    H144440   2.619   1.483   1.427
14833TIP3    H244441   2.561   1.492   1.288
14834TIP3   OH244442   3.710   7.716   1.846
14834TIP3    H144443   3.752   7.695   1.762
14834TIP3    H244444   3.633   7.660   1.849
14835TIP3   OH244445   4.274   6.129   5.937
14835TIP3    H144446   4.226   6.171   5.866
14835TIP3    H244447   4.283   6.198   6.003
14836TIP3   OH244448   0.514   2.139   0.102
14836TIP3    H144449   0.565   2.154   0.182
14836TIP3    H244450   0.423   2.153   0.129
14837TIP3   OH244451   8.191   6.180   0.675
14837TIP3    H144452   8.253   6.236   0.722
14837TIP3    H244453   8.241   6.101   0.655
14838TIP3   OH244454   6.842   0.035   5.788
14838TIP3    H144455   6.849  -0.053   5.753
14838TIP3    H244456   6.754   0.038   5.827
14839TIP3   OH244457   1.545   5.329   6.573
14839TIP3    H144458   1.533   5.369   6.487
14839TIP3    H244459   1.461   5.338   6.616
14840TIP3   OH244460   4.157   1.488   5.762
14840TIP3    H144461   4.207   1.507   5.683
14840TIP3    H244462   4.073   1.454   5.731
14841TIP3   OH244463   3.369   3.847   5.868
14841TIP3    H144464   3.314   3.882   5.938
14841TIP3    H244465   3.410   3.924   5.829
14842TIP3   OH244466   7.434   6.684   3.483
14842TIP3    H144467   7.342   6.705   3.496
14842TIP3    H244468   7.475   6.704   3.568
14843TIP3   OH244469   2.307   2.643   4.458
14843TIP3    H144470   2.237   2.582   4.434
14843TIP3    H244471   2.324   2.626   4.550
14844TIP3   OH244472   5.197   5.604   2.436
14844TIP3    H144473   5.192   5.552   2.516
14844TIP3    H244474   5.254   5.677   2.459
14845TIP3   OH244475   1.755   4.107   2.477
14845TIP3    H144476   1.700   4.055   2.418
14845TIP3    H244477   1.703   4.115   2.557
14846TIP3   OH244478   2.990   4.552   1.698
14846TIP3    H144479   2.959   4.461   1.695
14846TIP3    H244480   2.933   4.599   1.637
14847TIP3   OH244481   5.760   2.645   2.060
14847TIP3    H144482   5.836   2.609   2.015
14847TIP3    H244483   5.685   2.597   2.025
14848TIP3   OH244484   1.073   3.725   0.915
14848TIP3    H144485   1.020   3.757   0.842
14848TIP3    H244486   1.160   3.711   0.878
14849TIP3   OH244487   1.756   6.616   0.199
14849TIP3    H144488   1.697   6.662   0.259
14849TIP3    H244489   1.702   6.546   0.162
14850TIP3   OH244490   0.843   4.671   6.513
14850TIP3    H144491   0.928   4.674   6.470
14850TIP3    H244492   0.861   4.637   6.600
14851TIP3   OH244493   3.847   2.572   2.152
14851TIP3    H144494   3.877   2.518   2.080
14851TIP3    H244495   3.904   2.549   2.225
14852TIP3   OH244496   2.919   1.258   1.034
14852TIP3    H144497   2.879   1.187   1.085
14852TIP3    H244498   2.902   1.337   1.086
14853TIP3   OH244499   8.029   0.434   0.294
14853TIP3    H144500   8.076   0.372   0.238
14853TIP3    H244501   7.993   0.381   0.364
14854TIP3   OH244502   5.559   5.043   5.554
14854TIP3    H144503   5.618   5.115   5.574
14854TIP3    H244504   5.511   5.072   5.476
14855TIP3   OH244505   5.806   2.224   2.584
14855TIP3    H144506   5.721   2.242   2.625
14855TIP3    H244507   5.860   2.188   2.655
14856TIP3   OH244508   2.305   7.876   5.168
14856TIP3    H144509   2.330   7.943   5.232
14856TIP3    H244510   2.386   7.829   5.150
14857TIP3   OH244511   0.757   7.005   2.436
14857TIP3    H144512   0.773   7.064   2.363
14857TIP3    H244513   0.844   6.990   2.474
14858TIP3   OH244514   5.016   7.659   4.758
14858TIP3    H144515   4.942   7.603   4.781
14858TIP3    H244516   4.981   7.719   4.692
14859TIP3   OH244517   6.700   1.116   1.958
14859TIP3    H144518   6.725   1.054   1.890
14859TIP3    H244519   6.626   1.074   2.002
14860TIP3   OH244520   4.835   3.583   6.632
14860TIP3    H144521   4.875   3.515   6.580
14860TIP3    H244522   4.746   3.551   6.650
14861TIP3   OH244523   0.626   1.564   5.559
14861TIP3    H144524   0.660   1.523   5.638
14861TIP3    H244525   0.649   1.503   5.489
14862TIP3   OH244526   6.239   6.756   3.089
14862TIP3    H144527   6.219   6.825   3.152
14862TIP3    H244528   6.257   6.803   3.008
14863TIP3   OH244529   6.676   7.845   3.637
14863TIP3    H144530   6.712   7.843   3.726
14863TIP3    H244531   6.634   7.931   3.630
14864TIP3   OH244532   4.838   1.429   5.442
14864TIP3    H144533   4.902   1.499   5.429
14864TIP3    H244534   4.864   1.361   5.381
14865TIP3   OH244535   7.154   0.256   4.255
14865TIP3    H144536   7.121   0.186   4.312
14865TIP3    H244537   7.101   0.250   4.176
14866TIP3   OH244538   4.763   3.338   5.277
14866TIP3    H144539   4.697   3.392   5.234
14866TIP3    H244540   4.820   3.308   5.206
14867TIP3   OH244541   4.930   1.653   5.252
14867TIP3    H144542   4.871   1.618   5.185
14867TIP3    H244543   4.937   1.746   5.232
14868TIP3   OH244544   5.443   0.532   5.521
14868TIP3    H144545   5.502   0.465   5.555
14868TIP3    H244546   5.363   0.521   5.572
14869TIP3   OH244547   1.425   6.233   1.454
14869TIP3    H144548   1.336   6.207   1.429
14869TIP3    H244549   1.433   6.209   1.546
14870TIP3   OH244550   7.106   3.209   1.329
14870TIP3    H144551   7.018   3.178   1.352
14870TIP3    H244552   7.133   3.263   1.403
14871TIP3   OH244553   6.930   2.053   5.253
14871TIP3    H144554   7.016   2.016   5.270
14871TIP3    H244555   6.870   2.004   5.309
14872TIP3   OH244556   1.982   2.581   1.828
14872TIP3    H144557   2.059   2.544   1.785
14872TIP3    H244558   2.007   2.587   1.920
14873TIP3   OH244559   1.913   4.776   4.423
14873TIP3    H144560   2.003   4.791   4.394
14873TIP3    H244561   1.871   4.862   4.418
14874TIP3   OH244562   8.212   3.033   3.609
14874TIP3    H144563   8.214   3.118   3.564
14874TIP3    H244564   8.195   2.969   3.540
14875TIP3   OH244565   5.054   5.541   0.727
14875TIP3    H144566   5.028   5.501   0.810
14875TIP3    H244567   5.137   5.584   0.746
14876TIP3   OH244568   3.553   2.734   5.900
14876TIP3    H144569   3.624   2.710   5.840
14876TIP3    H244570   3.590   2.719   5.987
14877TIP3   OH244571   2.498   2.391   1.952
14877TIP3    H144572   2.568   2.374   2.015
14877TIP3    H244573   2.534   2.458   1.894
14878TIP3   OH244574   6.276   2.872   2.904
14878TIP3    H144575   6.304   2.836   2.820
14878TIP3    H244576   6.293   2.966   2.896
14879TIP3   OH244577   5.625   7.244   0.365
14879TIP3    H144578   5.648   7.165   0.316
14879TIP3    H244579   5.673   7.315   0.321
14880TIP3   OH244580   6.008   3.572   5.638
14880TIP3    H144581   6.006   3.477   5.652
14880TIP3    H244582   5.917   3.596   5.622
14881TIP3   OH244583   5.852   0.174   5.324
14881TIP3    H144584   5.757   0.179   5.312
14881TIP3    H244585   5.882   0.114   5.255
14882TIP3   OH244586   0.246   6.630   5.575
14882TIP3    H144587   0.208   6.613   5.661
14882TIP3    H244588   0.293   6.713   5.586
14883TIP3   OH244589   4.329   4.022   5.140
14883TIP3    H144590   4.388   3.947   5.146
14883TIP3    H244591   4.250   3.993   5.186
14884TIP3   OH244592   5.192   0.899   1.607
14884TIP3    H144593   5.126   0.852   1.658
14884TIP3    H244594   5.141   0.953   1.546
14885TIP3   OH244595   6.868   6.799   5.502
14885TIP3    H144596   6.943   6.787   5.559
14885TIP3    H244597   6.858   6.715   5.458
14886TIP3   OH244598   4.304   7.750   2.448
14886TIP3    H144599   4.281   7.808   2.375
14886TIP3    H244600   4.387   7.786   2.481
14887TIP3   OH244601   1.492   3.861   4.557
14887TIP3    H144602   1.532   3.801   4.620
14887TIP3    H244603   1.492   3.946   4.602
14888TIP3   OH244604   4.840   2.210   3.526
14888TIP3    H144605   4.893   2.132   3.541
14888TIP3    H244606   4.829   2.250   3.612
14889TIP3   OH244607   7.594   7.647   0.348
14889TIP3    H144608   7.596   7.586   0.275
14889TIP3    H244609   7.506   7.637   0.385
14890TIP3   OH244610   7.007   4.446   3.170
14890TIP3    H144611   7.009   4.484   3.082
14890TIP3    H244612   7.062   4.367   3.163
14891TIP3   OH244613   1.354   3.796   1.797
14891TIP3    H144614   1.376   3.733   1.866
14891TIP3    H244615   1.439   3.822   1.761
14892TIP3   OH244616   7.458   4.393   2.805
14892TIP3    H144617   7.429   4.481   2.782
14892TIP3    H244618   7.378   4.346   2.825
14893TIP3   OH244619   5.951   4.386   2.516
14893TIP3    H144620   5.931   4.355   2.604
14893TIP3    H244621   6.038   4.426   2.523
14894TIP3   OH244622   7.750   5.512   4.360
14894TIP3    H144623   7.768   5.566   4.282
14894TIP3    H244624   7.659   5.486   4.350
14895TIP3   OH244625   5.985   4.900   5.830
14895TIP3    H144626   6.075   4.874   5.849
14895TIP3    H244627   5.949   4.826   5.782
14896TIP3   OH244628   8.373   5.024   0.187
14896TIP3    H144629   8.327   4.941   0.177
14896TIP3    H244630   8.339   5.060   0.269
14897TIP3   OH244631   7.516   6.649   0.013
14897TIP3    H144632   7.504   6.556   0.031
14897TIP3    H244633   7.606   6.667   0.040
14898TIP3   OH244634   1.947   1.919   0.332
14898TIP3    H144635   1.979   1.848   0.388
14898TIP3    H244636   1.903   1.875   0.259
14899TIP3   OH244637   1.370   6.848   2.895
14899TIP3    H144638   1.463   6.847   2.873
14899TIP3    H244639   1.367   6.846   2.990
14900TIP3   OH244640   5.114   0.262   0.480
14900TIP3    H144641   5.072   0.289   0.399
14900TIP3    H244642   5.171   0.189   0.456
14901TIP3   OH244643   4.356   7.152   6.826
14901TIP3    H144644   4.341   7.186   6.914
14901TIP3    H244645   4.442   7.110   6.831
14902TIP3   OH244646   4.079   5.218   2.730
14902TIP3    H144647   4.111   5.308   2.729
14902TIP3    H244648   4.154   5.167   2.761
14903TIP3   OH244649   6.668   6.955   2.122
14903TIP3    H144650   6.694   7.046   2.137
14903TIP3    H244651   6.697   6.936   2.033
14904TIP3   OH244652   4.678   3.191   1.581
14904TIP3    H144653   4.756   3.141   1.558
14904TIP3    H244654   4.609   3.125   1.589
14905TIP3   OH244655   1.623   4.431   2.309
14905TIP3    H144656   1.541   4.473   2.282
14905TIP3    H244657   1.627   4.351   2.256
14906TIP3   OH244658   2.965   3.870   1.298
14906TIP3    H144659   3.034   3.817   1.258
14906TIP3    H244660   2.993   3.881   1.389
14907TIP3   OH244661   6.616   5.879   0.636
14907TIP3    H144662   6.529   5.917   0.634
14907TIP3    H244663   6.636   5.858   0.545
14908TIP3   OH244664   5.854   5.637   6.267
14908TIP3    H144665   5.825   5.695   6.197
14908TIP3    H244666   5.915   5.691   6.318
14909TIP3   OH244667   1.988   7.633   5.911
14909TIP3    H144668   1.901   7.623   5.873
14909TIP3    H244669   2.048   7.601   5.843
14910TIP3   OH244670   6.102   3.161   2.366
14910TIP3    H144671   6.116   3.111   2.286
14910TIP3    H244672   6.165   3.124   2.428
14911TIP3   OH244673   5.766   1.543   6.493
14911TIP3    H144674   5.768   1.638   6.499
14911TIP3    H244675   5.694   1.516   6.550
14912TIP3   OH244676   7.047   3.891   3.548
14912TIP3    H144677   7.035   3.797   3.558
14912TIP3    H244678   7.111   3.900   3.478
14913TIP3   OH244679   7.140   6.367   2.345
14913TIP3    H144680   7.110   6.358   2.435
14913TIP3    H244681   7.158   6.461   2.335
14914TIP3   OH244682   4.741   6.071   0.461
14914TIP3    H144683   4.768   6.118   0.539
14914TIP3    H244684   4.695   6.136   0.408
14915TIP3   OH244685   4.534   3.904   6.055
14915TIP3    H144686   4.604   3.865   6.001
14915TIP3    H244687   4.569   3.989   6.080
14916TIP3   OH244688   3.161   7.373   5.535
14916TIP3    H144689   3.119   7.311   5.475
14916TIP3    H244690   3.140   7.341   5.622
14917TIP3   OH244691   5.257   3.309   0.389
14917TIP3    H144692   5.274   3.245   0.458
14917TIP3    H244693   5.308   3.386   0.415
14918TIP3   OH244694   7.064   7.087   2.189
14918TIP3    H144695   6.984   7.134   2.212
14918TIP3    H244696   7.048   7.054   2.101
14919TIP3   OH244697   0.097   2.450   6.094
14919TIP3    H144698   0.093   2.420   6.003
14919TIP3    H244699   0.133   2.377   6.142
14920TIP3   OH244700   4.441   2.020   1.740
14920TIP3    H144701   4.443   2.092   1.677
14920TIP3    H244702   4.532   2.008   1.766
14921TIP3   OH244703   4.352   4.710   2.385
14921TIP3    H144704   4.429   4.750   2.346
14921TIP3    H244705   4.385   4.671   2.466
14922TIP3   OH244706   5.534   5.362   6.222
14922TIP3    H144707   5.608   5.370   6.162
14922TIP3    H244708   5.501   5.274   6.207
14923TIP3   OH244709   7.798   4.036   4.677
14923TIP3    H144710   7.721   4.086   4.704
14923TIP3    H244711   7.857   4.102   4.641
14924TIP3   OH244712   0.931   2.952   6.543
14924TIP3    H144713   0.904   3.009   6.615
14924TIP3    H244714   0.851   2.938   6.492
14925TIP3   OH244715   1.396   2.690   1.999
14925TIP3    H144716   1.490   2.699   2.015
14925TIP3    H244717   1.361   2.656   2.082
14926TIP3   OH244718   3.915   3.997   3.172
14926TIP3    H144719   3.843   4.007   3.235
14926TIP3    H244720   3.994   4.016   3.223
14927TIP3   OH244721   7.702   0.919   1.587
14927TIP3    H144722   7.661   0.870   1.658
14927TIP3    H244723   7.777   0.866   1.561
14928TIP3   OH244724   4.321   2.626   1.777
14928TIP3    H144725   4.331   2.688   1.849
14928TIP3    H244726   4.338   2.541   1.817
14929TIP3   OH244727   0.090   0.454   5.477
14929TIP3    H144728   0.145   0.491   5.408
14929TIP3    H244729   0.012   0.509   5.477
14930TIP3   OH244730   8.154   1.920   5.828
14930TIP3    H144731   8.112   1.995   5.786
14930TIP3    H244732   8.125   1.844   5.778
14931TIP3   OH244733   3.662   0.264   2.187
14931TIP3    H144734   3.592   0.199   2.173
14931TIP3    H244735   3.678   0.301   2.100
14932TIP3   OH244736   1.442   4.373   2.723
14932TIP3    H144737   1.523   4.345   2.680
14932TIP3    H244738   1.448   4.468   2.726
14933TIP3   OH244739   7.563   0.478   0.462
14933TIP3    H144740   7.473   0.510   0.452
14933TIP3    H244741   7.588   0.448   0.375
14934TIP3   OH244742   0.716   5.335   4.908
14934TIP3    H144743   0.696   5.425   4.882
14934TIP3    H244744   0.692   5.330   5.000
14935TIP3   OH244745   1.371   7.726   5.775
14935TIP3    H144746   1.447   7.732   5.718
14935TIP3    H244747   1.358   7.632   5.787
14936TIP3   OH244748   0.284   3.611   1.755
14936TIP3    H144749   0.266   3.619   1.661
14936TIP3    H244750   0.327   3.527   1.765
14937TIP3   OH244751   7.712   3.152   5.301
14937TIP3    H144752   7.619   3.165   5.284
14937TIP3    H244753   7.714   3.082   5.367
14938TIP3   OH244754   4.820   6.526   0.441
14938TIP3    H144755   4.861   6.612   0.449
14938TIP3    H244756   4.728   6.541   0.464
14939TIP3   OH244757   2.443   5.910   2.744
14939TIP3    H144758   2.392   5.840   2.703
14939TIP3    H244759   2.488   5.953   2.671
14940TIP3   OH244760   0.120   0.656   3.291
14940TIP3    H144761   0.143   0.651   3.384
14940TIP3    H244762   0.204   0.660   3.245
14941TIP3   OH244763   4.216   2.392   0.729
14941TIP3    H144764   4.138   2.418   0.679
14941TIP3    H244765   4.228   2.461   0.794
14942TIP3   OH244766   4.757   4.115   1.060
14942TIP3    H144767   4.749   4.133   1.153
14942TIP3    H244768   4.817   4.182   1.027
14943TIP3   OH244769   7.661   1.694   5.649
14943TIP3    H144770   7.664   1.667   5.741
14943TIP3    H244771   7.574   1.669   5.619
14944TIP3   OH244772   1.736   0.727   3.960
14944TIP3    H144773   1.710   0.647   4.005
14944TIP3    H244774   1.823   0.707   3.925
14945TIP3   OH244775   2.059   5.527   5.284
14945TIP3    H144776   1.981   5.497   5.331
14945TIP3    H244777   2.095   5.448   5.243
14946TIP3   OH244778   0.990   2.994   4.686
14946TIP3    H144779   0.906   2.948   4.684
14946TIP3    H244780   1.029   2.969   4.770
14947TIP3   OH244781   0.009   6.204   3.334
14947TIP3    H144782  -0.014   6.285   3.380
14947TIP3    H244783   0.019   6.139   3.403
14948TIP3   OH244784   1.456   3.130   2.089
14948TIP3    H144785   1.469   3.100   2.179
14948TIP3    H244786   1.412   3.057   2.046
14949TIP3   OH244787   1.701   2.160   0.474
14949TIP3    H144788   1.730   2.087   0.529
14949TIP3    H244789   1.610   2.140   0.453
14950TIP3   OH244790   4.898   5.870   2.394
14950TIP3    H144791   4.955   5.936   2.353
14950TIP3    H244792   4.886   5.803   2.326
14951TIP3   OH244793   1.151   2.627   6.087
14951TIP3    H144794   1.104   2.710   6.080
14951TIP3    H244795   1.231   2.649   6.136
14952TIP3   OH244796   7.774   3.198   4.515
14952TIP3    H144797   7.845   3.152   4.470
14952TIP3    H244798   7.703   3.201   4.451
14953TIP3   OH244799   8.103   1.373   1.213
14953TIP3    H144800   8.096   1.468   1.218
14953TIP3    H244801   8.062   1.342   1.295
14954TIP3   OH244802   4.371   4.169   1.642
14954TIP3    H144803   4.283   4.191   1.674
14954TIP3    H244804   4.364   4.079   1.611
14955TIP3   OH244805   1.859   6.526   2.997
14955TIP3    H144806   1.919   6.545   2.924
14955TIP3    H244807   1.827   6.612   3.025
14956TIP3   OH244808   3.081   4.288   6.588
14956TIP3    H144809   3.001   4.234   6.592
14956TIP3    H244810   3.096   4.301   6.494
14957TIP3   OH244811   4.694   0.813   1.592
14957TIP3    H144812   4.664   0.722   1.594
14957TIP3    H244813   4.663   0.847   1.508
14958TIP3   OH244814   7.837   1.927   6.675
14958TIP3    H144815   7.921   1.910   6.715
14958TIP3    H244816   7.857   1.941   6.582
14959TIP3   OH244817   5.744   1.212   1.742
14959TIP3    H144818   5.823   1.198   1.690
14959TIP3    H244819   5.739   1.134   1.798
14960TIP3   OH244820   0.730   4.605   6.036
14960TIP3    H144821   0.654   4.578   6.088
14960TIP3    H244822   0.791   4.641   6.100
14961TIP3   OH244823   6.374   5.996   1.693
14961TIP3    H144824   6.313   5.930   1.727
14961TIP3    H244825   6.329   6.032   1.616
14962TIP3   OH244826   6.089   4.340   4.394
14962TIP3    H144827   6.015   4.392   4.363
14962TIP3    H244828   6.071   4.252   4.361
14963TIP3   OH244829   5.243   2.215   6.273
14963TIP3    H144830   5.163   2.173   6.307
14963TIP3    H244831   5.294   2.142   6.237
14964TIP3   OH244832   7.758   4.699   6.628
14964TIP3    H144833   7.745   4.617   6.581
14964TIP3    H244834   7.838   4.736   6.590
14965TIP3   OH244835   1.263   2.776   4.769
14965TIP3    H144836   1.314   2.839   4.718
14965TIP3    H244837   1.290   2.792   4.860
14966TIP3   OH244838   5.176   1.709   3.324
14966TIP3    H144839   5.138   1.661   3.398
14966TIP3    H244840   5.232   1.646   3.280
14967TIP3   OH244841   5.443   6.354   4.876
14967TIP3    H144842   5.501   6.428   4.895
14967TIP3    H244843   5.372   6.393   4.825
14968TIP3   OH244844   8.100   1.433   1.817
14968TIP3    H144845   8.055   1.386   1.887
14968TIP3    H244846   8.192   1.410   1.829
14969TIP3   OH244847   4.696   7.188   4.345
14969TIP3    H144848   4.773   7.139   4.373
14969TIP3    H244849   4.731   7.272   4.314
14970TIP3   OH244850   0.085   4.076   4.507
14970TIP3    H144851   0.121   4.160   4.535
14970TIP3    H244852   0.083   4.022   4.586
14971TIP3   OH244853   6.863   1.707   4.503
14971TIP3    H144854   6.913   1.731   4.581
14971TIP3    H244855   6.927   1.709   4.432
14972TIP3   OH244856   8.111   2.238   3.617
14972TIP3    H144857   8.034   2.288   3.644
14972TIP3    H244858   8.089   2.147   3.637
14973TIP3   OH244859   0.351   0.660   3.154
14973TIP3    H144860   0.436   0.638   3.116
14973TIP3    H244861   0.323   0.738   3.106
14974TIP3   OH244862   3.577   0.959   1.486
14974TIP3    H144863   3.518   0.984   1.415
14974TIP3    H244864   3.575   1.033   1.547
14975TIP3   OH244865   2.757   0.570   0.327
14975TIP3    H144866   2.715   0.651   0.359
14975TIP3    H244867   2.838   0.564   0.377
14976TIP3   OH244868   2.447   6.881   2.544
14976TIP3    H144869   2.355   6.892   2.521
14976TIP3    H244870   2.493   6.880   2.459
14977TIP3   OH244871   3.259   2.901   4.386
14977TIP3    H144872   3.173   2.869   4.413
14977TIP3    H244873   3.268   2.985   4.430
14978TIP3   OH244874   1.354   6.685   1.905
14978TIP3    H144875   1.421   6.626   1.870
14978TIP3    H244876   1.291   6.628   1.948
14979TIP3   OH244877   7.125   5.213   5.227
14979TIP3    H144878   7.178   5.240   5.152
14979TIP3    H244879   7.111   5.120   5.214
14980TIP3   OH244880   8.199   4.453   4.601
14980TIP3    H144881   8.147   4.525   4.637
14980TIP3    H244882   8.170   4.444   4.511
14981TIP3   OH244883   1.291   5.917   0.464
14981TIP3    H144884   1.353   5.952   0.400
14981TIP3    H244885   1.345   5.865   0.524
14982TIP3   OH244886   5.969   6.998   5.684
14982TIP3    H144887   5.934   7.080   5.652
14982TIP3    H244888   6.063   7.004   5.667
14983TIP3   OH244889   7.060   3.716   4.300
14983TIP3    H144890   7.150   3.748   4.306
14983TIP3    H244891   7.034   3.735   4.210
14984TIP3   OH244892   1.322   3.343   0.546
14984TIP3    H144893   1.301   3.298   0.628
14984TIP3    H244894   1.414   3.320   0.528
14985TIP3   OH244895   4.373   3.503   4.527
14985TIP3    H144896   4.464   3.531   4.520
14985TIP3    H244897   4.378   3.412   4.557
14986TIP3   OH244898   1.607   5.704   1.545
14986TIP3    H144899   1.521   5.700   1.503
14986TIP3    H244900   1.593   5.672   1.634
14987TIP3   OH244901   7.020   1.296   2.353
14987TIP3    H144902   6.973   1.268   2.431
14987TIP3    H244903   6.965   1.268   2.280
14988TIP3   OH244904   2.990   5.056   3.974
14988TIP3    H144905   3.056   5.017   4.031
14988TIP3    H244906   2.938   5.113   4.032
14989TIP3   OH244907   2.413   7.224   2.241
14989TIP3    H144908   2.496   7.190   2.208
14989TIP3    H244909   2.396   7.301   2.187
14990TIP3   OH244910   7.902   0.147   1.470
14990TIP3    H144911   7.979   0.182   1.514
14990TIP3    H244912   7.897   0.055   1.498
14991TIP3   OH244913   5.487   5.714   6.131
14991TIP3    H144914   5.529   5.661   6.199
14991TIP3    H244915   5.406   5.667   6.111
14992TIP3   OH244916   1.551   5.969   5.068
14992TIP3    H144917   1.560   5.888   5.018
14992TIP3    H244918   1.596   6.035   5.015
14993TIP3   OH244919   5.016   0.510   6.410
14993TIP3    H144920   4.995   0.565   6.334
14993TIP3    H244921   4.932   0.492   6.451
14994TIP3   OH244922   6.909   2.645   2.171
14994TIP3    H144923   6.917   2.726   2.121
14994TIP3    H244924   6.840   2.596   2.125
14995TIP3   OH244925   2.424   3.753   2.603
14995TIP3    H144926   2.414   3.694   2.678
14995TIP3    H244927   2.383   3.834   2.631
14996TIP3   OH244928   5.952   0.773   1.163
14996TIP3    H144929   5.963   0.687   1.202
14996TIP3    H244930   6.032   0.820   1.186
14997TIP3   OH244931   7.078   4.114   4.449
14997TIP3    H144932   7.046   4.024   4.457
14997TIP3    H244933   7.120   4.117   4.363
14998TIP3   OH244934   2.381   0.716   3.445
14998TIP3    H144935   2.432   0.730   3.525
14998TIP3    H244936   2.403   0.790   3.389
14999TIP3   OH244937   2.627   6.686   2.614
14999TIP3    H144938   2.541   6.719   2.588
14999TIP3    H244939   2.617   6.591   2.616
15000TIP3   OH244940   7.128   2.128   2.724
15000TIP3    H144941   7.092   2.194   2.665
15000TIP3    H244942   7.167   2.063   2.666
15001TIP3   OH244943   5.065   0.709   3.233
15001TIP3    H144944   4.994   0.735   3.174
15001TIP3    H244945   5.036   0.735   3.320
15002TIP3   OH244946   8.154   2.315   0.540
15002TIP3    H144947   8.186   2.356   0.620
15002TIP3    H244948   8.060   2.307   0.553
15003TIP3   OH244949   3.645   1.498   0.626
15003TIP3    H144950   3.550   1.505   0.622
15003TIP3    H244951   3.661   1.412   0.666
15004TIP3   OH244952   4.302   4.907   6.654
15004TIP3    H144953   4.207   4.914   6.641
15004TIP3    H244954   4.324   4.985   6.706
15005TIP3   OH244955   3.413   2.370   0.846
15005TIP3    H144956   3.431   2.377   0.940
15005TIP3    H244957   3.460   2.291   0.819
15006TIP3   OH244958   5.789   5.085   3.155
15006TIP3    H144959   5.804   5.040   3.238
15006TIP3    H244960   5.856   5.153   3.151
15007TIP3   OH244961   7.827   2.912   0.418
15007TIP3    H144962   7.916   2.945   0.412
15007TIP3    H244963   7.835   2.817   0.409
15008TIP3   OH244964   1.703   4.802   6.410
15008TIP3    H144965   1.769   4.863   6.442
15008TIP3    H244966   1.708   4.728   6.470
15009TIP3   OH244967   0.866   2.816   4.446
15009TIP3    H144968   0.835   2.732   4.478
15009TIP3    H244969   0.961   2.805   4.438
15010TIP3   OH244970   2.539   5.306   3.771
15010TIP3    H144971   2.607   5.240   3.783
15010TIP3    H244972   2.508   5.292   3.681
15011TIP3   OH244973   6.684   6.522   2.488
15011TIP3    H144974   6.678   6.605   2.440
15011TIP3    H244975   6.672   6.546   2.580
15012TIP3   OH244976   4.369   5.441   2.475
15012TIP3    H144977   4.358   5.422   2.569
15012TIP3    H244978   4.445   5.498   2.471
15013TIP3   OH244979   2.638   1.036   2.437
15013TIP3    H144980   2.573   1.091   2.480
15013TIP3    H244981   2.637   1.064   2.345
15014TIP3   OH244982   2.308   7.644   4.789
15014TIP3    H144983   2.261   7.691   4.858
15014TIP3    H244984   2.375   7.594   4.836
15015TIP3   OH244985   2.175   5.533   0.288
15015TIP3    H144986   2.163   5.545   0.194
15015TIP3    H244987   2.108   5.589   0.328
15016TIP3   OH244988   0.573   2.624   4.223
15016TIP3    H144989   0.587   2.716   4.244
15016TIP3    H244990   0.658   2.591   4.196
15017TIP3   OH244991   7.100   7.033   2.453
15017TIP3    H144992   7.101   7.058   2.361
15017TIP3    H244993   7.022   6.979   2.463
15018TIP3   OH244994   2.540   1.373   2.853
15018TIP3    H144995   2.445   1.369   2.843
15018TIP3    H244996   2.554   1.404   2.942
15019TIP3   OH244997   5.875   7.869   2.445
15019TIP3    H144998   5.931   7.815   2.389
15019TIP3    H244999   5.928   7.884   2.524
15020TIP3   OH245000   0.534   5.521   6.009
15020TIP3    H145001   0.453   5.541   5.963
15020TIP3    H245002   0.569   5.607   6.035
15021TIP3   OH245003   2.928   5.362   4.407
15021TIP3    H145004   2.950   5.336   4.496
15021TIP3    H245005   2.906   5.455   4.414
15022TIP3   OH245006   7.005   3.781   6.243
15022TIP3    H145007   7.073   3.847   6.232
15022TIP3    H245008   6.924   3.832   6.250
15023TIP3   OH245009   5.014   5.193   2.641
15023TIP3    H145010   5.060   5.110   2.652
15023TIP3    H245011   5.023   5.236   2.726
15024TIP3   OH245012   5.618   0.577   0.166
15024TIP3    H145013   5.684   0.532   0.220
15024TIP3    H245014   5.534   0.549   0.203
15025TIP3   OH245015   6.060   4.480   4.099
15025TIP3    H145016   6.055   4.521   4.186
15025TIP3    H245017   6.152   4.457   4.088
15026TIP3   OH245018   4.332   1.259   5.788
15026TIP3    H145019   4.397   1.280   5.855
15026TIP3    H245020   4.268   1.330   5.794
15027TIP3   OH245021   0.541   1.206   2.669
15027TIP3    H145022   0.580   1.167   2.591
15027TIP3    H245023   0.590   1.287   2.683
15028TIP3   OH245024   6.344   1.858   3.202
15028TIP3    H145025   6.334   1.813   3.286
15028TIP3    H245026   6.425   1.908   3.211
15029TIP3   OH245027   2.770   4.616   0.434
15029TIP3    H145028   2.807   4.700   0.405
15029TIP3    H245029   2.743   4.573   0.353
15030TIP3   OH245030   1.479   6.225   2.620
15030TIP3    H145031   1.534   6.218   2.698
15030TIP3    H245032   1.433   6.308   2.631
15031TIP3   OH245033   0.241   2.175   1.284
15031TIP3    H145034   0.317   2.223   1.251
15031TIP3    H245035   0.172   2.241   1.291
15032TIP3   OH245036   4.524   3.760   4.768
15032TIP3    H145037   4.564   3.812   4.838
15032TIP3    H245038   4.494   3.680   4.812
15033TIP3   OH245039   5.706   6.606   0.920
15033TIP3    H145040   5.797   6.619   0.947
15033TIP3    H245041   5.676   6.693   0.892
15034TIP3   OH245042   6.324   0.550   0.385
15034TIP3    H145043   6.336   0.470   0.333
15034TIP3    H245044   6.332   0.522   0.476
15035TIP3   OH245045   1.250   7.272   0.003
15035TIP3    H145046   1.172   7.294  -0.048
15035TIP3    H245047   1.231   7.186   0.040
15036TIP3   OH245048   2.193   3.467   3.356
15036TIP3    H145049   2.113   3.420   3.378
15036TIP3    H245050   2.210   3.523   3.431
15037TIP3   OH245051   0.149   6.573   2.858
15037TIP3    H145052   0.230   6.522   2.868
15037TIP3    H245053   0.083   6.520   2.904
15038TIP3   OH245054   6.635   7.660   6.125
15038TIP3    H145055   6.678   7.736   6.086
15038TIP3    H245056   6.706   7.608   6.162
15039TIP3   OH245057   7.156   4.365   4.560
15039TIP3    H145058   7.111   4.285   4.532
15039TIP3    H245059   7.145   4.367   4.655
15040TIP3   OH245060   4.651   7.663   4.101
15040TIP3    H145061   4.580   7.647   4.038
15040TIP3    H245062   4.626   7.613   4.179
15041TIP3   OH245063   2.527   7.215   5.678
15041TIP3    H145064   2.605   7.239   5.729
15041TIP3    H245065   2.562   7.171   5.600
15042TIP3   OH245066   5.224   1.390   4.583
15042TIP3    H145067   5.291   1.333   4.622
15042TIP3    H245068   5.216   1.357   4.493
15043TIP3   OH245069   4.289   2.790   6.831
15043TIP3    H145070   4.230   2.817   6.761
15043TIP3    H245071   4.314   2.700   6.810
15044TIP3   OH245072   2.263   6.614   1.807
15044TIP3    H145073   2.304   6.592   1.890
15044TIP3    H245074   2.199   6.544   1.793
15045TIP3   OH245075   1.159   3.438   6.312
15045TIP3    H145076   1.107   3.440   6.232
15045TIP3    H245077   1.118   3.370   6.365
15046TIP3   OH245078   6.087   6.524   0.036
15046TIP3    H145079   6.063   6.539  -0.055
15046TIP3    H245080   6.102   6.612   0.071
15047TIP3   OH245081   4.767   6.571   2.803
15047TIP3    H145082   4.842   6.614   2.845
15047TIP3    H245083   4.691   6.617   2.837
15048TIP3   OH245084   7.156   7.047   3.153
15048TIP3    H145085   7.114   7.131   3.133
15048TIP3    H245086   7.098   6.982   3.113
15049TIP3   OH245087   5.326   2.919   1.287
15049TIP3    H145088   5.307   2.841   1.339
15049TIP3    H245089   5.374   2.977   1.346
15050TIP3   OH245090   6.335   1.320   2.861
15050TIP3    H145091   6.326   1.370   2.780
15050TIP3    H245092   6.344   1.387   2.929
15051TIP3   OH245093   4.164   6.435   0.650
15051TIP3    H145094   4.210   6.442   0.566
15051TIP3    H245095   4.195   6.510   0.700
15052TIP3   OH245096   4.660   6.704   4.796
15052TIP3    H145097   4.743   6.704   4.844
15052TIP3    H245098   4.623   6.617   4.814
15053TIP3   OH245099   5.946   4.989   1.682
15053TIP3    H145100   5.911   5.013   1.595
15053TIP3    H245101   5.925   5.065   1.737
15054TIP3   OH245102   3.451   7.839   2.187
15054TIP3    H145103   3.509   7.861   2.114
15054TIP3    H245104   3.499   7.773   2.237
15055TIP3   OH245105   7.947   3.622   1.719
15055TIP3    H145106   7.896   3.655   1.645
15055TIP3    H245107   8.035   3.656   1.705
15056TIP3   OH245108   7.075   4.795   4.928
15056TIP3    H145109   6.982   4.773   4.924
15056TIP3    H245110   7.117   4.716   4.961
15057TIP3   OH245111   2.741   1.839   1.202
15057TIP3    H145112   2.741   1.850   1.297
15057TIP3    H245113   2.689   1.912   1.169
15058TIP3   OH245114   2.200   4.615   3.545
15058TIP3    H145115   2.162   4.613   3.633
15058TIP3    H245116   2.164   4.694   3.505
15059TIP3   OH245117   3.429   4.795   0.011
15059TIP3    H145118   3.465   4.883  -0.003
15059TIP3    H245119   3.336   4.810   0.027
15060TIP3   OH245120   5.315   2.955   5.402
15060TIP3    H145121   5.309   2.887   5.468
15060TIP3    H245122   5.405   2.949   5.368
15061TIP3   OH245123   5.003   4.636   3.741
15061TIP3    H145124   5.080   4.644   3.685
15061TIP3    H245125   5.005   4.545   3.771
15062TIP3   OH245126   0.521   5.230   3.782
15062TIP3    H145127   0.491   5.307   3.831
15062TIP3    H245128   0.492   5.156   3.834
15063TIP3   OH245129   2.463   0.857   6.311
15063TIP3    H145130   2.393   0.921   6.320
15063TIP3    H245131   2.458   0.829   6.219
15064TIP3   OH245132   2.712   1.323   2.193
15064TIP3    H145133   2.706   1.230   2.169
15064TIP3    H245134   2.631   1.362   2.160
15065TIP3   OH245135   2.687   1.255   4.717
15065TIP3    H145136   2.727   1.202   4.786
15065TIP3    H245137   2.693   1.345   4.750
15066TIP3   OH245138   2.700   6.949   2.811
15066TIP3    H145139   2.770   7.003   2.776
15066TIP3    H245140   2.681   6.886   2.742
15067TIP3   OH245141   7.934   2.780   2.973
15067TIP3    H145142   8.000   2.795   3.041
15067TIP3    H245143   7.895   2.696   2.995
15068TIP3   OH245144   1.157   7.787   2.753
15068TIP3    H145145   1.086   7.841   2.787
15068TIP3    H245146   1.135   7.774   2.661
15069TIP3   OH245147   3.510   0.208   5.725
15069TIP3    H145148   3.518   0.303   5.717
15069TIP3    H245149   3.458   0.182   5.648
15070TIP3   OH245150   2.705   0.630   0.735
15070TIP3    H145151   2.615   0.662   0.727
15070TIP3    H245152   2.749   0.695   0.790
15071TIP3   OH245153   4.481   6.970   2.049
15071TIP3    H145154   4.391   6.983   2.079
15071TIP3    H245155   4.521   7.057   2.056
15072TIP3   OH245156   6.519   0.489   2.417
15072TIP3    H145157   6.538   0.523   2.505
15072TIP3    H245158   6.594   0.515   2.364
15073TIP3   OH245159   3.445   2.638   0.248
15073TIP3    H145160   3.468   2.548   0.270
15073TIP3    H245161   3.442   2.640   0.153
15074TIP3   OH245162   3.982   4.263   1.826
15074TIP3    H145163   3.894   4.291   1.852
15074TIP3    H245164   3.982   4.168   1.840
15075TIP3   OH245165   3.098   2.005   3.320
15075TIP3    H145166   3.140   1.921   3.335
15075TIP3    H245167   3.165   2.070   3.338
15076TIP3   OH245168   3.642   2.001   6.686
15076TIP3    H145169   3.716   2.024   6.631
15076TIP3    H245170   3.565   2.021   6.632
15077TIP3   OH245171   4.992   7.219   6.257
15077TIP3    H145172   5.061   7.253   6.314
15077TIP3    H245173   5.011   7.126   6.248
15078TIP3   OH245174   1.846   1.549   3.052
15078TIP3    H145175   1.791   1.576   2.979
15078TIP3    H245176   1.786   1.503   3.111
15079TIP3   OH245177   6.960   0.875   5.130
15079TIP3    H145178   7.017   0.864   5.054
15079TIP3    H245179   6.888   0.930   5.099
15080TIP3   OH245180   5.389   6.194   3.699
15080TIP3    H145181   5.397   6.261   3.767
15080TIP3    H245182   5.465   6.137   3.713
15081TIP3   OH245183   0.073   4.639   4.531
15081TIP3    H145184  -0.011   4.685   4.530
15081TIP3    H245185   0.098   4.638   4.624
15082TIP3   OH245186   7.108   4.348   5.821
15082TIP3    H145187   7.098   4.432   5.777
15082TIP3    H245188   7.135   4.370   5.910
15083TIP3   OH245189   4.955   7.383   6.032
15083TIP3    H145190   4.964   7.447   6.103
15083TIP3    H245191   4.958   7.298   6.077
15084TIP3   OH245192   6.557   6.227   6.746
15084TIP3    H145193   6.640   6.266   6.771
15084TIP3    H245194   6.525   6.185   6.826
15085TIP3   OH245195   7.355   4.488   1.129
15085TIP3    H145196   7.389   4.479   1.218
15085TIP3    H245197   7.423   4.451   1.073
15086TIP3   OH245198   0.839   3.591   6.004
15086TIP3    H145199   0.845   3.676   6.049
15086TIP3    H245200   0.747   3.581   5.982
15087TIP3   OH245201   7.800   1.416   0.124
15087TIP3    H145202   7.765   1.400   0.036
15087TIP3    H245203   7.806   1.511   0.131
15088TIP3   OH245204   1.885   2.030   1.705
15088TIP3    H145205   1.879   2.098   1.773
15088TIP3    H245206   1.974   2.038   1.671
15089TIP3   OH245207   7.841   7.907   0.166
15089TIP3    H145208   7.800   7.991   0.144
15089TIP3    H245209   7.882   7.877   0.085
15090TIP3   OH245210   6.435   4.227   3.727
15090TIP3    H145211   6.372   4.299   3.724
15090TIP3    H245212   6.491   4.240   3.650
15091TIP3   OH245213   8.295   2.962   2.891
15091TIP3    H145214   8.225   2.961   2.825
15091TIP3    H245215   8.371   2.997   2.844
15092TIP3   OH245216   5.367   4.217   5.350
15092TIP3    H145217   5.347   4.249   5.262
15092TIP3    H245218   5.360   4.122   5.344
15093TIP3   OH245219   7.702   6.471   0.241
15093TIP3    H145220   7.651   6.519   0.305
15093TIP3    H245221   7.684   6.379   0.258
15094TIP3   OH245222   1.003   4.277   0.442
15094TIP3    H145223   0.989   4.285   0.348
15094TIP3    H245224   0.914   4.271   0.478
15095TIP3   OH245225   0.868   6.791   5.109
15095TIP3    H145226   0.882   6.869   5.164
15095TIP3    H245227   0.785   6.755   5.140
15096TIP3   OH245228   3.491   5.495   1.229
15096TIP3    H145229   3.464   5.403   1.234
15096TIP3    H245230   3.512   5.519   1.319
15097TIP3   OH245231   5.008   5.611   3.590
15097TIP3    H145232   5.061   5.669   3.646
15097TIP3    H245233   4.938   5.667   3.557
15098TIP3   OH245234   5.860   3.860   5.517
15098TIP3    H145235   5.836   3.768   5.521
15098TIP3    H245236   5.848   3.884   5.425
15099TIP3   OH245237   2.595   1.561   5.936
15099TIP3    H145238   2.553   1.476   5.927
15099TIP3    H245239   2.598   1.596   5.847
15100TIP3   OH245240   2.361   2.374   0.440
15100TIP3    H145241   2.388   2.282   0.448
15100TIP3    H245242   2.442   2.421   0.418
15101TIP3   OH245243   3.641   2.754   6.835
15101TIP3    H145244   3.692   2.688   6.882
15101TIP3    H245245   3.597   2.705   6.765
15102TIP3   OH245246   5.553   0.446   5.990
15102TIP3    H145247   5.544   0.504   6.066
15102TIP3    H245248   5.583   0.503   5.920
15103TIP3   OH245249   8.184   3.119   5.406
15103TIP3    H145250   8.117   3.096   5.342
15103TIP3    H245251   8.185   3.046   5.468
15104TIP3   OH245252   1.882   3.125   0.924
15104TIP3    H145253   1.865   3.081   0.841
15104TIP3    H245254   1.807   3.183   0.936
15105TIP3   OH245255   3.649   5.422   5.197
15105TIP3    H145256   3.734   5.378   5.203
15105TIP3    H245257   3.595   5.379   5.263
15106TIP3   OH245258   2.830   7.870   4.211
15106TIP3    H145259   2.784   7.914   4.283
15106TIP3    H245260   2.868   7.792   4.252
15107TIP3   OH245261   6.106   4.830   1.325
15107TIP3    H145262   6.059   4.904   1.362
15107TIP3    H245263   6.044   4.790   1.264
15108TIP3   OH245264   7.896   7.765   5.357
15108TIP3    H145265   7.839   7.796   5.287
15108TIP3    H245266   7.869   7.675   5.373
15109TIP3   OH245267   2.268   1.590   0.497
15109TIP3    H145268   2.331   1.662   0.492
15109TIP3    H245269   2.266   1.555   0.408
15110TIP3   OH245270   6.564   2.976   1.231
15110TIP3    H145271   6.615   2.973   1.150
15110TIP3    H245272   6.577   3.064   1.265
15111TIP3   OH245273   6.883   3.119   5.401
15111TIP3    H145274   6.822   3.111   5.328
15111TIP3    H245275   6.952   3.176   5.369
15112TIP3   OH245276   5.529   2.771   6.704
15112TIP3    H145277   5.521   2.748   6.611
15112TIP3    H245278   5.508   2.864   6.708
15113TIP3   OH245279   3.514   5.584   6.349
15113TIP3    H145280   3.578   5.611   6.414
15113TIP3    H245281   3.429   5.598   6.391
15114TIP3   OH245282   7.342   2.894   0.471
15114TIP3    H145283   7.271   2.844   0.431
15114TIP3    H245284   7.352   2.856   0.558
15115TIP3   OH245285   4.595   2.521   3.562
15115TIP3    H145286   4.599   2.445   3.621
15115TIP3    H245287   4.633   2.489   3.480
15116TIP3   OH245288  -0.031   1.120   0.369
15116TIP3    H145289  -0.022   1.198   0.314
15116TIP3    H245290   0.046   1.067   0.350
15117TIP3   OH245291   5.120   3.571   1.244
15117TIP3    H145292   5.211   3.600   1.243
15117TIP3    H245293   5.102   3.543   1.155
15118TIP3   OH245294   6.964   4.305   0.781
15118TIP3    H145295   6.931   4.302   0.691
15118TIP3    H245296   7.045   4.253   0.778
15119TIP3   OH245297   5.311   4.685   1.201
15119TIP3    H145298   5.290   4.631   1.125
15119TIP3    H245299   5.239   4.747   1.206
15120TIP3   OH245300   3.872   7.456   0.124
15120TIP3    H145301   3.880   7.439   0.218
15120TIP3    H245302   3.961   7.481   0.097
15121TIP3   OH245303   0.047   1.111   1.705
15121TIP3    H145304   0.101   1.138   1.631
15121TIP3    H245305   0.000   1.034   1.674
15122TIP3   OH245306   0.061   6.213   1.280
15122TIP3    H145307   0.019   6.299   1.280
15122TIP3    H245308   0.001   6.157   1.231
15123TIP3   OH245309   3.397   6.353   2.810
15123TIP3    H145310   3.313   6.396   2.823
15123TIP3    H245311   3.447   6.374   2.888
15124TIP3   OH245312   7.392   7.265   3.282
15124TIP3    H145313   7.409   7.220   3.365
15124TIP3    H245314   7.300   7.293   3.289
15125TIP3   OH245315   0.087   3.531   4.077
15125TIP3    H145316   0.180   3.526   4.055
15125TIP3    H245317   0.084   3.526   4.172
15126TIP3   OH245318   2.003   3.733   6.292
15126TIP3    H145319   1.920   3.686   6.306
15126TIP3    H245320   2.010   3.791   6.368
15127TIP3   OH245321   5.952   1.158   1.549
15127TIP3    H145322   5.916   1.079   1.509
15127TIP3    H245323   5.914   1.230   1.498
15128TIP3   OH245324   2.643   4.034   5.379
15128TIP3    H145325   2.682   4.096   5.317
15128TIP3    H245326   2.614   3.961   5.324
15129TIP3   OH245327   3.491   7.189   6.189
15129TIP3    H145328   3.519   7.277   6.161
15129TIP3    H245329   3.549   7.130   6.142
15130TIP3   OH245330   6.735   4.568   2.904
15130TIP3    H145331   6.762   4.605   2.820
15130TIP3    H245332   6.739   4.642   2.965
15131TIP3   OH245333   4.059   2.915   2.880
15131TIP3    H145334   3.991   2.966   2.837
15131TIP3    H245335   4.057   2.830   2.836
15132TIP3   OH245336   6.410   2.218   0.634
15132TIP3    H145337   6.340   2.166   0.673
15132TIP3    H245338   6.377   2.308   0.636
15133TIP3   OH245339   0.957   6.300   1.626
15133TIP3    H145340   1.003   6.224   1.662
15133TIP3    H245341   0.868   6.293   1.660
15134TIP3   OH245342   7.117   0.018   6.621
15134TIP3    H145343   7.053   0.009   6.692
15134TIP3    H245344   7.065   0.036   6.543
15135TIP3   OH245345   7.896   6.033   5.449
15135TIP3    H145346   7.992   6.033   5.447
15135TIP3    H245347   7.871   6.100   5.385
15136TIP3   OH245348   2.585   6.514   3.773
15136TIP3    H145349   2.520   6.490   3.706
15136TIP3    H245350   2.593   6.609   3.765
15137TIP3   OH245351   7.115   3.634   3.837
15137TIP3    H145352   7.062   3.666   3.910
15137TIP3    H245353   7.200   3.676   3.848
15138TIP3   OH245354   2.146   0.320   1.612
15138TIP3    H145355   2.064   0.299   1.656
15138TIP3    H245356   2.201   0.359   1.680
15139TIP3   OH245357   0.237   0.046   6.633
15139TIP3    H145358   0.201   0.032   6.546
15139TIP3    H245359   0.162   0.045   6.692
15140TIP3   OH245360   4.037   7.404   2.209
15140TIP3    H145361   3.976   7.354   2.264
15140TIP3    H245362   4.121   7.398   2.254
15141TIP3   OH245363   6.054   3.269   4.885
15141TIP3    H145364   6.027   3.307   4.801
15141TIP3    H245365   6.149   3.275   4.885
15142TIP3   OH245366   8.291   5.795   4.034
15142TIP3    H145367   8.245   5.839   4.105
15142TIP3    H245368   8.225   5.781   3.967
15143TIP3   OH245369   2.984   7.806   6.633
15143TIP3    H145370   2.921   7.834   6.700
15143TIP3    H245371   3.005   7.887   6.585
15144TIP3   OH245372   3.742   3.218   1.155
15144TIP3    H145373   3.817   3.169   1.122
15144TIP3    H245374   3.768   3.310   1.147
15145TIP3   OH245375   5.883   3.355   2.493
15145TIP3    H145376   5.892   3.345   2.398
15145TIP3    H245377   5.967   3.325   2.528
15146TIP3   OH245378   1.850   3.814   1.140
15146TIP3    H145379   1.834   3.795   1.232
15146TIP3    H245380   1.850   3.728   1.097
15147TIP3   OH245381   6.344   6.912   1.076
15147TIP3    H145382   6.339   6.989   1.020
15147TIP3    H245383   6.400   6.939   1.149
15148TIP3   OH245384   1.017   2.124   4.630
15148TIP3    H145385   0.929   2.126   4.593
15148TIP3    H245386   1.069   2.181   4.573
15149TIP3   OH245387   5.674   4.518   0.138
15149TIP3    H145388   5.662   4.611   0.159
15149TIP3    H245389   5.687   4.518   0.043
15150TIP3   OH245390   6.180   2.612   3.006
15150TIP3    H145391   6.222   2.699   3.005
15150TIP3    H245392   6.118   2.617   3.078
15151TIP3   OH245393   4.815   1.818   2.977
15151TIP3    H145394   4.830   1.913   2.982
15151TIP3    H245395   4.750   1.801   3.045
15152TIP3   OH245396   3.442   6.203   5.196
15152TIP3    H145397   3.355   6.200   5.235
15152TIP3    H245398   3.469   6.111   5.192
15153TIP3   OH245399   3.544   2.063   2.368
15153TIP3    H145400   3.502   2.007   2.304
15153TIP3    H245401   3.524   2.022   2.453
15154TIP3   OH245402   6.560   4.828   6.522
15154TIP3    H145403   6.577   4.836   6.616
15154TIP3    H245404   6.641   4.857   6.480
15155TIP3   OH245405   1.719   5.129   5.730
15155TIP3    H145406   1.775   5.168   5.663
15155TIP3    H245407   1.720   5.192   5.802
15156TIP3   OH245408   3.953   5.265   2.135
15156TIP3    H145409   3.925   5.189   2.083
15156TIP3    H245410   4.041   5.284   2.103
15157TIP3   OH245411   0.011   1.522   5.723
15157TIP3    H145412   0.066   1.447   5.702
15157TIP3    H245413  -0.079   1.488   5.718
15158TIP3   OH245414   5.920   3.351   1.362
15158TIP3    H145415   5.832   3.376   1.390
15158TIP3    H245416   5.946   3.420   1.300
15159TIP3   OH245417   7.261   2.408   2.713
15159TIP3    H145418   7.311   2.485   2.743
15159TIP3    H245419   7.210   2.381   2.789
15160TIP3   OH245420   6.411   3.003   1.499
15160TIP3    H145421   6.386   2.988   1.590
15160TIP3    H245422   6.496   2.958   1.490
15161TIP3   OH245423   1.223   3.031   3.637
15161TIP3    H145424   1.235   3.041   3.732
15161TIP3    H245425   1.202   2.939   3.626
15162TIP3   OH245426   3.365   5.281   6.495
15162TIP3    H145427   3.303   5.341   6.538
15162TIP3    H245428   3.367   5.204   6.552
15163TIP3   OH245429   0.973   5.133   0.293
15163TIP3    H145430   1.035   5.073   0.252
15163TIP3    H245431   1.028   5.191   0.345
15164TIP3   OH245432   5.042   4.383   3.187
15164TIP3    H145433   5.058   4.297   3.148
15164TIP3    H245434   5.125   4.430   3.179
15165TIP3   OH245435   5.056   5.051   4.836
15165TIP3    H145436   4.969   5.012   4.826
15165TIP3    H245437   5.058   5.121   4.770
15166TIP3   OH245438   7.492   4.577   4.166
15166TIP3    H145439   7.400   4.562   4.147
15166TIP3    H245440   7.492   4.636   4.241
15167TIP3   OH245441   4.486   6.117   3.005
15167TIP3    H145442   4.569   6.111   3.054
15167TIP3    H245443   4.488   6.043   2.945
15168TIP3   OH245444   3.679   2.556   4.034
15168TIP3    H145445   3.603   2.595   3.989
15168TIP3    H245446   3.741   2.537   3.964
15169TIP3   OH245447   0.122   2.521   4.015
15169TIP3    H145448   0.175   2.503   3.938
15169TIP3    H245449   0.185   2.549   4.082
15170TIP3   OH245450   1.974   6.656   6.026
15170TIP3    H145451   1.962   6.741   5.983
15170TIP3    H245452   1.923   6.662   6.107
15171TIP3   OH245453   4.515   4.340   4.926
15171TIP3    H145454   4.596   4.321   4.972
15171TIP3    H245455   4.460   4.383   4.991
15172TIP3   OH245456   0.556   6.301   2.571
15172TIP3    H145457   0.548   6.224   2.515
15172TIP3    H245458   0.650   6.318   2.575
15173TIP3   OH245459   2.320   5.786   2.987
15173TIP3    H145460   2.246   5.841   3.011
15173TIP3    H245461   2.383   5.846   2.946
15174TIP3   OH245462   7.563   5.266   4.756
15174TIP3    H145463   7.659   5.271   4.760
15174TIP3    H245464   7.540   5.200   4.821
15175TIP3   OH245465   0.152   3.668   2.258
15175TIP3    H145466   0.172   3.679   2.165
15175TIP3    H245467   0.190   3.583   2.282
15176TIP3   OH245468   5.289   0.302   4.646
15176TIP3    H145469   5.305   0.262   4.561
15176TIP3    H245470   5.311   0.395   4.633
15177TIP3   OH245471   7.669   3.930   3.739
15177TIP3    H145472   7.591   3.883   3.710
15177TIP3    H245473   7.722   3.938   3.660
15178TIP3   OH245474   0.123   5.410   4.002
15178TIP3    H145475   0.199   5.407   3.945
15178TIP3    H245476   0.117   5.502   4.028
15179TIP3   OH245477   7.130   4.570   1.673
15179TIP3    H145478   7.079   4.514   1.615
15179TIP3    H245479   7.205   4.597   1.620
15180TIP3   OH245480   1.580   7.707   5.563
15180TIP3    H145481   1.554   7.789   5.519
15180TIP3    H245482   1.596   7.646   5.491
15181TIP3   OH245483   3.963   2.367   3.455
15181TIP3    H145484   3.927   2.348   3.368
15181TIP3    H245485   3.907   2.437   3.489
15182TIP3   OH245486   0.770   4.960   1.798
15182TIP3    H145487   0.833   5.008   1.744
15182TIP3    H245488   0.690   4.957   1.745
15183TIP3   OH245489   6.477   0.409   3.072
15183TIP3    H145490   6.512   0.457   2.996
15183TIP3    H245491   6.481   0.472   3.144
15184TIP3   OH245492   5.513   0.995   0.519
15184TIP3    H145493   5.432   0.976   0.567
15184TIP3    H245494   5.488   1.064   0.457
15185TIP3   OH245495   1.180   0.515   6.305
15185TIP3    H145496   1.263   0.538   6.262
15185TIP3    H245497   1.206   0.468   6.384
15186TIP3   OH245498   7.956   7.592   6.687
15186TIP3    H145499   7.960   7.683   6.715
15186TIP3    H245500   7.893   7.591   6.616
15187TIP3   OH245501   5.822   3.068   2.558
15187TIP3    H145502   5.893   3.132   2.554
15187TIP3    H245503   5.863   2.990   2.596
15188TIP3   OH245504   5.736   1.819   6.414
15188TIP3    H145505   5.689   1.889   6.459
15188TIP3    H245506   5.826   1.825   6.447
15189TIP3   OH245507   1.801   1.471   5.137
15189TIP3    H145508   1.851   1.549   5.112
15189TIP3    H245509   1.833   1.448   5.224
15190TIP3   OH245510   4.585   1.324   1.315
15190TIP3    H145511   4.565   1.412   1.347
15190TIP3    H245512   4.606   1.336   1.222
15191TIP3   OH245513   5.943   4.907   3.710
15191TIP3    H145514   6.030   4.926   3.674
15191TIP3    H245515   5.958   4.895   3.804
15192TIP3   OH245516   3.081   3.757   6.385
15192TIP3    H145517   3.015   3.696   6.352
15192TIP3    H245518   3.087   3.825   6.318
15193TIP3   OH245519   3.997   4.747   6.834
15193TIP3    H145520   3.924   4.696   6.871
15193TIP3    H245521   3.958   4.792   6.759
15194TIP3   OH245522   5.542   2.535   4.316
15194TIP3    H145523   5.543   2.535   4.220
15194TIP3    H245524   5.481   2.465   4.339
15195TIP3   OH245525   1.595   1.358   2.364
15195TIP3    H145526   1.547   1.432   2.325
15195TIP3    H245527   1.683   1.364   2.327
15196TIP3   OH245528   5.112   3.111   1.353
15196TIP3    H145529   5.182   3.061   1.311
15196TIP3    H245530   5.157   3.179   1.402
15197TIP3   OH245531   6.557   6.429   1.010
15197TIP3    H145532   6.640   6.385   0.990
15197TIP3    H245533   6.570   6.519   0.983
15198TIP3   OH245534   0.319   3.309   6.261
15198TIP3    H145535   0.320   3.277   6.171
15198TIP3    H245536   0.245   3.369   6.265
15199TIP3   OH245537   6.790   6.354   1.341
15199TIP3    H145538   6.795   6.268   1.301
15199TIP3    H245539   6.851   6.408   1.291
15200TIP3   OH245540   2.206   0.207   0.363
15200TIP3    H145541   2.189   0.237   0.274
15200TIP3    H245542   2.279   0.262   0.393
15201TIP3   OH245543   1.360   4.566   2.241
15201TIP3    H145544   1.307   4.508   2.296
15201TIP3    H245545   1.355   4.651   2.285
15202TIP3   OH245546   6.888   6.317   2.136
15202TIP3    H145547   6.960   6.343   2.194
15202TIP3    H245548   6.878   6.391   2.076
15203TIP3   OH245549   4.385   4.708   5.424
15203TIP3    H145550   4.421   4.622   5.400
15203TIP3    H245551   4.437   4.770   5.373
15204TIP3   OH245552   7.404   2.817   6.561
15204TIP3    H145553   7.399   2.779   6.648
15204TIP3    H245554   7.497   2.816   6.539
15205TIP3   OH245555   6.029   1.173   3.981
15205TIP3    H145556   6.016   1.268   3.971
15205TIP3    H245557   6.039   1.140   3.892
15206TIP3   OH245558   7.087   4.239   2.500
15206TIP3    H145559   7.102   4.154   2.542
15206TIP3    H245560   7.141   4.301   2.550
15207TIP3   OH245561   1.464   2.214   5.451
15207TIP3    H145562   1.389   2.171   5.492
15207TIP3    H245563   1.538   2.159   5.474
15208TIP3   OH245564   2.016   1.861   1.409
15208TIP3    H145565   1.961   1.940   1.406
15208TIP3    H245566   2.028   1.837   1.317
15209TIP3   OH245567   1.893   5.916   3.166
15209TIP3    H145568   1.956   5.984   3.193
15209TIP3    H245569   1.808   5.961   3.166
15210TIP3   OH245570   4.354   1.164   5.457
15210TIP3    H145571   4.416   1.168   5.529
15210TIP3    H245572   4.359   1.250   5.416
15211TIP3   OH245573   0.581   0.888   1.234
15211TIP3    H145574   0.628   0.971   1.234
15211TIP3    H245575   0.561   0.871   1.142
15212TIP3   OH245576   1.973   5.178   1.748
15212TIP3    H145577   1.893   5.126   1.745
15212TIP3    H245578   2.030   5.139   1.682
15213TIP3   OH245579   4.770   2.226   1.076
15213TIP3    H145580   4.711   2.162   1.037
15213TIP3    H245581   4.765   2.210   1.170
15214TIP3   OH245582   7.387   4.278   4.480
15214TIP3    H145583   7.361   4.216   4.411
15214TIP3    H245584   7.312   4.280   4.539
15215TIP3   OH245585   8.008   7.842   3.925
15215TIP3    H145586   8.004   7.780   3.997
15215TIP3    H245587   8.009   7.928   3.966
15216TIP3   OH245588   2.576   7.172   0.775
15216TIP3    H145589   2.656   7.223   0.790
15216TIP3    H245590   2.551   7.193   0.685
15217TIP3   OH245591   8.090   3.497   3.660
15217TIP3    H145592   8.183   3.509   3.676
15217TIP3    H245593   8.085   3.452   3.576
15218TIP3   OH245594   6.475   0.390   4.581
15218TIP3    H145595   6.456   0.355   4.494
15218TIP3    H245596   6.458   0.316   4.640
15219TIP3   OH245597   4.966   5.566   2.267
15219TIP3    H145598   5.012   5.516   2.199
15219TIP3    H245599   5.035   5.603   2.321
15220TIP3   OH245600   6.627   3.277   2.064
15220TIP3    H145601   6.579   3.201   2.031
15220TIP3    H245602   6.568   3.317   2.128
15221TIP3   OH245603   7.534   1.210   5.600
15221TIP3    H145604   7.503   1.259   5.523
15221TIP3    H245605   7.536   1.119   5.571
15222TIP3   OH245606   5.066   4.106   5.523
15222TIP3    H145607   5.150   4.073   5.492
15222TIP3    H245608   5.040   4.172   5.458
15223TIP3   OH245609   3.470   3.745   2.168
15223TIP3    H145610   3.561   3.720   2.186
15223TIP3    H245611   3.471   3.772   2.076
15224TIP3   OH245612   0.513   4.599   3.278
15224TIP3    H145613   0.496   4.530   3.214
15224TIP3    H245614   0.579   4.562   3.337
15225TIP3   OH245615   8.039   1.270   6.446
15225TIP3    H145616   8.026   1.364   6.429
15225TIP3    H245617   8.036   1.263   6.541
15226TIP3   OH245618   7.448   0.414   1.135
15226TIP3    H145619   7.452   0.454   1.222
15226TIP3    H245620   7.539   0.416   1.105
15227TIP3   OH245621   5.836   3.549   4.204
15227TIP3    H145622   5.906   3.584   4.149
15227TIP3    H245623   5.796   3.480   4.151
15228TIP3   OH245624   5.850   6.174   0.631
15228TIP3    H145625   5.845   6.094   0.580
15228TIP3    H245626   5.923   6.160   0.691
15229TIP3   OH245627   5.264   3.744   0.841
15229TIP3    H145628   5.321   3.683   0.889
15229TIP3    H245629   5.177   3.704   0.847
15230TIP3   OH245630   1.041   0.504   6.069
15230TIP3    H145631   1.091   0.512   6.150
15230TIP3    H245632   0.956   0.543   6.090
15231TIP3   OH245633   4.945   2.593   3.416
15231TIP3    H145634   4.882   2.539   3.368
15231TIP3    H245635   4.924   2.576   3.508
15232TIP3   OH245636   1.438   0.168   3.083
15232TIP3    H145637   1.369   0.227   3.053
15232TIP3    H245638   1.506   0.227   3.116
15233TIP3   OH245639   8.320   2.873   5.344
15233TIP3    H145640   8.308   2.886   5.438
15233TIP3    H245641   8.281   2.787   5.326
15234TIP3   OH245642   1.307   1.213   1.877
15234TIP3    H145643   1.368   1.237   1.947
15234TIP3    H245644   1.223   1.199   1.921
15235TIP3   OH245645   5.500   3.982   5.729
15235TIP3    H145646   5.432   3.976   5.796
15235TIP3    H245647   5.518   3.891   5.705
15236TIP3   OH245648   2.430   4.894   1.874
15236TIP3    H145649   2.516   4.871   1.840
15236TIP3    H245650   2.448   4.952   1.949
15237TIP3   OH245651   0.697   3.984   3.893
15237TIP3    H145652   0.609   4.021   3.900
15237TIP3    H245653   0.690   3.920   3.822
15238TIP3   OH245654   6.208   1.565   4.593
15238TIP3    H145655   6.202   1.646   4.644
15238TIP3    H245656   6.302   1.549   4.583
15239TIP3   OH245657   1.131   7.700   3.085
15239TIP3    H145658   1.125   7.654   3.001
15239TIP3    H245659   1.216   7.676   3.120
15240TIP3   OH245660   0.070   2.542   0.630
15240TIP3    H145661   0.123   2.502   0.561
15240TIP3    H245662   0.065   2.635   0.606
15241TIP3   OH245663   7.146   1.040   5.301
15241TIP3    H145664   7.199   1.052   5.223
15241TIP3    H245665   7.092   0.963   5.283
15242TIP3   OH245666   5.079   1.257   3.887
15242TIP3    H145667   5.104   1.215   3.969
15242TIP3    H245668   5.149   1.236   3.826
15243TIP3   OH245669   0.141   5.150   1.580
15243TIP3    H145670   0.182   5.078   1.532
15243TIP3    H245671   0.179   5.229   1.541
15244TIP3   OH245672   4.366   2.169   2.119
15244TIP3    H145673   4.382   2.097   2.058
15244TIP3    H245674   4.272   2.169   2.133
15245TIP3   OH245675   5.875   5.644   5.480
15245TIP3    H145676   5.858   5.613   5.390
15245TIP3    H245677   5.959   5.689   5.474
15246TIP3   OH245678   7.926   3.183   2.065
15246TIP3    H145679   7.839   3.146   2.079
15246TIP3    H245680   7.910   3.276   2.049
15247TIP3   OH245681   0.744   7.695   4.577
15247TIP3    H145682   0.698   7.740   4.648
15247TIP3    H245683   0.720   7.744   4.498
15248TIP3   OH245684   1.159   0.511   1.374
15248TIP3    H145685   1.212   0.432   1.375
15248TIP3    H245686   1.119   0.515   1.461
15249TIP3   OH245687   1.277   7.040   2.280
15249TIP3    H145688   1.194   7.009   2.245
15249TIP3    H245689   1.312   6.966   2.331
15250TIP3   OH245690   1.299   2.054   1.369
15250TIP3    H145691   1.377   2.091   1.328
15250TIP3    H245692   1.236   2.125   1.368
15251TIP3   OH245693   6.598   7.326   0.520
15251TIP3    H145694   6.588   7.392   0.452
15251TIP3    H245695   6.628   7.375   0.597
15252TIP3   OH245696   7.212   4.254   2.895
15252TIP3    H145697   7.183   4.239   2.985
15252TIP3    H245698   7.243   4.169   2.865
15253TIP3   OH245699   5.848   6.931   3.783
15253TIP3    H145700   5.943   6.928   3.774
15253TIP3    H245701   5.818   6.975   3.704
15254TIP3   OH245702   2.774   6.235   0.121
15254TIP3    H145703   2.840   6.274   0.063
15254TIP3    H245704   2.695   6.288   0.106
15255TIP3   OH245705   5.122   2.827   2.747
15255TIP3    H145706   5.092   2.918   2.758
15255TIP3    H245707   5.218   2.833   2.748
15256TIP3   OH245708   4.761   2.245   4.805
15256TIP3    H145709   4.744   2.274   4.895
15256TIP3    H245710   4.674   2.240   4.765
15257TIP3   OH245711   0.587   7.350   4.231
15257TIP3    H145712   0.595   7.361   4.137
15257TIP3    H245713   0.655   7.287   4.254
15258TIP3   OH245714   7.367   7.245   1.165
15258TIP3    H145715   7.422   7.173   1.134
15258TIP3    H245716   7.413   7.279   1.241
15259TIP3   OH245717   7.957   0.241   3.697
15259TIP3    H145718   7.884   0.278   3.648
15259TIP3    H245719   7.977   0.159   3.652
15260TIP3   OH245720   4.786   2.381   3.334
15260TIP3    H145721   4.810   2.321   3.405
15260TIP3    H245722   4.749   2.324   3.267
15261TIP3   OH245723   3.426   6.155   4.067
15261TIP3    H145724   3.371   6.111   4.002
15261TIP3    H245725   3.444   6.241   4.029
15262TIP3   OH245726   1.991   7.766   3.377
15262TIP3    H145727   1.896   7.760   3.382
15262TIP3    H245728   2.011   7.751   3.284
15263TIP3   OH245729   5.786   4.953   1.063
15263TIP3    H145730   5.865   4.899   1.071
15263TIP3    H245731   5.757   4.939   0.973
15264TIP3   OH245732   7.330   3.043   1.983
15264TIP3    H145733   7.359   2.952   1.980
15264TIP3    H245734   7.239   3.038   2.011
15265TIP3   OH245735   6.826   1.507   4.160
15265TIP3    H145736   6.765   1.576   4.136
15265TIP3    H245737   6.793   1.472   4.242
15266TIP3   OH245738   4.600   2.824   0.026
15266TIP3    H145739   4.532   2.848  -0.038
15266TIP3    H245740   4.567   2.856   0.109
15267TIP3   OH245741   3.277   5.022   4.496
15267TIP3    H145742   3.256   4.954   4.560
15267TIP3    H245743   3.372   5.017   4.485
15268TIP3   OH245744   2.291   2.727  -0.014
15268TIP3    H145745   2.377   2.689  -0.033
15268TIP3    H245746   2.292   2.742   0.081
15269TIP3   OH245747   2.472   1.283   0.705
15269TIP3    H145748   2.566   1.303   0.706
15269TIP3    H245749   2.443   1.312   0.618
15270TIP3   OH245750   1.139   0.507   0.644
15270TIP3    H145751   1.169   0.446   0.576
15270TIP3    H245752   1.044   0.495   0.647
15271TIP3   OH245753   4.595   1.362   4.879
15271TIP3    H145754   4.559   1.318   4.802
15271TIP3    H245755   4.541   1.331   4.952
15272TIP3   OH245756   5.334   5.695   5.861
15272TIP3    H145757   5.249   5.690   5.903
15272TIP3    H245758   5.377   5.613   5.886
15273TIP3   OH245759   5.833   7.227   5.540
15273TIP3    H145760   5.762   7.242   5.478
15273TIP3    H245761   5.838   7.308   5.591
15274TIP3   OH245762   7.799   2.108   3.423
15274TIP3    H145763   7.820   2.048   3.495
15274TIP3    H245764   7.762   2.185   3.466
15275TIP3   OH245765   7.320   7.407   4.805
15275TIP3    H145766   7.318   7.324   4.853
15275TIP3    H245767   7.261   7.394   4.731
15276TIP3   OH245768   5.836   3.469   1.686
15276TIP3    H145769   5.826   3.475   1.781
15276TIP3    H245770   5.880   3.550   1.662
15277TIP3   OH245771   7.116   2.459   0.886
15277TIP3    H145772   7.111   2.548   0.922
15277TIP3    H245773   7.046   2.455   0.821
15278TIP3   OH245774   3.441   1.156   2.557
15278TIP3    H145775   3.429   1.125   2.646
15278TIP3    H245776   3.364   1.124   2.510
15279TIP3   OH245777   2.246   1.005   0.191
15279TIP3    H145778   2.248   0.916   0.227
15279TIP3    H245779   2.215   1.060   0.263
15280TIP3   OH245780   5.718   0.404   2.057
15280TIP3    H145781   5.791   0.443   2.106
15280TIP3    H245782   5.761   0.351   1.989
15281TIP3   OH245783   3.236   4.043   6.865
15281TIP3    H145784   3.278   4.114   6.816
15281TIP3    H245785   3.180   4.000   6.801
15282TIP3   OH245786   6.867   7.035   6.494
15282TIP3    H145787   6.918   7.084   6.560
15282TIP3    H245788   6.793   7.000   6.543
15283TIP3   OH245789   5.672   1.035   2.856
15283TIP3    H145790   5.689   0.964   2.918
15283TIP3    H245791   5.618   0.993   2.788
15284TIP3   OH245792   7.287   1.124   1.112
15284TIP3    H145793   7.307   1.036   1.080
15284TIP3    H245794   7.368   1.153   1.155
15285TIP3   OH245795   5.587   0.365   6.376
15285TIP3    H145796   5.574   0.422   6.452
15285TIP3    H245797   5.508   0.378   6.323
15286TIP3   OH245798   4.320   6.411   6.681
15286TIP3    H145799   4.325   6.442   6.591
15286TIP3    H245800   4.262   6.334   6.676
15287TIP3   OH245801   2.920   7.231   5.088
15287TIP3    H145802   2.940   7.305   5.032
15287TIP3    H245803   2.981   7.162   5.060
15288TIP3   OH245804   2.820   6.789   0.217
15288TIP3    H145805   2.738   6.748   0.245
15288TIP3    H245806   2.822   6.775   0.122
15289TIP3   OH245807   4.495   6.562   4.371
15289TIP3    H145808   4.506   6.607   4.287
15289TIP3    H245809   4.491   6.634   4.435
15290TIP3   OH245810   5.695   3.040   5.126
15290TIP3    H145811   5.671   3.100   5.055
15290TIP3    H245812   5.790   3.031   5.119
15291TIP3   OH245813   1.857   3.679   2.863
15291TIP3    H145814   1.866   3.746   2.795
15291TIP3    H245815   1.827   3.728   2.940
15292TIP3   OH245816   3.798   4.667   2.886
15292TIP3    H145817   3.802   4.580   2.845
15292TIP3    H245818   3.720   4.665   2.940
15293TIP3   OH245819   5.770   3.466   2.726
15293TIP3    H145820   5.814   3.426   2.652
15293TIP3    H245821   5.698   3.405   2.747
15294TIP3   OH245822   5.097   4.300   2.329
15294TIP3    H145823   5.112   4.365   2.399
15294TIP3    H245824   5.104   4.350   2.248
15295TIP3   OH245825   3.383   5.780   3.725
15295TIP3    H145826   3.337   5.772   3.642
15295TIP3    H245827   3.320   5.821   3.784
15296TIP3   OH245828   8.262   7.331   3.426
15296TIP3    H145829   8.308   7.376   3.497
15296TIP3    H245830   8.319   7.341   3.350
15297TIP3   OH245831   3.138   4.162   1.246
15297TIP3    H145832   3.071   4.221   1.211
15297TIP3    H245833   3.093   4.108   1.310
15298TIP3   OH245834   7.311   4.489   2.195
15298TIP3    H145835   7.328   4.516   2.285
15298TIP3    H245836   7.357   4.554   2.142
15299TIP3   OH245837   5.076   6.068   4.067
15299TIP3    H145838   5.030   6.042   3.988
15299TIP3    H245839   5.042   6.155   4.088
15300TIP3   OH245840   1.357   1.695   2.578
15300TIP3    H145841   1.452   1.700   2.582
15300TIP3    H245842   1.331   1.676   2.669
15301TIP3   OH245843   0.608   4.334   4.127
15301TIP3    H145844   0.690   4.368   4.093
15301TIP3    H245845   0.562   4.299   4.050
15302TIP3   OH245846   0.014   4.334   0.803
15302TIP3    H145847  -0.007   4.327   0.710
15302TIP3    H245848   0.037   4.245   0.829
15303TIP3   OH245849   4.807   2.017   0.483
15303TIP3    H145850   4.804   1.978   0.395
15303TIP3    H245851   4.760   2.100   0.473
15304TIP3   OH245852   6.319   5.880   0.617
15304TIP3    H145853   6.290   5.789   0.611
15304TIP3    H245854   6.246   5.926   0.659
15305TIP3   OH245855   3.660   1.493   4.733
15305TIP3    H145856   3.680   1.580   4.766
15305TIP3    H245857   3.575   1.471   4.772
15306TIP3   OH245858   6.443   2.840   0.656
15306TIP3    H145859   6.456   2.873   0.745
15306TIP3    H245860   6.362   2.883   0.627
15307TIP3   OH245861   7.020   0.902   1.110
15307TIP3    H145862   7.070   0.824   1.134
15307TIP3    H245863   7.048   0.922   1.020
15308TIP3   OH245864   3.722   4.653   2.140
15308TIP3    H145865   3.806   4.650   2.095
15308TIP3    H245866   3.733   4.595   2.216
15309TIP3   OH245867   8.115   2.773   5.929
15309TIP3    H145868   8.210   2.770   5.943
15309TIP3    H245869   8.080   2.707   5.989
15310TIP3   OH245870   1.572   1.075   6.306
15310TIP3    H145871   1.572   0.979   6.302
15310TIP3    H245872   1.510   1.102   6.238
15311TIP3   OH245873   2.483   3.600   3.058
15311TIP3    H145874   2.554   3.664   3.046
15311TIP3    H245875   2.520   3.534   3.116
15312TIP3   OH245876   4.153   6.265   3.335
15312TIP3    H145877   4.158   6.311   3.251
15312TIP3    H245878   4.089   6.196   3.321
15313TIP3   OH245879   6.438   4.506   2.857
15313TIP3    H145880   6.419   4.550   2.774
15313TIP3    H245881   6.533   4.519   2.870
15314TIP3   OH245882   2.876   3.994   1.057
15314TIP3    H145883   2.795   3.944   1.045
15314TIP3    H245884   2.923   3.945   1.125
15315TIP3   OH245885   1.282   5.749   5.988
15315TIP3    H145886   1.280   5.819   6.054
15315TIP3    H245887   1.368   5.759   5.946
15316TIP3   OH245888   6.175   3.806   2.949
15316TIP3    H145889   6.100   3.797   3.008
15316TIP3    H245890   6.251   3.793   3.006
15317TIP3   OH245891   5.328   6.321   0.251
15317TIP3    H145892   5.235   6.340   0.241
15317TIP3    H245893   5.343   6.325   0.345
15318TIP3   OH245894   1.155   0.809   5.381
15318TIP3    H145895   1.175   0.824   5.288
15318TIP3    H245896   1.105   0.886   5.407
15319TIP3   OH245897   7.863   0.741   1.406
15319TIP3    H145898   7.931   0.683   1.373
15319TIP3    H245899   7.827   0.782   1.327
15320TIP3   OH245900   3.941   2.776   4.152
15320TIP3    H145901   3.921   2.813   4.066
15320TIP3    H245902   3.859   2.737   4.181
15321TIP3   OH245903   2.932   6.006   3.579
15321TIP3    H145904   2.994   5.941   3.548
15321TIP3    H245905   2.919   5.985   3.672
15322TIP3   OH245906   7.169   1.114   6.312
15322TIP3    H145907   7.084   1.133   6.352
15322TIP3    H245908   7.230   1.115   6.385
15323TIP3   OH245909   1.004   7.189   6.485
15323TIP3    H145910   1.076   7.130   6.508
15323TIP3    H245911   1.043   7.276   6.484
15324TIP3   OH245912   5.673   4.787   2.836
15324TIP3    H145913   5.618   4.721   2.793
15324TIP3    H245914   5.613   4.860   2.852
15325TIP3   OH245915   2.095   3.798   4.594
15325TIP3    H145916   2.022   3.788   4.655
15325TIP3    H245917   2.129   3.886   4.611
15326TIP3   OH245918   2.734   2.150   4.049
15326TIP3    H145919   2.671   2.080   4.032
15326TIP3    H245920   2.789   2.151   3.971
15327TIP3   OH245921   4.899   4.748   0.291
15327TIP3    H145922   4.849   4.669   0.270
15327TIP3    H245923   4.835   4.808   0.327
15328TIP3   OH245924   6.290   4.137   1.469
15328TIP3    H145925   6.315   4.065   1.411
15328TIP3    H245926   6.337   4.213   1.435
15329TIP3   OH245927   6.815   4.663   4.898
15329TIP3    H145928   6.752   4.637   4.966
15329TIP3    H245929   6.812   4.592   4.834
15330TIP3   OH245930   4.778   2.458   0.732
15330TIP3    H145931   4.716   2.465   0.660
15330TIP3    H245932   4.845   2.397   0.700
15331TIP3   OH245933   4.457   0.460   5.674
15331TIP3    H145934   4.430   0.371   5.653
15331TIP3    H245935   4.383   0.515   5.646
15332TIP3   OH245936   2.570   0.859   5.276
15332TIP3    H145937   2.544   0.913   5.350
15332TIP3    H245938   2.579   0.771   5.314
15333TIP3   OH245939   4.835   7.482   4.032
15333TIP3    H145940   4.792   7.396   4.035
15333TIP3    H245941   4.770   7.542   4.069
15334TIP3   OH245942   4.321   4.846   1.138
15334TIP3    H145943   4.371   4.836   1.219
15334TIP3    H245944   4.381   4.889   1.078
15335TIP3   OH245945   8.175   5.595   0.466
15335TIP3    H145946   8.230   5.617   0.542
15335TIP3    H245947   8.088   5.580   0.503
15336TIP3   OH245948   5.431   6.400   2.975
15336TIP3    H145949   5.421   6.348   2.895
15336TIP3    H245950   5.409   6.340   3.046
15337TIP3   OH245951   1.985   0.678   3.871
15337TIP3    H145952   2.044   0.741   3.829
15337TIP3    H245953   2.019   0.669   3.960
15338TIP3   OH245954   3.704   1.947   5.220
15338TIP3    H145955   3.651   1.984   5.290
15338TIP3    H245956   3.794   1.970   5.242
15339TIP3   OH245957   6.052   0.263   5.790
15339TIP3    H145958   6.004   0.212   5.724
15339TIP3    H245959   5.984   0.299   5.847
15340TIP3   OH245960   6.867   3.201   4.197
15340TIP3    H145961   6.914   3.277   4.232
15340TIP3    H245962   6.841   3.151   4.275
15341TIP3   OH245963   6.461   2.704   5.057
15341TIP3    H145964   6.454   2.675   5.148
15341TIP3    H245965   6.541   2.756   5.055
15342TIP3   OH245966   1.738   4.714   5.413
15342TIP3    H145967   1.750   4.639   5.355
15342TIP3    H245968   1.748   4.791   5.357
15343TIP3   OH245969   3.404   0.251   4.278
15343TIP3    H145970   3.446   0.165   4.276
15343TIP3    H245971   3.470   0.310   4.242
15344TIP3   OH245972   0.074   2.528   4.340
15344TIP3    H145973   0.148   2.559   4.287
15344TIP3    H245974   0.101   2.545   4.430
15345TIP3   OH245975   2.809   2.556   4.165
15345TIP3    H145976   2.888   2.610   4.173
15345TIP3    H245977   2.832   2.473   4.207
15346TIP3   OH245978   5.316   6.414   0.844
15346TIP3    H145979   5.268   6.487   0.883
15346TIP3    H245980   5.287   6.412   0.753
15347TIP3   OH245981   4.990   1.582   2.971
15347TIP3    H145982   4.988   1.664   3.020
15347TIP3    H245983   4.900   1.568   2.943
15348TIP3   OH245984   7.533   6.095   2.652
15348TIP3    H145985   7.559   6.140   2.572
15348TIP3    H245986   7.561   6.154   2.723
15349TIP3   OH245987   4.238   0.830   1.833
15349TIP3    H145988   4.155   0.783   1.836
15349TIP3    H245989   4.289   0.791   1.904
15350TIP3   OH245990   4.498   5.839   3.100
15350TIP3    H145991   4.477   5.917   3.152
15350TIP3    H245992   4.436   5.772   3.131
15351TIP3   OH245993   4.247   0.437   2.253
15351TIP3    H145994   4.275   0.487   2.176
15351TIP3    H245995   4.323   0.385   2.277
15352TIP3   OH245996   8.082   0.805   1.007
15352TIP3    H145997   8.063   0.870   0.940
15352TIP3    H245998   8.177   0.801   1.012
15353TIP3   OH245999   0.631   6.288   0.772
15353TIP3    H146000   0.562   6.258   0.714
15353TIP3    H246001   0.707   6.235   0.749
15354TIP3   OH246002   5.088   1.946   2.368
15354TIP3    H146003   5.155   1.877   2.367
15354TIP3    H246004   5.138   2.027   2.378
15355TIP3   OH246005   6.503   1.475   2.620
15355TIP3    H146006   6.433   1.530   2.655
15355TIP3    H246007   6.549   1.530   2.558
15356TIP3   OH246008   0.104   5.336   0.206
15356TIP3    H146009   0.162   5.353   0.280
15356TIP3    H246010   0.157   5.285   0.145
15357TIP3   OH246011   5.531   3.817   2.379
15357TIP3    H146012   5.585   3.895   2.382
15357TIP3    H246013   5.590   3.746   2.402
15358TIP3   OH246014   2.564   0.811   3.998
15358TIP3    H146015   2.485   0.836   3.949
15358TIP3    H246016   2.541   0.727   4.038
15359TIP3   OH246017   1.022   6.118   5.630
15359TIP3    H146018   1.041   6.145   5.720
15359TIP3    H246019   1.096   6.062   5.605
15360TIP3   OH246020   2.926   0.298   4.113
15360TIP3    H146021   2.904   0.266   4.025
15360TIP3    H246022   3.018   0.326   4.105
15361TIP3   OH246023   7.009   3.603   1.600
15361TIP3    H146024   7.003   3.653   1.681
15361TIP3    H246025   6.971   3.661   1.533
15362TIP3   OH246026   0.852   6.426   3.303
15362TIP3    H146027   0.781   6.490   3.305
15362TIP3    H246028   0.808   6.342   3.289
15363TIP3   OH246029   4.630   6.360   0.666
15363TIP3    H146030   4.609   6.444   0.625
15363TIP3    H246031   4.553   6.339   0.718
15364TIP3   OH246032   2.348   1.528   1.948
15364TIP3    H146033   2.418   1.594   1.948
15364TIP3    H246034   2.383   1.455   1.897
15365TIP3   OH246035   0.603   6.206   4.588
15365TIP3    H146036   0.538   6.272   4.562
15365TIP3    H246037   0.680   6.226   4.536
15366TIP3   OH246038   6.179   2.190   1.409
15366TIP3    H146039   6.225   2.272   1.424
15366TIP3    H246040   6.239   2.137   1.356
15367TIP3   OH246041   2.994   5.266   0.270
15367TIP3    H146042   2.969   5.318   0.193
15367TIP3    H246043   2.987   5.175   0.240
15368TIP3   OH246044   0.925   1.051   4.019
15368TIP3    H146045   0.902   1.141   3.997
15368TIP3    H246046   1.013   1.058   4.057
15369TIP3   OH246047   5.838   0.636   3.549
15369TIP3    H146048   5.798   0.649   3.463
15369TIP3    H246049   5.932   0.650   3.535
15370TIP3   OH246050   4.097   3.428   3.386
15370TIP3    H146051   4.135   3.341   3.399
15370TIP3    H246052   4.173   3.486   3.380
15371TIP3   OH246053   2.935   4.547   5.044
15371TIP3    H146054   2.879   4.479   5.006
15371TIP3    H246055   3.024   4.513   5.034
   8.38439   7.90488   6.84582   0.00000   0.00000  -2.79480   0.00000  -2.79480  -3.95244
