Title t= 217.00000 step= 108500
19927
    1ASP      N    1   1.613   0.225   2.554
    1ASP    HT1    2   1.526   0.268   2.593
    1ASP    HT2    3   1.683   0.243   2.629
    1ASP    HT3    4   1.592   0.124   2.545
    1ASP     CA    5   1.664   0.286   2.429
    1ASP     HA    6   1.717   0.210   2.374
    1ASP     CB    7   1.538   0.332   2.345
    1ASP    HB1    8   1.488   0.420   2.390
    1ASP    HB2    9   1.455   0.259   2.353
    1ASP     CG   10   1.573   0.370   2.202
    1ASP    OD1   11   1.670   0.317   2.146
    1ASP    OD2   12   1.493   0.439   2.138
    1ASP      C   13   1.763   0.410   2.447
    1ASP      O   14   1.782   0.454   2.565
    2ALA      N   15   1.824   0.473   2.346
    2ALA     HN   16   1.816   0.443   2.251
    2ALA     CA   17   1.910   0.589   2.351
    2ALA     HA   18   1.986   0.562   2.423
    2ALA     CB   19   1.986   0.613   2.219
    2ALA    HB1   20   1.925   0.601   2.127
    2ALA    HB2   21   2.059   0.529   2.210
    2ALA    HB3   22   2.026   0.717   2.218
    2ALA      C   23   1.837   0.720   2.396
    2ALA      O   24   1.718   0.741   2.372
    3ASP      N   25   1.912   0.809   2.470
    3ASP     HN   26   2.011   0.802   2.480
    3ASP     CA   27   1.860   0.912   2.550
    3ASP     HA   28   1.782   0.877   2.617
    3ASP     CB   29   1.983   0.967   2.628
    3ASP    HB1   30   1.943   1.044   2.697
    3ASP    HB2   31   2.063   0.999   2.559
    3ASP     CG   32   2.045   0.866   2.726
    3ASP    OD1   33   2.092   0.915   2.834
    3ASP    OD2   34   2.061   0.749   2.691
    3ASP      C   35   1.799   1.016   2.455
    3ASP      O   36   1.861   1.061   2.364
    4GLY      N   37   1.675   1.063   2.480
    4GLY     HN   38   1.627   1.033   2.562
    4GLY     CA   39   1.613   1.167   2.397
    4GLY    HA1   40   1.507   1.167   2.412
    4GLY    HA2   41   1.630   1.135   2.295
    4GLY      C   42   1.663   1.305   2.413
    4GLY      O   43   1.724   1.337   2.514
    5PRO      N   44   1.650   1.404   2.321
    5PRO     CD   45   1.644   1.392   2.177
    5PRO    HD1   46   1.538   1.361   2.162
    5PRO    HD2   47   1.730   1.327   2.151
    5PRO     CA   48   1.664   1.547   2.361
    5PRO     HA   49   1.739   1.571   2.435
    5PRO     CB   50   1.712   1.612   2.224
    5PRO    HB1   51   1.823   1.604   2.221
    5PRO    HB2   52   1.692   1.720   2.206
    5PRO     CG   53   1.648   1.528   2.113
    5PRO    HG1   54   1.545   1.559   2.087
    5PRO    HG2   55   1.713   1.527   2.023
    5PRO      C   56   1.531   1.605   2.405
    5PRO      O   57   1.472   1.681   2.331
    6GLY      N   58   1.486   1.567   2.531
    6GLY     HN   59   1.544   1.506   2.585
    6GLY     CA   60   1.351   1.592   2.584
    6GLY    HA1   61   1.348   1.559   2.687
    6GLY    HA2   62   1.284   1.545   2.514
    6GLY      C   63   1.312   1.738   2.584
    6GLY      O   64   1.387   1.832   2.584
    7ASP      N   65   1.176   1.757   2.591
    7ASP     HN   66   1.107   1.685   2.599
    7ASP     CA   67   1.113   1.891   2.603
    7ASP     HA   68   1.149   1.942   2.515
    7ASP     CB   69   0.961   1.880   2.608
    7ASP    HB1   70   0.916   1.980   2.628
    7ASP    HB2   71   0.933   1.804   2.684
    7ASP     CG   72   0.902   1.835   2.475
    7ASP    OD1   73   0.969   1.821   2.368
    7ASP    OD2   74   0.781   1.806   2.479
    7ASP      C   75   1.149   1.963   2.734
    7ASP      O   76   1.175   1.899   2.835
    8PRO      N   77   1.155   2.095   2.735
    8PRO     CD   78   1.126   2.176   2.611
    8PRO    HD1   79   1.027   2.151   2.566
    8PRO    HD2   80   1.199   2.147   2.532
    8PRO     CA   81   1.180   2.184   2.850
    8PRO     HA   82   1.266   2.161   2.910
    8PRO     CB   83   1.204   2.318   2.777
    8PRO    HB1   84   1.314   2.320   2.760
    8PRO    HB2   85   1.175   2.403   2.842
    8PRO     CG   86   1.129   2.324   2.644
    8PRO    HG1   87   1.023   2.359   2.646
    8PRO    HG2   88   1.182   2.388   2.571
    8PRO      C   89   1.057   2.185   2.941
    8PRO      O   90   0.943   2.149   2.911
    9ASP      N   91   1.086   2.234   3.064
    9ASP     HN   92   1.180   2.262   3.077
    9ASP     CA   93   0.988   2.291   3.160
    9ASP     HA   94   0.925   2.210   3.194
    9ASP     CB   95   1.072   2.364   3.265
    9ASP    HB1   96   1.007   2.429   3.327
    9ASP    HB2   97   1.157   2.428   3.229
    9ASP     CG   98   1.135   2.274   3.369
    9ASP    OD1   99   1.098   2.158   3.367
    9ASP    OD2  100   1.214   2.325   3.454
    9ASP      C  101   0.892   2.396   3.106
    9ASP      O  102   0.933   2.494   3.043
   10ALA      N  103   0.759   2.390   3.134
   10ALA     HN  104   0.720   2.319   3.192
   10ALA     CA  105   0.649   2.477   3.105
   10ALA     HA  106   0.639   2.491   2.998
   10ALA     CB  107   0.513   2.426   3.163
   10ALA    HB1  108   0.509   2.426   3.274
   10ALA    HB2  109   0.501   2.319   3.135
   10ALA    HB3  110   0.434   2.494   3.124
   10ALA      C  111   0.660   2.623   3.155
   10ALA      O  112   0.719   2.656   3.258
   11GLY      N  113   0.599   2.714   3.070
   11GLY     HN  114   0.558   2.680   2.985
   11GLY     CA  115   0.598   2.859   3.086
   11GLY    HA1  116   0.582   2.897   2.986
   11GLY    HA2  117   0.697   2.884   3.121
   11GLY      C  118   0.496   2.912   3.186
   11GLY    OT1  119   0.540   2.950   3.299
   11GLY    OT2  120   0.375   2.921   3.153
   12SOD    SOD  121   4.778   1.526   3.341
   13SOD    SOD  122   5.535   2.414   5.068
   14SOD    SOD  123   5.393   5.208   3.050
   15SOD    SOD  124   0.193   1.998   1.151
   16SOD    SOD  125   0.712   3.346   3.146
   17SOD    SOD  126   2.069   2.923   4.419
   18SOD    SOD  127   0.016   3.785   0.655
   19SOD    SOD  128   1.923   1.567   0.482
   20SOD    SOD  129   1.365   5.008   2.702
   21SOD    SOD  130   4.124   3.668   2.214
   22SOD    SOD  131   6.043   2.773   2.253
   23SOD    SOD  132   1.887   3.719   2.559
   24SOD    SOD  133   2.724   0.823   3.038
   25SOD    SOD  134   3.848   5.793   1.838
   26SOD    SOD  135   0.297   4.069   2.102
   27SOD    SOD  136   5.669   2.790   3.057
   28SOD    SOD  137   5.326   4.276   0.494
   29SOD    SOD  138   4.797   0.175   4.839
   30SOD    SOD  139   2.164   1.468   3.611
   31SOD    SOD  140   3.203   4.437   0.813
   32SOD    SOD  141   1.603   4.579   5.117
   33SOD    SOD  142   5.410   0.898   3.177
   34CLA    CLA  143   4.942   1.117   0.327
   35CLA    CLA  144   6.054   2.105   0.680
   36CLA    CLA  145   1.377   0.376   2.687
   37CLA    CLA  146   3.663   4.923   2.583
   38CLA    CLA  147   2.755   2.028   4.553
   39CLA    CLA  148   2.126   5.668   1.766
   40CLA    CLA  149   0.551   0.117   4.895
   41CLA    CLA  150   4.042   2.156   4.181
   42CLA    CLA  151   5.683   4.203   0.112
   43CLA    CLA  152   5.170   4.657   2.590
   44CLA    CLA  153   6.207   3.205   4.436
   45CLA    CLA  154   5.907   2.678   3.148
   46CLA    CLA  155   4.620   0.225   1.131
   47CLA    CLA  156   0.378   1.307   1.630
   48CLA    CLA  157   4.098   0.431   3.895
   49CLA    CLA  158   6.057   3.521   1.541
   50CLA    CLA  159   5.274   0.028   4.647
   51CLA    CLA  160   3.154   4.096   4.141
   52TIP3   OH2  161   0.168   3.766   1.273
   52TIP3    H1  162   0.116   3.789   1.350
   52TIP3    H2  163   0.178   3.671   1.278
   53TIP3   OH2  164   1.297   3.065   0.378
   53TIP3    H1  165   1.238   3.012   0.324
   53TIP3    H2  166   1.280   3.155   0.349
   54TIP3   OH2  167   4.719   5.477   2.916
   54TIP3    H1  168   4.771   5.401   2.890
   54TIP3    H2  169   4.673   5.450   2.995
   55TIP3   OH2  170   4.619   5.165   0.245
   55TIP3    H1  171   4.534   5.124   0.259
   55TIP3    H2  172   4.655   5.119   0.169
   56TIP3   OH2  173   5.237   4.348   1.090
   56TIP3    H1  174   5.292   4.280   1.051
   56TIP3    H2  175   5.298   4.402   1.140
   57TIP3   OH2  176   4.093   2.466   1.157
   57TIP3    H1  177   4.026   2.522   1.119
   57TIP3    H2  178   4.105   2.395   1.093
   58TIP3   OH2  179   4.052   5.235   2.938
   58TIP3    H1  180   3.986   5.168   2.916
   58TIP3    H2  181   4.001   5.310   2.969
   59TIP3   OH2  182   5.296   0.619   0.979
   59TIP3    H1  183   5.232   0.645   0.912
   59TIP3    H2  184   5.245   0.616   1.060
   60TIP3   OH2  185   1.224   5.143   5.141
   60TIP3    H1  186   1.279   5.217   5.115
   60TIP3    H2  187   1.142   5.184   5.169
   61TIP3   OH2  188   5.310   3.075   4.767
   61TIP3    H1  189   5.342   3.147   4.822
   61TIP3    H2  190   5.358   2.998   4.799
   62TIP3   OH2  191   3.312   5.730   4.562
   62TIP3    H1  192   3.366   5.761   4.490
   62TIP3    H2  193   3.266   5.808   4.592
   63TIP3   OH2  194   1.476   5.016   3.172
   63TIP3    H1  195   1.455   5.045   3.084
   63TIP3    H2  196   1.401   5.044   3.225
   64TIP3   OH2  197   1.524   1.536   2.861
   64TIP3    H1  198   1.497   1.626   2.876
   64TIP3    H2  199   1.446   1.484   2.878
   65TIP3   OH2  200   6.211   2.761   0.248
   65TIP3    H1  201   6.260   2.838   0.220
   65TIP3    H2  202   6.255   2.733   0.329
   66TIP3   OH2  203   2.592   0.933   0.466
   66TIP3    H1  204   2.556   0.965   0.549
   66TIP3    H2  205   2.517   0.933   0.406
   67TIP3   OH2  206   5.974   1.515   1.405
   67TIP3    H1  207   6.064   1.484   1.416
   67TIP3    H2  208   5.962   1.579   1.475
   68TIP3   OH2  209   2.814   4.975   2.087
   68TIP3    H1  210   2.827   4.912   2.016
   68TIP3    H2  211   2.897   4.975   2.136
   69TIP3   OH2  212   3.900   3.596   5.020
   69TIP3    H1  213   3.869   3.679   5.056
   69TIP3    H2  214   3.820   3.552   4.990
   70TIP3   OH2  215   2.439   2.933   2.987
   70TIP3    H1  216   2.448   3.007   3.048
   70TIP3    H2  217   2.431   2.973   2.901
   71TIP3   OH2  218   5.108   2.382   0.400
   71TIP3    H1  219   5.165   2.368   0.475
   71TIP3    H2  220   5.069   2.468   0.415
   72TIP3   OH2  221   1.924   2.902   4.243
   72TIP3    H1  222   1.833   2.925   4.225
   72TIP3    H2  223   1.960   2.879   4.157
   73TIP3   OH2  224   3.073   3.324   4.018
   73TIP3    H1  225   3.133   3.387   4.058
   73TIP3    H2  226   3.100   3.319   3.927
   74TIP3   OH2  227   3.777   0.223   4.845
   74TIP3    H1  228   3.812   0.136   4.826
   74TIP3    H2  229   3.688   0.221   4.809
   75TIP3   OH2  230   2.722   3.671   3.589
   75TIP3    H1  231   2.664   3.747   3.599
   75TIP3    H2  232   2.807   3.702   3.621
   76TIP3   OH2  233   1.766   2.042   4.930
   76TIP3    H1  234   1.749   2.047   5.024
   76TIP3    H2  235   1.708   2.108   4.892
   77TIP3   OH2  236   0.995   4.105   3.880
   77TIP3    H1  237   0.984   4.193   3.914
   77TIP3    H2  238   0.931   4.097   3.810
   78TIP3   OH2  239   4.562   1.626   2.509
   78TIP3    H1  240   4.472   1.616   2.479
   78TIP3    H2  241   4.592   1.707   2.469
   79TIP3   OH2  242   5.642   4.090   4.309
   79TIP3    H1  243   5.608   4.175   4.284
   79TIP3    H2  244   5.736   4.105   4.324
   80TIP3   OH2  245   1.737   1.339   0.182
   80TIP3    H1  246   1.775   1.331   0.270
   80TIP3    H2  247   1.751   1.430   0.157
   81TIP3   OH2  248   5.307   3.629   0.893
   81TIP3    H1  249   5.319   3.580   0.974
   81TIP3    H2  250   5.285   3.718   0.921
   82TIP3   OH2  251   4.503   0.663   3.502
   82TIP3    H1  252   4.569   0.723   3.467
   82TIP3    H2  253   4.420   0.709   3.491
   83TIP3   OH2  254   1.983   5.778   2.800
   83TIP3    H1  255   1.930   5.858   2.802
   83TIP3    H2  256   2.051   5.797   2.735
   84TIP3   OH2  257   0.034   5.865   2.057
   84TIP3    H1  258   0.044   5.894   1.966
   84TIP3    H2  259  -0.057   5.889   2.079
   85TIP3   OH2  260   2.683   1.050   3.109
   85TIP3    H1  261   2.632   1.043   3.190
   85TIP3    H2  262   2.657   1.134   3.071
   86TIP3   OH2  263   3.507   1.910   5.023
   86TIP3    H1  264   3.447   1.947   4.958
   86TIP3    H2  265   3.485   1.817   5.028
   87TIP3   OH2  266   1.329   1.040   5.205
   87TIP3    H1  267   1.328   0.979   5.131
   87TIP3    H2  268   1.253   1.096   5.191
   88TIP3   OH2  269   1.008   1.842   1.810
   88TIP3    H1  270   0.954   1.903   1.761
   88TIP3    H2  271   1.098   1.869   1.791
   89TIP3   OH2  272   2.950   4.318   3.301
   89TIP3    H1  273   2.996   4.336   3.219
   89TIP3    H2  274   2.959   4.399   3.352
   90TIP3   OH2  275   5.314   5.249   1.406
   90TIP3    H1  276   5.367   5.170   1.401
   90TIP3    H2  277   5.377   5.319   1.420
   91TIP3   OH2  278   0.479   2.705   4.478
   91TIP3    H1  279   0.417   2.648   4.523
   91TIP3    H2  280   0.555   2.649   4.460
   92TIP3   OH2  281   5.166   5.489   1.159
   92TIP3    H1  282   5.211   5.405   1.163
   92TIP3    H2  283   5.113   5.492   1.239
   93TIP3   OH2  284   3.260   4.643   3.701
   93TIP3    H1  285   3.195   4.649   3.631
   93TIP3    H2  286   3.327   4.584   3.666
   94TIP3   OH2  287   6.255   5.631   2.176
   94TIP3    H1  288   6.209   5.689   2.115
   94TIP3    H2  289   6.290   5.690   2.243
   95TIP3   OH2  290   6.065   1.420   4.595
   95TIP3    H1  291   6.059   1.398   4.688
   95TIP3    H2  292   6.113   1.503   4.593
   96TIP3   OH2  293   2.775   3.242   4.970
   96TIP3    H1  294   2.834   3.198   4.909
   96TIP3    H2  295   2.749   3.322   4.925
   97TIP3   OH2  296   0.980   4.734   4.888
   97TIP3    H1  297   1.028   4.684   4.822
   97TIP3    H2  298   0.955   4.669   4.954
   98TIP3   OH2  299   1.691   5.095   1.535
   98TIP3    H1  300   1.602   5.128   1.522
   98TIP3    H2  301   1.679   5.012   1.580
   99TIP3   OH2  302   5.727   1.859   1.418
   99TIP3    H1  303   5.645   1.815   1.395
   99TIP3    H2  304   5.715   1.950   1.390
  100TIP3   OH2  305   4.154   4.969   0.243
  100TIP3    H1  306   4.069   4.935   0.272
  100TIP3    H2  307   4.142   4.985   0.149
  101TIP3   OH2  308   3.187   2.374   2.489
  101TIP3    H1  309   3.219   2.290   2.524
  101TIP3    H2  310   3.152   2.420   2.564
  102TIP3   OH2  311   3.089   3.291   4.415
  102TIP3    H1  312   2.999   3.280   4.385
  102TIP3    H2  313   3.087   3.370   4.469
  103TIP3   OH2  314   6.302   5.823   3.335
  103TIP3    H1  315   6.394   5.832   3.360
  103TIP3    H2  316   6.274   5.911   3.312
  104TIP3   OH2  317   0.181   1.083   1.525
  104TIP3    H1  318   0.256   1.138   1.546
  104TIP3    H2  319   0.153   1.049   1.610
  105TIP3   OH2  320   5.514   5.880   1.628
  105TIP3    H1  321   5.593   5.829   1.650
  105TIP3    H2  322   5.513   5.882   1.533
  106TIP3   OH2  323   1.298   3.790   0.578
  106TIP3    H1  324   1.328   3.770   0.667
  106TIP3    H2  325   1.204   3.771   0.580
  107TIP3   OH2  326   0.614   3.015   0.028
  107TIP3    H1  327   0.553   3.024  -0.045
  107TIP3    H2  328   0.583   3.078   0.093
  108TIP3   OH2  329   4.478   2.606   2.479
  108TIP3    H1  330   4.559   2.632   2.434
  108TIP3    H2  331   4.455   2.682   2.533
  109TIP3   OH2  332   3.186   1.485   2.637
  109TIP3    H1  333   3.173   1.393   2.661
  109TIP3    H2  334   3.103   1.512   2.598
  110TIP3   OH2  335   1.602   2.093   4.049
  110TIP3    H1  336   1.612   2.169   3.992
  110TIP3    H2  337   1.528   2.045   4.013
  111TIP3   OH2  338   0.985   3.261   0.094
  111TIP3    H1  339   0.920   3.313   0.140
  111TIP3    H2  340   1.049   3.324   0.061
  112TIP3   OH2  341   3.108   1.196   4.245
  112TIP3    H1  342   3.195   1.225   4.216
  112TIP3    H2  343   3.090   1.118   4.193
  113TIP3   OH2  344   2.286   3.819   3.575
  113TIP3    H1  345   2.220   3.887   3.567
  113TIP3    H2  346   2.325   3.833   3.662
  114TIP3   OH2  347   1.287   0.612   2.237
  114TIP3    H1  348   1.209   0.570   2.201
  114TIP3    H2  349   1.359   0.556   2.208
  115TIP3   OH2  350   0.051   3.529   2.662
  115TIP3    H1  351   0.085   3.585   2.592
  115TIP3    H2  352   0.070   3.578   2.743
  116TIP3   OH2  353   5.846   5.371   4.375
  116TIP3    H1  354   5.940   5.360   4.360
  116TIP3    H2  355   5.834   5.465   4.388
  117TIP3   OH2  356   1.306   2.385   3.982
  117TIP3    H1  357   1.279   2.356   4.069
  117TIP3    H2  358   1.361   2.461   3.998
  118TIP3   OH2  359   5.322   4.790   1.608
  118TIP3    H1  360   5.260   4.855   1.639
  118TIP3    H2  361   5.302   4.711   1.658
  119TIP3   OH2  362   3.063   3.424   3.034
  119TIP3    H1  363   3.140   3.482   3.026
  119TIP3    H2  364   3.081   3.372   3.112
  120TIP3   OH2  365   3.874   2.585   1.037
  120TIP3    H1  366   3.872   2.621   0.949
  120TIP3    H2  367   3.784   2.556   1.053
  121TIP3   OH2  368   1.417   5.228   0.673
  121TIP3    H1  369   1.394   5.301   0.730
  121TIP3    H2  370   1.413   5.151   0.730
  122TIP3   OH2  371   0.287   0.867   3.923
  122TIP3    H1  372   0.218   0.861   3.858
  122TIP3    H2  373   0.317   0.958   3.919
  123TIP3   OH2  374   4.111   2.140   3.039
  123TIP3    H1  375   4.083   2.071   2.978
  123TIP3    H2  376   4.104   2.221   2.988
  124TIP3   OH2  377   5.274   0.199   3.435
  124TIP3    H1  378   5.229   0.145   3.500
  124TIP3    H2  379   5.221   0.189   3.355
  125TIP3   OH2  380   2.676   5.400   1.718
  125TIP3    H1  381   2.586   5.430   1.735
  125TIP3    H2  382   2.693   5.425   1.627
  126TIP3   OH2  383   1.604   2.691   0.957
  126TIP3    H1  384   1.625   2.629   1.026
  126TIP3    H2  385   1.678   2.685   0.896
  127TIP3   OH2  386   3.480   0.538   2.251
  127TIP3    H1  387   3.540   0.611   2.264
  127TIP3    H2  388   3.476   0.496   2.337
  128TIP3   OH2  389   6.343   0.315   1.256
  128TIP3    H1  390   6.285   0.390   1.252
  128TIP3    H2  391   6.296   0.246   1.209
  129TIP3   OH2  392   4.256   3.900   3.186
  129TIP3    H1  393   4.286   3.895   3.277
  129TIP3    H2  394   4.337   3.903   3.134
  130TIP3   OH2  395   3.430   5.007   1.668
  130TIP3    H1  396   3.345   5.039   1.636
  130TIP3    H2  397   3.409   4.925   1.713
  131TIP3   OH2  398   0.495   5.909   3.734
  131TIP3    H1  399   0.516   5.977   3.670
  131TIP3    H2  400   0.476   5.957   3.815
  132TIP3   OH2  401   6.134   3.099   0.107
  132TIP3    H1  402   6.130   3.011   0.068
  132TIP3    H2  403   6.227   3.122   0.103
  133TIP3   OH2  404   2.979   2.643   0.711
  133TIP3    H1  405   2.936   2.624   0.628
  133TIP3    H2  406   2.992   2.558   0.752
  134TIP3   OH2  407   2.702   2.959   1.668
  134TIP3    H1  408   2.724   3.040   1.622
  134TIP3    H2  409   2.754   2.892   1.624
  135TIP3   OH2  410   1.663   0.062   3.561
  135TIP3    H1  411   1.660   0.020   3.475
  135TIP3    H2  412   1.612   0.142   3.551
  136TIP3   OH2  413   0.942   4.879   0.999
  136TIP3    H1  414   0.860   4.833   1.018
  136TIP3    H2  415   0.918   4.942   0.931
  137TIP3   OH2  416   0.737   5.796   4.443
  137TIP3    H1  417   0.651   5.791   4.400
  137TIP3    H2  418   0.796   5.829   4.375
  138TIP3   OH2  419   3.394   4.095   1.090
  138TIP3    H1  420   3.430   4.183   1.096
  138TIP3    H2  421   3.467   4.038   1.115
  139TIP3   OH2  422   2.634   5.419   4.183
  139TIP3    H1  423   2.632   5.461   4.269
  139TIP3    H2  424   2.689   5.342   4.196
  140TIP3   OH2  425   0.151   3.323   0.637
  140TIP3    H1  426   0.079   3.320   0.699
  140TIP3    H2  427   0.112   3.299   0.553
  141TIP3   OH2  428   5.321   2.560   4.984
  141TIP3    H1  429   5.251   2.502   5.013
  141TIP3    H2  430   5.277   2.640   4.957
  142TIP3   OH2  431   2.400   0.298   4.655
  142TIP3    H1  432   2.447   0.315   4.573
  142TIP3    H2  433   2.308   0.315   4.633
  143TIP3   OH2  434   3.528   4.511   0.495
  143TIP3    H1  435   3.496   4.559   0.419
  143TIP3    H2  436   3.611   4.472   0.466
  144TIP3   OH2  437   0.360   2.174   4.476
  144TIP3    H1  438   0.386   2.178   4.384
  144TIP3    H2  439   0.314   2.256   4.492
  145TIP3   OH2  440   2.962   5.769   2.733
  145TIP3    H1  441   2.887   5.802   2.682
  145TIP3    H2  442   2.944   5.798   2.822
  146TIP3   OH2  443   2.152   1.183   4.073
  146TIP3    H1  444   2.215   1.215   4.008
  146TIP3    H2  445   2.071   1.231   4.053
  147TIP3   OH2  446   2.813   1.675   3.156
  147TIP3    H1  447   2.899   1.633   3.152
  147TIP3    H2  448   2.755   1.618   3.105
  148TIP3   OH2  449   0.547   5.558   4.524
  148TIP3    H1  450   0.515   5.629   4.580
  148TIP3    H2  451   0.637   5.583   4.504
  149TIP3   OH2  452   5.440   4.381   2.351
  149TIP3    H1  453   5.376   4.343   2.411
  149TIP3    H2  454   5.496   4.308   2.325
  150TIP3   OH2  455   1.890   0.190   4.827
  150TIP3    H1  456   1.808   0.238   4.835
  150TIP3    H2  457   1.939   0.237   4.760
  151TIP3   OH2  458   5.317   1.328   3.126
  151TIP3    H1  459   5.229   1.307   3.094
  151TIP3    H2  460   5.306   1.408   3.176
  152TIP3   OH2  461   2.855   4.972  -0.041
  152TIP3    H1  462   2.917   4.915   0.005
  152TIP3    H2  463   2.783   4.984   0.021
  153TIP3   OH2  464   6.154   5.583   2.607
  153TIP3    H1  465   6.087   5.523   2.574
  153TIP3    H2  466   6.156   5.568   2.701
  154TIP3   OH2  467   5.455   3.384   3.979
  154TIP3    H1  468   5.483   3.293   3.990
  154TIP3    H2  469   5.471   3.425   4.064
  155TIP3   OH2  470   4.755   3.198   0.827
  155TIP3    H1  471   4.735   3.152   0.746
  155TIP3    H2  472   4.773   3.288   0.801
  156TIP3   OH2  473   4.630   5.188   2.815
  156TIP3    H1  474   4.671   5.146   2.738
  156TIP3    H2  475   4.611   5.116   2.874
  157TIP3   OH2  476   1.938   1.196   3.257
  157TIP3    H1  477   1.863   1.244   3.293
  157TIP3    H2  478   1.910   1.172   3.169
  158TIP3   OH2  479   5.627   1.796   3.842
  158TIP3    H1  480   5.540   1.831   3.821
  158TIP3    H2  481   5.616   1.701   3.842
  159TIP3   OH2  482   5.706   2.546   0.001
  159TIP3    H1  483   5.670   2.543   0.090
  159TIP3    H2  484   5.714   2.454  -0.025
  160TIP3   OH2  485   0.399   1.593   1.765
  160TIP3    H1  486   0.392   1.506   1.726
  160TIP3    H2  487   0.411   1.578   1.858
  161TIP3   OH2  488   1.282   4.151   3.454
  161TIP3    H1  489   1.343   4.084   3.425
  161TIP3    H2  490   1.238   4.113   3.530
  162TIP3   OH2  491   3.262   3.384   0.665
  162TIP3    H1  492   3.180   3.385   0.616
  162TIP3    H2  493   3.241   3.428   0.747
  163TIP3   OH2  494   4.643   0.227   3.346
  163TIP3    H1  495   4.585   0.279   3.402
  163TIP3    H2  496   4.722   0.279   3.339
  164TIP3   OH2  497   5.726   0.098   2.255
  164TIP3    H1  498   5.740   0.116   2.348
  164TIP3    H2  499   5.665   0.024   2.253
  165TIP3   OH2  500   4.963   4.377   1.257
  165TIP3    H1  501   5.027   4.420   1.201
  165TIP3    H2  502   5.010   4.360   1.339
  166TIP3   OH2  503   3.235   0.387   2.854
  166TIP3    H1  504   3.257   0.299   2.825
  166TIP3    H2  505   3.258   0.389   2.947
  167TIP3   OH2  506   0.049   3.509   2.039
  167TIP3    H1  507  -0.038   3.512   2.077
  167TIP3    H2  508   0.045   3.436   1.976
  168TIP3   OH2  509   1.285   3.334   4.363
  168TIP3    H1  510   1.291   3.393   4.439
  168TIP3    H2  511   1.225   3.379   4.304
  169TIP3   OH2  512   5.901   5.524   5.103
  169TIP3    H1  513   5.918   5.540   5.196
  169TIP3    H2  514   5.828   5.582   5.082
  170TIP3   OH2  515   0.101   1.513   2.038
  170TIP3    H1  516   0.112   1.508   1.943
  170TIP3    H2  517   0.173   1.460   2.073
  171TIP3   OH2  518   2.820   3.887   0.919
  171TIP3    H1  519   2.820   3.907   1.013
  171TIP3    H2  520   2.750   3.823   0.908
  172TIP3   OH2  521   0.621   4.940   1.354
  172TIP3    H1  522   0.593   5.003   1.420
  172TIP3    H2  523   0.703   4.905   1.387
  173TIP3   OH2  524   4.169   0.852   4.155
  173TIP3    H1  525   4.264   0.841   4.164
  173TIP3    H2  526   4.135   0.842   4.243
  174TIP3   OH2  527   0.209   3.870   3.788
  174TIP3    H1  528   0.127   3.913   3.809
  174TIP3    H2  529   0.269   3.894   3.859
  175TIP3   OH2  530   5.578   4.582   2.233
  175TIP3    H1  531   5.648   4.533   2.275
  175TIP3    H2  532   5.498   4.552   2.277
  176TIP3   OH2  533   5.986   4.016   2.075
  176TIP3    H1  534   6.046   4.083   2.041
  176TIP3    H2  535   5.965   4.046   2.164
  177TIP3   OH2  536   5.422   4.282   2.058
  177TIP3    H1  537   5.365   4.309   2.130
  177TIP3    H2  538   5.385   4.325   1.981
  178TIP3   OH2  539   5.521   1.658   2.715
  178TIP3    H1  540   5.558   1.664   2.627
  178TIP3    H2  541   5.481   1.571   2.718
  179TIP3   OH2  542   4.170   1.947   0.162
  179TIP3    H1  543   4.171   1.961   0.068
  179TIP3    H2  544   4.150   1.854   0.173
  180TIP3   OH2  545   1.163   4.771   1.780
  180TIP3    H1  546   1.245   4.748   1.824
  180TIP3    H2  547   1.098   4.771   1.850
  181TIP3   OH2  548   6.233   3.266   0.755
  181TIP3    H1  549   6.138   3.255   0.754
  181TIP3    H2  550   6.264   3.202   0.820
  182TIP3   OH2  551   4.050   0.627   0.482
  182TIP3    H1  552   4.001   0.599   0.405
  182TIP3    H2  553   4.142   0.620   0.457
  183TIP3   OH2  554   0.925   2.640   1.597
  183TIP3    H1  555   0.981   2.563   1.597
  183TIP3    H2  556   0.983   2.712   1.620
  184TIP3   OH2  557   3.894   4.246   1.978
  184TIP3    H1  558   3.892   4.158   2.014
  184TIP3    H2  559   3.809   4.284   2.003
  185TIP3   OH2  560   4.391   1.341   5.049
  185TIP3    H1  561   4.300   1.348   5.020
  185TIP3    H2  562   4.405   1.247   5.062
  186TIP3   OH2  563   5.001   3.815   0.296
  186TIP3    H1  564   5.068   3.816   0.365
  186TIP3    H2  565   5.002   3.905   0.262
  187TIP3   OH2  566   1.641   1.964   2.955
  187TIP3    H1  567   1.603   2.050   2.975
  187TIP3    H2  568   1.697   1.945   3.031
  188TIP3   OH2  569   3.915   4.696   2.121
  188TIP3    H1  570   3.887   4.700   2.213
  188TIP3    H2  571   3.971   4.618   2.116
  189TIP3   OH2  572   3.861   0.556   4.389
  189TIP3    H1  573   3.883   0.496   4.318
  189TIP3    H2  574   3.798   0.617   4.349
  190TIP3   OH2  575   6.295   1.970   1.159
  190TIP3    H1  576   6.235   2.018   1.102
  190TIP3    H2  577   6.254   1.884   1.170
  191TIP3   OH2  578   5.743   0.770   3.951
  191TIP3    H1  579   5.781   0.848   3.992
  191TIP3    H2  580   5.700   0.804   3.873
  192TIP3   OH2  581   4.795   4.931   4.397
  192TIP3    H1  582   4.871   4.973   4.356
  192TIP3    H2  583   4.728   4.932   4.330
  193TIP3   OH2  584   4.228   3.051   0.296
  193TIP3    H1  585   4.287   3.125   0.285
  193TIP3    H2  586   4.211   3.021   0.207
  194TIP3   OH2  587   2.549   0.661   1.308
  194TIP3    H1  588   2.455   0.646   1.295
  194TIP3    H2  589   2.575   0.717   1.234
  195TIP3   OH2  590   4.358   2.466   3.020
  195TIP3    H1  591   4.385   2.459   2.929
  195TIP3    H2  592   4.271   2.428   3.023
  196TIP3   OH2  593   2.692   5.304   1.078
  196TIP3    H1  594   2.698   5.221   1.125
  196TIP3    H2  595   2.605   5.338   1.099
  197TIP3   OH2  596   4.726   1.421   2.591
  197TIP3    H1  597   4.686   1.369   2.521
  197TIP3    H2  598   4.706   1.512   2.568
  198TIP3   OH2  599   2.479   1.611   1.182
  198TIP3    H1  600   2.439   1.569   1.106
  198TIP3    H2  601   2.438   1.697   1.187
  199TIP3   OH2  602   5.357   3.694   3.948
  199TIP3    H1  603   5.330   3.669   4.036
  199TIP3    H2  604   5.362   3.789   3.950
  200TIP3   OH2  605   0.073   2.505   0.700
  200TIP3    H1  606   0.066   2.547   0.613
  200TIP3    H2  607   0.154   2.454   0.695
  201TIP3   OH2  608   5.503   2.945   2.095
  201TIP3    H1  609   5.422   2.991   2.076
  201TIP3    H2  610   5.516   2.887   2.020
  202TIP3   OH2  611   2.122   2.285   0.556
  202TIP3    H1  612   2.106   2.207   0.609
  202TIP3    H2  613   2.216   2.302   0.565
  203TIP3   OH2  614   4.183   5.479   2.247
  203TIP3    H1  615   4.127   5.554   2.230
  203TIP3    H2  616   4.267   5.517   2.273
  204TIP3   OH2  617   2.405   3.135   3.904
  204TIP3    H1  618   2.413   3.088   3.986
  204TIP3    H2  619   2.423   3.069   3.836
  205TIP3   OH2  620   0.739   1.543   2.575
  205TIP3    H1  621   0.772   1.489   2.504
  205TIP3    H2  622   0.736   1.632   2.539
  206TIP3   OH2  623   3.526   5.454   4.499
  206TIP3    H1  624   3.552   5.381   4.555
  206TIP3    H2  625   3.566   5.434   4.414
  207TIP3   OH2  626   2.552   1.965   1.716
  207TIP3    H1  627   2.457   1.966   1.729
  207TIP3    H2  628   2.578   1.875   1.737
  208TIP3   OH2  629   0.757   1.030   1.235
  208TIP3    H1  630   0.731   1.047   1.325
  208TIP3    H2  631   0.674   1.020   1.188
  209TIP3   OH2  632   4.898   0.819   4.187
  209TIP3    H1  633   4.957   0.806   4.261
  209TIP3    H2  634   4.924   0.751   4.124
  210TIP3   OH2  635   4.883   5.865   1.895
  210TIP3    H1  636   4.871   5.781   1.940
  210TIP3    H2  637   4.977   5.871   1.881
  211TIP3   OH2  638   4.305   2.134   0.329
  211TIP3    H1  639   4.277   2.050   0.294
  211TIP3    H2  640   4.363   2.170   0.261
  212TIP3   OH2  641   5.100   2.636   3.775
  212TIP3    H1  642   5.131   2.722   3.746
  212TIP3    H2  643   5.056   2.653   3.858
  213TIP3   OH2  644   1.779   4.852   4.462
  213TIP3    H1  645   1.867   4.814   4.457
  213TIP3    H2  646   1.794   4.946   4.455
  214TIP3   OH2  647   2.217   3.849   4.406
  214TIP3    H1  648   2.223   3.789   4.481
  214TIP3    H2  649   2.167   3.924   4.440
  215TIP3   OH2  650   3.721   5.215   4.853
  215TIP3    H1  651   3.776   5.164   4.912
  215TIP3    H2  652   3.686   5.285   4.907
  216TIP3   OH2  653   3.919   1.057   3.613
  216TIP3    H1  654   3.916   0.967   3.644
  216TIP3    H2  655   3.911   1.110   3.692
  217TIP3   OH2  656   2.553   2.185   3.724
  217TIP3    H1  657   2.627   2.237   3.695
  217TIP3    H2  658   2.489   2.249   3.756
  218TIP3   OH2  659   4.899   0.940   3.803
  218TIP3    H1  660   4.811   0.963   3.835
  218TIP3    H2  661   4.957   0.964   3.875
  219TIP3   OH2  662   5.304   3.502   4.459
  219TIP3    H1  663   5.374   3.511   4.523
  219TIP3    H2  664   5.294   3.407   4.448
  220TIP3   OH2  665   1.586   4.309   1.856
  220TIP3    H1  666   1.566   4.398   1.887
  220TIP3    H2  667   1.525   4.294   1.784
  221TIP3   OH2  668   1.847   3.984   2.141
  221TIP3    H1  669   1.808   3.979   2.053
  221TIP3    H2  670   1.842   4.077   2.163
  222TIP3   OH2  671   4.039   1.675   1.032
  222TIP3    H1  672   4.036   1.579   1.033
  222TIP3    H2  673   3.950   1.702   1.009
  223TIP3   OH2  674   3.429   4.264   2.531
  223TIP3    H1  675   3.515   4.255   2.489
  223TIP3    H2  676   3.446   4.247   2.623
  224TIP3   OH2  677   4.376   1.049   3.294
  224TIP3    H1  678   4.306   1.114   3.289
  224TIP3    H2  679   4.428   1.076   3.370
  225TIP3   OH2  680   5.278   3.237   3.606
  225TIP3    H1  681   5.248   3.158   3.652
  225TIP3    H2  682   5.270   3.307   3.670
  226TIP3   OH2  683   3.483   5.103   2.108
  226TIP3    H1  684   3.495   5.108   2.203
  226TIP3    H2  685   3.571   5.087   2.074
  227TIP3   OH2  686   0.395   1.175   0.846
  227TIP3    H1  687   0.319   1.188   0.903
  227TIP3    H2  688   0.404   1.259   0.801
  228TIP3   OH2  689   1.067   5.653   4.663
  228TIP3    H1  690   1.137   5.693   4.612
  228TIP3    H2  691   1.031   5.724   4.715
  229TIP3   OH2  692   4.324   0.676   4.644
  229TIP3    H1  693   4.297   0.768   4.644
  229TIP3    H2  694   4.277   0.637   4.570
  230TIP3   OH2  695   4.337   4.795   4.364
  230TIP3    H1  696   4.385   4.789   4.282
  230TIP3    H2  697   4.329   4.889   4.380
  231TIP3   OH2  698   6.295   1.161   4.317
  231TIP3    H1  699   6.203   1.144   4.338
  231TIP3    H2  700   6.292   1.207   4.233
  232TIP3   OH2  701   4.697   0.395   3.049
  232TIP3    H1  702   4.662   0.439   3.126
  232TIP3    H2  703   4.750   0.323   3.083
  233TIP3   OH2  704   2.373   0.774   2.709
  233TIP3    H1  705   2.414   0.691   2.732
  233TIP3    H2  706   2.308   0.788   2.778
  234TIP3   OH2  707   5.983   0.893   1.685
  234TIP3    H1  708   6.015   0.865   1.771
  234TIP3    H2  709   6.046   0.858   1.623
  235TIP3   OH2  710   3.039   3.054   1.055
  235TIP3    H1  711   2.977   3.051   1.128
  235TIP3    H2  712   2.985   3.061   0.977
  236TIP3   OH2  713   5.318   3.485   3.733
  236TIP3    H1  714   5.231   3.507   3.767
  236TIP3    H2  715   5.374   3.483   3.810
  237TIP3   OH2  716   3.857   2.119   1.851
  237TIP3    H1  717   3.822   2.145   1.936
  237TIP3    H2  718   3.909   2.040   1.870
  238TIP3   OH2  719   5.456   0.074   0.020
  238TIP3    H1  720   5.488   0.003   0.076
  238TIP3    H2  721   5.361   0.063   0.019
  239TIP3   OH2  722   0.025   5.367   3.043
  239TIP3    H1  723  -0.064   5.389   3.072
  239TIP3    H2  724   0.063   5.451   3.016
  240TIP3   OH2  725   2.875   5.624   4.267
  240TIP3    H1  726   2.956   5.612   4.316
  240TIP3    H2  727   2.830   5.540   4.276
  241TIP3   OH2  728   0.067   2.377   5.143
  241TIP3    H1  729   0.084   2.470   5.156
  241TIP3    H2  730   0.150   2.334   5.165
  242TIP3   OH2  731   0.700   0.968   4.099
  242TIP3    H1  732   0.640   0.960   4.172
  242TIP3    H2  733   0.680   1.053   4.060
  243TIP3   OH2  734   4.664   2.416   0.650
  243TIP3    H1  735   4.701   2.332   0.676
  243TIP3    H2  736   4.701   2.433   0.563
  244TIP3   OH2  737   4.644   5.829   3.655
  244TIP3    H1  738   4.631   5.764   3.724
  244TIP3    H2  739   4.626   5.913   3.698
  245TIP3   OH2  740   5.245   0.536   3.499
  245TIP3    H1  741   5.220   0.480   3.572
  245TIP3    H2  742   5.293   0.478   3.440
  246TIP3   OH2  743  -0.006   5.200   2.758
  246TIP3    H1  744  -0.005   5.251   2.839
  246TIP3    H2  745   0.041   5.119   2.780
  247TIP3   OH2  746   5.337   5.570   2.788
  247TIP3    H1  747   5.388   5.645   2.820
  247TIP3    H2  748   5.251   5.606   2.766
  248TIP3   OH2  749   1.161   3.176   1.571
  248TIP3    H1  750   1.202   3.200   1.487
  248TIP3    H2  751   1.230   3.190   1.636
  249TIP3   OH2  752   0.700   3.875   2.918
  249TIP3    H1  753   0.763   3.929   2.966
  249TIP3    H2  754   0.673   3.929   2.844
  250TIP3   OH2  755   2.712   3.725   1.219
  250TIP3    H1  756   2.803   3.708   1.241
  250TIP3    H2  757   2.663   3.693   1.296
  251TIP3   OH2  758   2.061   3.712   3.820
  251TIP3    H1  759   2.062   3.620   3.792
  251TIP3    H2  760   2.124   3.716   3.892
  252TIP3   OH2  761   2.122   1.929   2.811
  252TIP3    H1  762   2.194   1.937   2.874
  252TIP3    H2  763   2.080   1.846   2.833
  253TIP3   OH2  764   5.680   0.024   4.208
  253TIP3    H1  765   5.720   0.024   4.121
  253TIP3    H2  766   5.752   0.047   4.267
  254TIP3   OH2  767   0.117   2.329   3.268
  254TIP3    H1  768   0.029   2.293   3.263
  254TIP3    H2  769   0.151   2.324   3.178
  255TIP3   OH2  770   2.159   4.721   0.056
  255TIP3    H1  771   2.079   4.722   0.004
  255TIP3    H2  772   2.196   4.633   0.042
  256TIP3   OH2  773   4.072   3.137   4.580
  256TIP3    H1  774   4.013   3.108   4.650
  256TIP3    H2  775   4.022   3.203   4.532
  257TIP3   OH2  776   4.284   0.605   0.338
  257TIP3    H1  777   4.371   0.635   0.364
  257TIP3    H2  778   4.240   0.683   0.306
  258TIP3   OH2  779   4.577   0.169   4.035
  258TIP3    H1  780   4.672   0.155   4.039
  258TIP3    H2  781   4.551   0.130   3.951
  259TIP3   OH2  782   3.403   1.001   0.193
  259TIP3    H1  783   3.414   1.061   0.268
  259TIP3    H2  784   3.366   0.922   0.232
  260TIP3   OH2  785   1.005   3.389   2.670
  260TIP3    H1  786   1.069   3.396   2.599
  260TIP3    H2  787   1.049   3.335   2.736
  261TIP3   OH2  788   3.920   5.014   2.875
  261TIP3    H1  789   3.993   4.989   2.819
  261TIP3    H2  790   3.864   4.936   2.877
  262TIP3   OH2  791   4.733   4.366   2.414
  262TIP3    H1  792   4.655   4.339   2.367
  262TIP3    H2  793   4.736   4.461   2.403
  263TIP3   OH2  794   5.912   1.737   0.382
  263TIP3    H1  795   5.823   1.771   0.383
  263TIP3    H2  796   5.967   1.815   0.373
  264TIP3   OH2  797   3.409   0.580   3.784
  264TIP3    H1  798   3.416   0.503   3.842
  264TIP3    H2  799   3.477   0.639   3.815
  265TIP3   OH2  800   1.470   1.531   4.594
  265TIP3    H1  801   1.534   1.505   4.528
  265TIP3    H2  802   1.429   1.449   4.622
  266TIP3   OH2  803   5.274   3.847   3.707
  266TIP3    H1  804   5.339   3.817   3.771
  266TIP3    H2  805   5.233   3.767   3.673
  267TIP3   OH2  806   0.007   5.916   0.191
  267TIP3    H1  807  -0.027   5.836   0.230
  267TIP3    H2  808  -0.022   5.986   0.250
  268TIP3   OH2  809   1.584   4.786   4.267
  268TIP3    H1  810   1.508   4.731   4.287
  268TIP3    H2  811   1.633   4.789   4.349
  269TIP3   OH2  812   1.098   1.952   2.190
  269TIP3    H1  813   1.054   1.912   2.264
  269TIP3    H2  814   1.182   1.905   2.184
  270TIP3   OH2  815   1.375   5.710   1.922
  270TIP3    H1  816   1.416   5.700   2.008
  270TIP3    H2  817   1.445   5.690   1.859
  271TIP3   OH2  818   0.743   4.927   2.446
  271TIP3    H1  819   0.779   4.989   2.383
  271TIP3    H2  820   0.653   4.913   2.418
  272TIP3   OH2  821   3.283   3.678   4.126
  272TIP3    H1  822   3.198   3.698   4.087
  272TIP3    H2  823   3.279   3.585   4.147
  273TIP3   OH2  824   1.544   2.033   3.248
  273TIP3    H1  825   1.455   2.027   3.212
  273TIP3    H2  826   1.532   2.070   3.336
  274TIP3   OH2  827   0.187   3.660   0.494
  274TIP3    H1  828   0.234   3.579   0.511
  274TIP3    H2  829   0.185   3.667   0.399
  275TIP3   OH2  830   3.225   2.103   2.615
  275TIP3    H1  831   3.134   2.075   2.601
  275TIP3    H2  832   3.238   2.097   2.710
  276TIP3   OH2  833   5.443   5.496   2.557
  276TIP3    H1  834   5.529   5.454   2.561
  276TIP3    H2  835   5.412   5.495   2.648
  277TIP3   OH2  836   1.648   1.271   4.223
  277TIP3    H1  837   1.601   1.213   4.164
  277TIP3    H2  838   1.582   1.306   4.282
  278TIP3   OH2  839   5.124   4.303   3.135
  278TIP3    H1  840   5.090   4.226   3.091
  278TIP3    H2  841   5.079   4.305   3.220
  279TIP3   OH2  842   4.927   0.477   0.629
  279TIP3    H1  843   4.850   0.427   0.655
  279TIP3    H2  844   4.981   0.414   0.581
  280TIP3   OH2  845   1.729   2.916   2.687
  280TIP3    H1  846   1.756   2.979   2.755
  280TIP3    H2  847   1.797   2.849   2.689
  281TIP3   OH2  848   0.912   2.378   2.378
  281TIP3    H1  849   0.997   2.340   2.359
  281TIP3    H2  850   0.891   2.432   2.301
  282TIP3   OH2  851   0.754   0.459   3.942
  282TIP3    H1  852   0.754   0.554   3.954
  282TIP3    H2  853   0.837   0.431   3.979
  283TIP3   OH2  854   1.241   0.852   2.624
  283TIP3    H1  855   1.224   0.760   2.604
  283TIP3    H2  856   1.336   0.857   2.633
  284TIP3   OH2  857   5.795   4.860   4.983
  284TIP3    H1  858   5.815   4.768   4.965
  284TIP3    H2  859   5.825   4.907   4.906
  285TIP3   OH2  860   2.658   3.129   2.563
  285TIP3    H1  861   2.599   3.101   2.493
  285TIP3    H2  862   2.744   3.133   2.520
  286TIP3   OH2  863   0.303   3.579   1.465
  286TIP3    H1  864   0.218   3.536   1.478
  286TIP3    H2  865   0.347   3.525   1.399
  287TIP3   OH2  866   2.022   0.245   2.562
  287TIP3    H1  867   1.937   0.202   2.557
  287TIP3    H2  868   2.006   0.326   2.610
  288TIP3   OH2  869   1.261   5.315   3.256
  288TIP3    H1  870   1.301   5.245   3.307
  288TIP3    H2  871   1.300   5.307   3.169
  289TIP3   OH2  872   2.775   3.042   1.137
  289TIP3    H1  873   2.775   2.947   1.131
  289TIP3    H2  874   2.705   3.062   1.200
  290TIP3   OH2  875   4.070   5.871   2.568
  290TIP3    H1  876   3.997   5.819   2.534
  290TIP3    H2  877   4.059   5.957   2.528
  291TIP3   OH2  878   3.285   3.513   2.155
  291TIP3    H1  879   3.278   3.608   2.139
  291TIP3    H2  880   3.233   3.498   2.233
  292TIP3   OH2  881   5.228   3.873   2.231
  292TIP3    H1  882   5.169   3.919   2.291
  292TIP3    H2  883   5.313   3.915   2.244
  293TIP3   OH2  884   4.947   2.474   2.700
  293TIP3    H1  885   4.883   2.543   2.683
  293TIP3    H2  886   4.896   2.393   2.695
  294TIP3   OH2  887   0.183   2.830   0.506
  294TIP3    H1  888   0.092   2.803   0.490
  294TIP3    H2  889   0.231   2.747   0.513
  295TIP3   OH2  890   4.555   1.301   3.846
  295TIP3    H1  891   4.482   1.350   3.883
  295TIP3    H2  892   4.515   1.244   3.780
  296TIP3   OH2  893   4.944   1.155   0.779
  296TIP3    H1  894   5.021   1.160   0.722
  296TIP3    H2  895   4.869   1.155   0.720
  297TIP3   OH2  896  -0.044   0.321   2.689
  297TIP3    H1  897   0.036   0.291   2.732
  297TIP3    H2  898  -0.014   0.363   2.609
  298TIP3   OH2  899   1.644   0.815   5.085
  298TIP3    H1  900   1.704   0.795   5.156
  298TIP3    H2  901   1.578   0.746   5.090
  299TIP3   OH2  902   3.711   1.792   2.692
  299TIP3    H1  903   3.620   1.789   2.662
  299TIP3    H2  904   3.762   1.800   2.612
  300TIP3   OH2  905   4.968   1.004   2.561
  300TIP3    H1  906   4.996   0.991   2.471
  300TIP3    H2  907   4.952   0.916   2.594
  301TIP3   OH2  908   1.915   0.866   1.757
  301TIP3    H1  909   2.001   0.826   1.774
  301TIP3    H2  910   1.881   0.886   1.844
  302TIP3   OH2  911   0.884   2.560   3.647
  302TIP3    H1  912   0.896   2.536   3.739
  302TIP3    H2  913   0.973   2.576   3.614
  303TIP3   OH2  914   4.988   4.589   3.900
  303TIP3    H1  915   4.977   4.656   3.834
  303TIP3    H2  916   5.041   4.630   3.969
  304TIP3   OH2  917   1.966   3.876   1.073
  304TIP3    H1  918   2.044   3.865   1.019
  304TIP3    H2  919   1.918   3.948   1.031
  305TIP3   OH2  920   5.502   1.123   3.144
  305TIP3    H1  921   5.440   1.195   3.146
  305TIP3    H2  922   5.588   1.164   3.146
  306TIP3   OH2  923   0.899   5.450   4.845
  306TIP3    H1  924   0.895   5.532   4.796
  306TIP3    H2  925   0.982   5.410   4.819
  307TIP3   OH2  926   2.112   5.085   0.881
  307TIP3    H1  927   2.036   5.082   0.939
  307TIP3    H2  928   2.093   5.156   0.819
  308TIP3   OH2  929   0.090   0.735   2.136
  308TIP3    H1  930   0.027   0.770   2.199
  308TIP3    H2  931   0.036   0.697   2.066
  309TIP3   OH2  932   0.836   4.349   5.051
  309TIP3    H1  933   0.798   4.431   5.080
  309TIP3    H2  934   0.863   4.365   4.960
  310TIP3   OH2  935   0.624   3.190   2.959
  310TIP3    H1  936   0.594   3.257   2.899
  310TIP3    H2  937   0.712   3.168   2.929
  311TIP3   OH2  938   1.728   1.776   5.056
  311TIP3    H1  939   1.661   1.753   4.992
  311TIP3    H2  940   1.747   1.868   5.039
  312TIP3   OH2  941   2.814   0.933   3.363
  312TIP3    H1  942   2.844   0.989   3.434
  312TIP3    H2  943   2.741   0.981   3.324
  313TIP3   OH2  944   4.211   4.310   4.901
  313TIP3    H1  945   4.279   4.267   4.850
  313TIP3    H2  946   4.249   4.321   4.988
  314TIP3   OH2  947   1.970   5.431   0.358
  314TIP3    H1  948   1.952   5.419   0.265
  314TIP3    H2  949   1.942   5.521   0.377
  315TIP3   OH2  950   1.829   3.218   3.170
  315TIP3    H1  951   1.921   3.192   3.179
  315TIP3    H2  952   1.785   3.175   3.244
  316TIP3   OH2  953   0.651   5.084   3.861
  316TIP3    H1  954   0.562   5.052   3.878
  316TIP3    H2  955   0.686   5.025   3.794
  317TIP3   OH2  956   2.769   3.896   2.674
  317TIP3    H1  957   2.795   3.823   2.730
  317TIP3    H2  958   2.718   3.856   2.604
  318TIP3   OH2  959   1.042   1.301   1.104
  318TIP3    H1  960   1.067   1.383   1.061
  318TIP3    H2  961   1.077   1.309   1.192
  319TIP3   OH2  962   1.433   1.888   3.948
  319TIP3    H1  963   1.362   1.865   3.888
  319TIP3    H2  964   1.393   1.886   4.035
  320TIP3   OH2  965   2.634   4.592   4.703
  320TIP3    H1  966   2.609   4.544   4.624
  320TIP3    H2  967   2.716   4.550   4.732
  321TIP3   OH2  968   5.093   5.834   4.923
  321TIP3    H1  969   5.159   5.822   4.855
  321TIP3    H2  970   5.122   5.911   4.971
  322TIP3   OH2  971   2.030   5.743   5.012
  322TIP3    H1  972   1.974   5.674   5.047
  322TIP3    H2  973   1.975   5.822   5.015
  323TIP3   OH2  974   1.703   4.391   2.721
  323TIP3    H1  975   1.641   4.319   2.729
  323TIP3    H2  976   1.683   4.448   2.795
  324TIP3   OH2  977   0.934   3.466   3.689
  324TIP3    H1  978   1.026   3.441   3.678
  324TIP3    H2  979   0.885   3.385   3.677
  325TIP3   OH2  980   1.388   2.732   3.964
  325TIP3    H1  981   1.478   2.763   3.954
  325TIP3    H2  982   1.378   2.717   4.058
  326TIP3   OH2  983   0.421   2.522   0.036
  326TIP3    H1  984   0.360   2.533  -0.037
  326TIP3    H2  985   0.425   2.609   0.076
  327TIP3   OH2  986   1.276   0.124   2.858
  327TIP3    H1  987   1.310   0.203   2.816
  327TIP3    H2  988   1.223   0.157   2.931
  328TIP3   OH2  989   2.527   1.679   1.738
  328TIP3    H1  990   2.479   1.616   1.792
  328TIP3    H2  991   2.540   1.634   1.654
  329TIP3   OH2  992   0.993   1.616   2.219
  329TIP3    H1  993   1.001   1.677   2.293
  329TIP3    H2  994   0.936   1.662   2.157
  330TIP3   OH2  995   5.644   1.858   0.387
  330TIP3    H1  996   5.599   1.932   0.345
  330TIP3    H2  997   5.683   1.897   0.466
  331TIP3   OH2  998   2.387   4.071   0.581
  331TIP3    H1  999   2.374   3.999   0.642
  331TIP3    H2 1000   2.473   4.053   0.542
  332TIP3   OH2 1001   2.330   2.255   2.672
  332TIP3    H1 1002   2.290   2.292   2.750
  332TIP3    H2 1003   2.418   2.229   2.700
  333TIP3   OH2 1004   3.623   3.947   4.445
  333TIP3    H1 1005   3.708   3.918   4.410
  333TIP3    H2 1006   3.645   3.991   4.527
  334TIP3   OH2 1007   5.740   1.322   3.572
  334TIP3    H1 1008   5.700   1.370   3.499
  334TIP3    H2 1009   5.666   1.299   3.629
  335TIP3   OH2 1010   1.862   1.260   1.622
  335TIP3    H1 1011   1.835   1.316   1.695
  335TIP3    H2 1012   1.953   1.238   1.641
  336TIP3   OH2 1013   3.436   5.739   1.824
  336TIP3    H1 1014   3.424   5.803   1.754
  336TIP3    H2 1015   3.375   5.669   1.803
  337TIP3   OH2 1016   1.353   1.781   4.648
  337TIP3    H1 1017   1.393   1.696   4.630
  337TIP3    H2 1018   1.262   1.772   4.619
  338TIP3   OH2 1019   2.459   5.137   4.676
  338TIP3    H1 1020   2.445   5.162   4.767
  338TIP3    H2 1021   2.515   5.060   4.680
  339TIP3   OH2 1022   6.228   3.879   4.401
  339TIP3    H1 1023   6.256   3.802   4.450
  339TIP3    H2 1024   6.138   3.894   4.430
  340TIP3   OH2 1025   5.358   3.443   1.387
  340TIP3    H1 1026   5.446   3.421   1.419
  340TIP3    H2 1027   5.327   3.510   1.448
  341TIP3   OH2 1028   1.096   1.120   4.717
  341TIP3    H1 1029   1.020   1.170   4.744
  341TIP3    H2 1030   1.113   1.147   4.627
  342TIP3   OH2 1031   1.535   5.944   4.249
  342TIP3    H1 1032   1.629   5.960   4.261
  342TIP3    H2 1033   1.529   5.849   4.239
  343TIP3   OH2 1034   5.325   1.715   0.136
  343TIP3    H1 1035   5.334   1.674   0.050
  343TIP3    H2 1036   5.272   1.653   0.187
  344TIP3   OH2 1037   1.652   4.733   4.716
  344TIP3    H1 1038   1.562   4.734   4.682
  344TIP3    H2 1039   1.706   4.761   4.643
  345TIP3   OH2 1040   6.020   1.523   0.500
  345TIP3    H1 1041   5.958   1.497   0.568
  345TIP3    H2 1042   5.974   1.589   0.449
  346TIP3   OH2 1043   5.448   1.969   0.164
  346TIP3    H1 1044   5.415   1.881   0.146
  346TIP3    H2 1045   5.419   2.021   0.089
  347TIP3   OH2 1046   4.248   0.148   4.210
  347TIP3    H1 1047   4.210   0.211   4.271
  347TIP3    H2 1048   4.182   0.141   4.140
  348TIP3   OH2 1049   4.300   2.944   1.768
  348TIP3    H1 1050   4.207   2.957   1.786
  348TIP3    H2 1051   4.315   2.990   1.686
  349TIP3   OH2 1052   5.457   3.689   2.812
  349TIP3    H1 1053   5.487   3.777   2.791
  349TIP3    H2 1054   5.536   3.642   2.839
  350TIP3   OH2 1055   5.132   1.134   1.529
  350TIP3    H1 1056   5.109   1.168   1.615
  350TIP3    H2 1057   5.174   1.208   1.484
  351TIP3   OH2 1058   0.207   2.857   3.936
  351TIP3    H1 1059   0.157   2.858   4.017
  351TIP3    H2 1060   0.151   2.810   3.874
  352TIP3   OH2 1061   6.016   5.139   3.068
  352TIP3    H1 1062   5.985   5.099   2.987
  352TIP3    H2 1063   6.110   5.123   3.069
  353TIP3   OH2 1064   0.063   4.111   3.316
  353TIP3    H1 1065   0.132   4.098   3.380
  353TIP3    H2 1066   0.097   4.178   3.256
  354TIP3   OH2 1067   3.861   3.474   0.817
  354TIP3    H1 1068   3.808   3.426   0.754
  354TIP3    H2 1069   3.939   3.500   0.768
  355TIP3   OH2 1070   2.091   3.002   1.313
  355TIP3    H1 1071   2.163   3.048   1.272
  355TIP3    H2 1072   2.031   2.981   1.241
  356TIP3   OH2 1073   0.455   4.207   3.248
  356TIP3    H1 1074   0.429   4.122   3.211
  356TIP3    H2 1075   0.381   4.265   3.229
  357TIP3   OH2 1076   0.184   4.288   4.003
  357TIP3    H1 1077   0.121   4.323   3.940
  357TIP3    H2 1078   0.156   4.324   4.088
  358TIP3   OH2 1079   2.007   3.393   1.864
  358TIP3    H1 1080   2.101   3.394   1.843
  358TIP3    H2 1081   1.968   3.338   1.796
  359TIP3   OH2 1082   1.142   1.485   1.317
  359TIP3    H1 1083   1.231   1.467   1.286
  359TIP3    H2 1084   1.153   1.511   1.408
  360TIP3   OH2 1085   3.141   4.046   2.660
  360TIP3    H1 1086   3.091   4.029   2.580
  360TIP3    H2 1087   3.109   4.131   2.690
  361TIP3   OH2 1088   4.504   2.500   0.242
  361TIP3    H1 1089   4.507   2.595   0.255
  361TIP3    H2 1090   4.567   2.465   0.305
  362TIP3   OH2 1091   0.721   4.868   3.695
  362TIP3    H1 1092   0.797   4.824   3.657
  362TIP3    H2 1093   0.647   4.812   3.674
  363TIP3   OH2 1094   0.619   0.845   1.765
  363TIP3    H1 1095   0.608   0.940   1.774
  363TIP3    H2 1096   0.602   0.827   1.673
  364TIP3   OH2 1097   0.575   1.459   0.839
  364TIP3    H1 1098   0.640   1.417   0.782
  364TIP3    H2 1099   0.535   1.526   0.783
  365TIP3   OH2 1100   1.309   3.021   2.071
  365TIP3    H1 1101   1.295   2.960   2.143
  365TIP3    H2 1102   1.377   2.980   2.018
  366TIP3   OH2 1103   1.258   0.629   3.808
  366TIP3    H1 1104   1.201   0.573   3.756
  366TIP3    H2 1105   1.233   0.718   3.783
  367TIP3   OH2 1106   4.872   0.984   3.306
  367TIP3    H1 1107   4.811   1.015   3.239
  367TIP3    H2 1108   4.951   1.038   3.293
  368TIP3   OH2 1109   3.158   2.007   4.265
  368TIP3    H1 1110   3.213   2.082   4.242
  368TIP3    H2 1111   3.187   1.937   4.207
  369TIP3   OH2 1112   5.226   3.210   3.125
  369TIP3    H1 1113   5.246   3.279   3.188
  369TIP3    H2 1114   5.220   3.256   3.041
  370TIP3   OH2 1115   3.713   1.057   0.377
  370TIP3    H1 1116   3.782   0.991   0.376
  370TIP3    H2 1117   3.632   1.006   0.373
  371TIP3   OH2 1118   5.358   1.029   2.577
  371TIP3    H1 1119   5.309   1.070   2.648
  371TIP3    H2 1120   5.449   1.054   2.593
  372TIP3   OH2 1121   3.797   2.189   1.189
  372TIP3    H1 1122   3.761   2.239   1.115
  372TIP3    H2 1123   3.822   2.256   1.253
  373TIP3   OH2 1124   1.949   2.164   2.897
  373TIP3    H1 1125   2.011   2.091   2.890
  373TIP3    H2 1126   2.004   2.242   2.889
  374TIP3   OH2 1127   4.423   1.094   1.654
  374TIP3    H1 1128   4.438   1.132   1.741
  374TIP3    H2 1129   4.474   1.013   1.653
  375TIP3   OH2 1130   2.326   4.877   4.490
  375TIP3    H1 1131   2.333   4.900   4.583
  375TIP3    H2 1132   2.407   4.911   4.451
  376TIP3   OH2 1133   1.594   0.310   4.854
  376TIP3    H1 1134   1.627   0.362   4.927
  376TIP3    H2 1135   1.566   0.375   4.789
  377TIP3   OH2 1136   4.851   3.093   4.114
  377TIP3    H1 1137   4.861   3.130   4.027
  377TIP3    H2 1138   4.797   3.157   4.161
  378TIP3   OH2 1139   0.896   2.538   0.970
  378TIP3    H1 1140   0.947   2.463   1.000
  378TIP3    H2 1141   0.831   2.501   0.910
  379TIP3   OH2 1142   5.031   1.875   5.084
  379TIP3    H1 1143   5.008   1.783   5.100
  379TIP3    H2 1144   4.984   1.897   5.004
  380TIP3   OH2 1145   3.307   3.413   5.152
  380TIP3    H1 1146   3.214   3.401   5.167
  380TIP3    H2 1147   3.318   3.397   5.058
  381TIP3   OH2 1148   0.434   4.709   3.759
  381TIP3    H1 1149   0.411   4.665   3.677
  381TIP3    H2 1150   0.483   4.643   3.808
  382TIP3   OH2 1151   0.448   2.721   1.156
  382TIP3    H1 1152   0.458   2.642   1.104
  382TIP3    H2 1153   0.395   2.779   1.102
  383TIP3   OH2 1154   5.032   4.274   1.512
  383TIP3    H1 1155   5.103   4.250   1.572
  383TIP3    H2 1156   4.952   4.263   1.563
  384TIP3   OH2 1157   0.442   3.254   1.014
  384TIP3    H1 1158   0.468   3.268   1.105
  384TIP3    H2 1159   0.492   3.177   0.986
  385TIP3   OH2 1160   0.312   1.383   2.586
  385TIP3    H1 1161   0.400   1.406   2.617
  385TIP3    H2 1162   0.314   1.288   2.577
  386TIP3   OH2 1163   2.225   3.967   4.095
  386TIP3    H1 1164   2.138   3.991   4.066
  386TIP3    H2 1165   2.259   4.046   4.137
  387TIP3   OH2 1166   1.562   2.361   2.748
  387TIP3    H1 1167   1.513   2.442   2.735
  387TIP3    H2 1168   1.553   2.313   2.665
  388TIP3   OH2 1169   1.204   1.868   3.786
  388TIP3    H1 1170   1.164   1.942   3.832
  388TIP3    H2 1171   1.199   1.893   3.694
  389TIP3   OH2 1172   4.419   0.869   3.940
  389TIP3    H1 1173   4.325   0.849   3.936
  389TIP3    H2 1174   4.462   0.788   3.914
  390TIP3   OH2 1175   3.411   3.044   4.115
  390TIP3    H1 1176   3.470   2.968   4.114
  390TIP3    H2 1177   3.339   3.017   4.172
  391TIP3   OH2 1178   0.155   2.155   0.485
  391TIP3    H1 1179   0.208   2.223   0.445
  391TIP3    H2 1180   0.218   2.095   0.524
  392TIP3   OH2 1181   2.257   0.462   2.422
  392TIP3    H1 1182   2.325   0.415   2.470
  392TIP3    H2 1183   2.230   0.402   2.352
  393TIP3   OH2 1184   2.922   1.313   3.265
  393TIP3    H1 1185   2.920   1.345   3.175
  393TIP3    H2 1186   2.972   1.380   3.313
  394TIP3   OH2 1187   3.396   0.996   4.383
  394TIP3    H1 1188   3.383   0.995   4.478
  394TIP3    H2 1189   3.421   1.086   4.363
  395TIP3   OH2 1190   6.193   4.606   2.761
  395TIP3    H1 1191   6.127   4.546   2.795
  395TIP3    H2 1192   6.166   4.623   2.671
  396TIP3   OH2 1193   3.434   3.228   1.500
  396TIP3    H1 1194   3.513   3.175   1.489
  396TIP3    H2 1195   3.463   3.304   1.551
  397TIP3   OH2 1196   0.021   2.186   0.733
  397TIP3    H1 1197  -0.069   2.153   0.729
  397TIP3    H2 1198   0.053   2.178   0.644
  398TIP3   OH2 1199   3.164   3.312   4.873
  398TIP3    H1 1200   3.105   3.347   4.938
  398TIP3    H2 1201   3.147   3.363   4.794
  399TIP3   OH2 1202   3.915   5.038   4.367
  399TIP3    H1 1203   3.957   5.088   4.297
  399TIP3    H2 1204   3.922   5.094   4.445
  400TIP3   OH2 1205   5.191   2.386   2.674
  400TIP3    H1 1206   5.228   2.354   2.755
  400TIP3    H2 1207   5.101   2.409   2.696
  401TIP3   OH2 1208   5.685   4.088   1.457
  401TIP3    H1 1209   5.708   4.028   1.528
  401TIP3    H2 1210   5.729   4.170   1.481
  402TIP3   OH2 1211   5.566   4.271   1.665
  402TIP3    H1 1212   5.500   4.219   1.620
  402TIP3    H2 1213   5.599   4.331   1.598
  403TIP3   OH2 1214   5.742   3.206   2.133
  403TIP3    H1 1215   5.675   3.258   2.087
  403TIP3    H2 1216   5.757   3.130   2.077
  404TIP3   OH2 1217   5.895   2.734   2.065
  404TIP3    H1 1218   5.881   2.749   1.971
  404TIP3    H2 1219   5.809   2.748   2.104
  405TIP3   OH2 1220   4.030   3.784   0.725
  405TIP3    H1 1221   3.951   3.826   0.758
  405TIP3    H2 1222   4.099   3.814   0.783
  406TIP3   OH2 1223   5.849   0.252   3.863
  406TIP3    H1 1224   5.778   0.300   3.906
  406TIP3    H2 1225   5.915   0.320   3.844
  407TIP3   OH2 1226   1.199   1.998   1.705
  407TIP3    H1 1227   1.198   2.085   1.665
  407TIP3    H2 1228   1.282   1.960   1.677
  408TIP3   OH2 1229   1.080   2.857   1.682
  408TIP3    H1 1230   1.099   2.846   1.775
  408TIP3    H2 1231   1.064   2.951   1.672
  409TIP3   OH2 1232   1.409   0.436   4.151
  409TIP3    H1 1233   1.402   0.374   4.224
  409TIP3    H2 1234   1.423   0.381   4.074
  410TIP3   OH2 1235   3.562   1.090   4.632
  410TIP3    H1 1236   3.467   1.088   4.622
  410TIP3    H2 1237   3.580   1.030   4.704
  411TIP3   OH2 1238   6.146   3.595   3.773
  411TIP3    H1 1239   6.124   3.640   3.855
  411TIP3    H2 1240   6.074   3.534   3.759
  412TIP3   OH2 1241   5.670   3.362   3.793
  412TIP3    H1 1242   5.589   3.349   3.842
  412TIP3    H2 1243   5.739   3.344   3.856
  413TIP3   OH2 1244   4.736   5.462   4.329
  413TIP3    H1 1245   4.677   5.505   4.390
  413TIP3    H2 1246   4.714   5.369   4.336
  414TIP3   OH2 1247   2.140   5.556   1.140
  414TIP3    H1 1248   2.199   5.610   1.087
  414TIP3    H2 1249   2.119   5.611   1.215
  415TIP3   OH2 1250   4.778   4.559   2.798
  415TIP3    H1 1251   4.804   4.618   2.728
  415TIP3    H2 1252   4.854   4.555   2.856
  416TIP3   OH2 1253   5.391   5.511   2.220
  416TIP3    H1 1254   5.359   5.421   2.214
  416TIP3    H2 1255   5.312   5.563   2.240
  417TIP3   OH2 1256   4.225   0.004   0.661
  417TIP3    H1 1257   4.295  -0.052   0.626
  417TIP3    H2 1258   4.248   0.092   0.631
  418TIP3   OH2 1259   4.423   2.236   1.962
  418TIP3    H1 1260   4.442   2.218   1.869
  418TIP3    H2 1261   4.328   2.247   1.965
  419TIP3   OH2 1262   4.071   2.847   3.458
  419TIP3    H1 1263   4.165   2.864   3.461
  419TIP3    H2 1264   4.032   2.916   3.512
  420TIP3   OH2 1265   0.250   1.775   4.133
  420TIP3    H1 1266   0.298   1.850   4.167
  420TIP3    H2 1267   0.159   1.804   4.126
  421TIP3   OH2 1268   2.094   2.407   2.584
  421TIP3    H1 1269   2.111   2.322   2.544
  421TIP3    H2 1270   2.054   2.387   2.669
  422TIP3   OH2 1271   2.422   4.751   4.767
  422TIP3    H1 1272   2.457   4.816   4.827
  422TIP3    H2 1273   2.499   4.711   4.727
  423TIP3   OH2 1274   1.555   0.232   0.653
  423TIP3    H1 1275   1.532   0.155   0.601
  423TIP3    H2 1276   1.649   0.243   0.639
  424TIP3   OH2 1277   2.494   1.208   2.060
  424TIP3    H1 1278   2.553   1.153   2.008
  424TIP3    H2 1279   2.507   1.179   2.150
  425TIP3   OH2 1280   5.488   0.685   1.886
  425TIP3    H1 1281   5.543   0.704   1.963
  425TIP3    H2 1282   5.398   0.689   1.920
  426TIP3   OH2 1283   0.322   5.218   1.338
  426TIP3    H1 1284   0.317   5.129   1.304
  426TIP3    H2 1285   0.416   5.236   1.344
  427TIP3   OH2 1286   0.883   5.396   3.205
  427TIP3    H1 1287   0.928   5.314   3.224
  427TIP3    H2 1288   0.811   5.399   3.268
  428TIP3   OH2 1289   2.694   0.780   1.094
  428TIP3    H1 1290   2.723   0.867   1.120
  428TIP3    H2 1291   2.684   0.786   0.999
  429TIP3   OH2 1292   4.820   5.845   5.123
  429TIP3    H1 1293   4.847   5.901   5.049
  429TIP3    H2 1294   4.899   5.836   5.176
  430TIP3   OH2 1295   4.839   5.533   2.371
  430TIP3    H1 1296   4.833   5.618   2.326
  430TIP3    H2 1297   4.804   5.549   2.458
  431TIP3   OH2 1298   0.746   3.524   4.891
  431TIP3    H1 1299   0.699   3.607   4.879
  431TIP3    H2 1300   0.676   3.460   4.906
  432TIP3   OH2 1301   6.299  -0.019   1.261
  432TIP3    H1 1302   6.376  -0.022   1.318
  432TIP3    H2 1303   6.246   0.052   1.298
  433TIP3   OH2 1304   5.930   1.643   2.646
  433TIP3    H1 1305   5.916   1.654   2.740
  433TIP3    H2 1306   5.858   1.690   2.604
  434TIP3   OH2 1307   5.143   4.658   0.582
  434TIP3    H1 1308   5.159   4.686   0.672
  434TIP3    H2 1309   5.048   4.668   0.570
  435TIP3   OH2 1310   3.272   0.105   2.708
  435TIP3    H1 1311   3.240   0.127   2.621
  435TIP3    H2 1312   3.193   0.101   2.762
  436TIP3   OH2 1313   3.886   1.589   1.899
  436TIP3    H1 1314   3.915   1.532   1.828
  436TIP3    H2 1315   3.804   1.627   1.868
  437TIP3   OH2 1316   5.766   3.217   4.809
  437TIP3    H1 1317   5.732   3.136   4.772
  437TIP3    H2 1318   5.773   3.200   4.903
  438TIP3   OH2 1319   3.952   4.869   4.646
  438TIP3    H1 1320   3.961   4.841   4.555
  438TIP3    H2 1321   3.966   4.964   4.643
  439TIP3   OH2 1322   0.976   4.399   0.572
  439TIP3    H1 1323   1.002   4.453   0.647
  439TIP3    H2 1324   1.033   4.428   0.501
  440TIP3   OH2 1325   0.771   1.807   4.865
  440TIP3    H1 1326   0.682   1.817   4.897
  440TIP3    H2 1327   0.826   1.821   4.942
  441TIP3   OH2 1328   6.173   1.014   3.306
  441TIP3    H1 1329   6.189   1.033   3.214
  441TIP3    H2 1330   6.096   1.066   3.328
  442TIP3   OH2 1331   2.121   0.520   0.943
  442TIP3    H1 1332   2.090   0.432   0.965
  442TIP3    H2 1333   2.164   0.510   0.858
  443TIP3   OH2 1334   3.130   5.715   4.823
  443TIP3    H1 1335   3.156   5.634   4.778
  443TIP3    H2 1336   3.170   5.785   4.771
  444TIP3   OH2 1337   3.552   1.180   4.051
  444TIP3    H1 1338   3.467   1.137   4.037
  444TIP3    H2 1339   3.544   1.220   4.137
  445TIP3   OH2 1340   5.600   2.385   4.659
  445TIP3    H1 1341   5.680   2.344   4.692
  445TIP3    H2 1342   5.562   2.320   4.599
  446TIP3   OH2 1343   3.912   3.001   2.414
  446TIP3    H1 1344   3.822   3.021   2.442
  446TIP3    H2 1345   3.965   3.019   2.492
  447TIP3   OH2 1346   1.411   5.673   3.762
  447TIP3    H1 1347   1.366   5.667   3.677
  447TIP3    H2 1348   1.492   5.721   3.742
  448TIP3   OH2 1349   2.079   3.495   2.846
  448TIP3    H1 1350   2.162   3.503   2.798
  448TIP3    H2 1351   2.075   3.573   2.900
  449TIP3   OH2 1352   1.763   5.045   2.390
  449TIP3    H1 1353   1.774   5.076   2.479
  449TIP3    H2 1354   1.697   5.103   2.352
  450TIP3   OH2 1355   1.466   5.668   3.034
  450TIP3    H1 1356   1.451   5.725   2.958
  450TIP3    H2 1357   1.400   5.695   3.097
  451TIP3   OH2 1358   4.783   0.368   0.307
  451TIP3    H1 1359   4.804   0.324   0.225
  451TIP3    H2 1360   4.791   0.299   0.373
  452TIP3   OH2 1361   2.578   1.824   4.040
  452TIP3    H1 1362   2.496   1.836   4.088
  452TIP3    H2 1363   2.557   1.758   3.974
  453TIP3   OH2 1364   1.121   4.602   0.726
  453TIP3    H1 1365   1.143   4.678   0.672
  453TIP3    H2 1366   1.195   4.543   0.716
  454TIP3   OH2 1367   2.467   3.767   3.285
  454TIP3    H1 1368   2.391   3.811   3.324
  454TIP3    H2 1369   2.542   3.818   3.317
  455TIP3   OH2 1370   4.660   1.296   3.298
  455TIP3    H1 1371   4.635   1.276   3.207
  455TIP3    H2 1372   4.597   1.248   3.351
  456TIP3   OH2 1373   3.657   1.620   4.675
  456TIP3    H1 1374   3.722   1.669   4.726
  456TIP3    H2 1375   3.659   1.532   4.712
  457TIP3   OH2 1376   0.270   1.803   1.635
  457TIP3    H1 1377   0.333   1.754   1.687
  457TIP3    H2 1378   0.243   1.742   1.566
  458TIP3   OH2 1379   0.299   3.309   2.672
  458TIP3    H1 1380   0.267   3.347   2.590
  458TIP3    H2 1381   0.296   3.215   2.657
  459TIP3   OH2 1382   3.209   3.918   3.385
  459TIP3    H1 1383   3.258   3.872   3.453
  459TIP3    H2 1384   3.180   3.999   3.427
  460TIP3   OH2 1385   4.894   3.686   3.285
  460TIP3    H1 1386   4.853   3.608   3.247
  460TIP3    H2 1387   4.942   3.654   3.361
  461TIP3   OH2 1388   0.864   2.868   0.124
  461TIP3    H1 1389   0.775   2.883   0.092
  461TIP3    H2 1390   0.852   2.817   0.204
  462TIP3   OH2 1391   0.494   3.945   2.084
  462TIP3    H1 1392   0.577   3.992   2.076
  462TIP3    H2 1393   0.517   3.861   2.124
  463TIP3   OH2 1394   2.142   5.094   4.375
  463TIP3    H1 1395   2.157   5.067   4.465
  463TIP3    H2 1396   2.211   5.158   4.356
  464TIP3   OH2 1397   5.202   4.665   3.471
  464TIP3    H1 1398   5.110   4.658   3.444
  464TIP3    H2 1399   5.223   4.578   3.505
  465TIP3   OH2 1400   5.463   2.248   3.620
  465TIP3    H1 1401   5.387   2.273   3.674
  465TIP3    H2 1402   5.523   2.206   3.681
  466TIP3   OH2 1403   4.818   4.090   2.304
  466TIP3    H1 1404   4.751   4.021   2.306
  466TIP3    H2 1405   4.773   4.168   2.339
  467TIP3   OH2 1406   4.406   4.288   4.215
  467TIP3    H1 1407   4.450   4.266   4.297
  467TIP3    H2 1408   4.351   4.363   4.237
  468TIP3   OH2 1409   1.257   4.943   4.361
  468TIP3    H1 1410   1.201   4.911   4.432
  468TIP3    H2 1411   1.343   4.952   4.402
  469TIP3   OH2 1412   1.130   0.778   2.001
  469TIP3    H1 1413   1.122   0.702   2.057
  469TIP3    H2 1414   1.057   0.835   2.026
  470TIP3   OH2 1415   2.736   2.410   0.540
  470TIP3    H1 1416   2.676   2.454   0.599
  470TIP3    H2 1417   2.763   2.477   0.478
  471TIP3   OH2 1418   3.556   5.064   4.705
  471TIP3    H1 1419   3.610   5.014   4.643
  471TIP3    H2 1420   3.615   5.130   4.740
  472TIP3   OH2 1421   3.561   3.274   4.063
  472TIP3    H1 1422   3.638   3.245   4.015
  472TIP3    H2 1423   3.516   3.193   4.086
  473TIP3   OH2 1424   5.856   0.960   1.052
  473TIP3    H1 1425   5.947   0.939   1.032
  473TIP3    H2 1426   5.826   0.887   1.106
  474TIP3   OH2 1427   3.079   4.413   4.897
  474TIP3    H1 1428   3.116   4.492   4.857
  474TIP3    H2 1429   3.145   4.345   4.883
  475TIP3   OH2 1430   2.676   0.338   2.724
  475TIP3    H1 1431   2.762   0.363   2.693
  475TIP3    H2 1432   2.692   0.290   2.805
  476TIP3   OH2 1433   3.669   1.643   3.154
  476TIP3    H1 1434   3.760   1.644   3.124
  476TIP3    H2 1435   3.621   1.691   3.086
  477TIP3   OH2 1436   6.290   5.856   2.367
  477TIP3    H1 1437   6.340   5.937   2.374
  477TIP3    H2 1438   6.214   5.880   2.313
  478TIP3   OH2 1439   1.823   5.466   1.340
  478TIP3    H1 1440   1.787   5.512   1.264
  478TIP3    H2 1441   1.795   5.375   1.328
  479TIP3   OH2 1442   3.957   2.938   4.781
  479TIP3    H1 1443   3.911   2.932   4.698
  479TIP3    H2 1444   3.956   2.848   4.815
  480TIP3   OH2 1445   3.156   2.560   3.057
  480TIP3    H1 1446   3.133   2.617   2.983
  480TIP3    H2 1447   3.160   2.472   3.020
  481TIP3   OH2 1448   2.031   3.283   5.044
  481TIP3    H1 1449   2.126   3.285   5.049
  481TIP3    H2 1450   2.006   3.372   5.019
  482TIP3   OH2 1451   1.075   0.177   2.170
  482TIP3    H1 1452   1.112   0.191   2.082
  482TIP3    H2 1453   1.140   0.123   2.215
  483TIP3   OH2 1454   3.509   3.693   2.364
  483TIP3    H1 1455   3.556   3.773   2.342
  483TIP3    H2 1456   3.423   3.705   2.324
  484TIP3   OH2 1457   4.749   2.316   1.705
  484TIP3    H1 1458   4.795   2.236   1.732
  484TIP3    H2 1459   4.759   2.319   1.610
  485TIP3   OH2 1460   3.393   2.872   3.588
  485TIP3    H1 1461   3.319   2.916   3.630
  485TIP3    H2 1462   3.380   2.779   3.608
  486TIP3   OH2 1463   0.217   5.323   0.790
  486TIP3    H1 1464   0.276   5.275   0.848
  486TIP3    H2 1465   0.270   5.396   0.757
  487TIP3   OH2 1466  -0.035   2.994   3.170
  487TIP3    H1 1467  -0.009   2.944   3.246
  487TIP3    H2 1468  -0.002   3.083   3.186
  488TIP3   OH2 1469   4.630   0.535   2.069
  488TIP3    H1 1470   4.586   0.451   2.066
  488TIP3    H2 1471   4.714   0.520   2.028
  489TIP3   OH2 1472   2.504   2.628   2.104
  489TIP3    H1 1473   2.559   2.623   2.026
  489TIP3    H2 1474   2.420   2.591   2.077
  490TIP3   OH2 1475   4.517   4.864   2.507
  490TIP3    H1 1476   4.467   4.838   2.429
  490TIP3    H2 1477   4.521   4.959   2.502
  491TIP3   OH2 1478   0.182   5.533   4.746
  491TIP3    H1 1479   0.222   5.543   4.833
  491TIP3    H2 1480   0.088   5.545   4.761
  492TIP3   OH2 1481   3.941   1.282   4.620
  492TIP3    H1 1482   3.998   1.343   4.573
  492TIP3    H2 1483   3.909   1.222   4.552
  493TIP3   OH2 1484   2.599   3.047   0.860
  493TIP3    H1 1485   2.593   3.020   0.951
  493TIP3    H2 1486   2.681   3.008   0.829
  494TIP3   OH2 1487   0.736   0.652   5.028
  494TIP3    H1 1488   0.654   0.686   4.991
  494TIP3    H2 1489   0.736   0.682   5.119
  495TIP3   OH2 1490   0.548   1.107   1.817
  495TIP3    H1 1491   0.491   1.172   1.777
  495TIP3    H2 1492   0.522   1.105   1.909
  496TIP3   OH2 1493   1.281   2.463   0.124
  496TIP3    H1 1494   1.208   2.486   0.183
  496TIP3    H2 1495   1.240   2.454   0.038
  497TIP3   OH2 1496   5.584   5.163   3.169
  497TIP3    H1 1497   5.653   5.192   3.229
  497TIP3    H2 1498   5.586   5.068   3.174
  498TIP3   OH2 1499   0.730   2.353   4.055
  498TIP3    H1 1500   0.646   2.358   4.100
  498TIP3    H2 1501   0.768   2.271   4.086
  499TIP3   OH2 1502   1.692   5.236   1.312
  499TIP3    H1 1503   1.719   5.167   1.373
  499TIP3    H2 1504   1.612   5.271   1.350
  500TIP3   OH2 1505   0.897   0.660   4.342
  500TIP3    H1 1506   0.917   0.671   4.249
  500TIP3    H2 1507   0.945   0.730   4.386
  501TIP3   OH2 1508   6.189   3.815   3.411
  501TIP3    H1 1509   6.270   3.768   3.432
  501TIP3    H2 1510   6.177   3.876   3.484
  502TIP3   OH2 1511   0.446   0.107   1.554
  502TIP3    H1 1512   0.447   0.022   1.511
  502TIP3    H2 1513   0.539   0.133   1.557
  503TIP3   OH2 1514   1.007   5.205   3.588
  503TIP3    H1 1515   0.960   5.275   3.632
  503TIP3    H2 1516   0.979   5.210   3.496
  504TIP3   OH2 1517   4.289   3.592   1.160
  504TIP3    H1 1518   4.203   3.619   1.127
  504TIP3    H2 1519   4.273   3.570   1.252
  505TIP3   OH2 1520   2.752   0.513   3.398
  505TIP3    H1 1521   2.741   0.593   3.347
  505TIP3    H2 1522   2.838   0.522   3.438
  506TIP3   OH2 1523   0.945   4.170   4.434
  506TIP3    H1 1524   0.969   4.122   4.354
  506TIP3    H2 1525   0.860   4.135   4.458
  507TIP3   OH2 1526   5.586   0.464   3.957
  507TIP3    H1 1527   5.551   0.375   3.954
  507TIP3    H2 1528   5.606   0.479   4.049
  508TIP3   OH2 1529   6.149   2.056   5.042
  508TIP3    H1 1530   6.209   2.078   4.971
  508TIP3    H2 1531   6.196   2.081   5.122
  509TIP3   OH2 1532   1.789   5.357   1.651
  509TIP3    H1 1533   1.756   5.319   1.569
  509TIP3    H2 1534   1.717   5.413   1.681
  510TIP3   OH2 1535   5.058   0.289   1.229
  510TIP3    H1 1536   5.073   0.262   1.139
  510TIP3    H2 1537   4.985   0.351   1.223
  511TIP3   OH2 1538   4.041   3.656   1.066
  511TIP3    H1 1539   3.999   3.626   0.985
  511TIP3    H2 1540   3.967   3.675   1.125
  512TIP3   OH2 1541   5.262   1.483   5.153
  512TIP3    H1 1542   5.206   1.428   5.208
  512TIP3    H2 1543   5.313   1.422   5.100
  513TIP3   OH2 1544   3.161   1.280   4.636
  513TIP3    H1 1545   3.170   1.364   4.681
  513TIP3    H2 1546   3.120   1.301   4.552
  514TIP3   OH2 1547   1.057   1.457   0.253
  514TIP3    H1 1548   1.067   1.485   0.162
  514TIP3    H2 1549   1.129   1.500   0.299
  515TIP3   OH2 1550   1.460   3.706   0.095
  515TIP3    H1 1551   1.434   3.678   0.182
  515TIP3    H2 1552   1.434   3.798   0.090
  516TIP3   OH2 1553   6.095   5.669   1.949
  516TIP3    H1 1554   6.023   5.675   1.886
  516TIP3    H2 1555   6.128   5.580   1.940
  517TIP3   OH2 1556   4.986   2.186   4.383
  517TIP3    H1 1557   4.929   2.129   4.436
  517TIP3    H2 1558   4.965   2.163   4.293
  518TIP3   OH2 1559   3.734   2.266   0.376
  518TIP3    H1 1560   3.797   2.314   0.430
  518TIP3    H2 1561   3.698   2.199   0.435
  519TIP3   OH2 1562   2.192   3.899   4.839
  519TIP3    H1 1563   2.149   3.814   4.835
  519TIP3    H2 1564   2.277   3.885   4.797
  520TIP3   OH2 1565   0.634   0.320   5.133
  520TIP3    H1 1566   0.602   0.287   5.048
  520TIP3    H2 1567   0.586   0.268   5.198
  521TIP3   OH2 1568   6.057   2.966   0.431
  521TIP3    H1 1569   6.005   3.029   0.382
  521TIP3    H2 1570   6.123   3.019   0.476
  522TIP3   OH2 1571   0.782   1.792   0.923
  522TIP3    H1 1572   0.776   1.701   0.952
  522TIP3    H2 1573   0.865   1.797   0.876
  523TIP3   OH2 1574   2.645   1.146   2.484
  523TIP3    H1 1575   2.699   1.216   2.447
  523TIP3    H2 1576   2.666   1.147   2.578
  524TIP3   OH2 1577   1.664   0.595   4.399
  524TIP3    H1 1578   1.715   0.563   4.324
  524TIP3    H2 1579   1.710   0.674   4.426
  525TIP3   OH2 1580   1.055   1.555   1.785
  525TIP3    H1 1581   1.028   1.647   1.786
  525TIP3    H2 1582   0.985   1.510   1.737
  526TIP3   OH2 1583   4.417   3.014   0.511
  526TIP3    H1 1584   4.383   3.061   0.587
  526TIP3    H2 1585   4.344   3.014   0.449
  527TIP3   OH2 1586   1.366   1.118   1.022
  527TIP3    H1 1587   1.418   1.173   1.080
  527TIP3    H2 1588   1.384   1.151   0.934
  528TIP3   OH2 1589   0.047   2.237   1.351
  528TIP3    H1 1590   0.131   2.281   1.363
  528TIP3    H2 1591  -0.012   2.307   1.320
  529TIP3   OH2 1592   4.385   1.858   4.425
  529TIP3    H1 1593   4.477   1.832   4.428
  529TIP3    H2 1594   4.369   1.901   4.509
  530TIP3   OH2 1595   5.806   3.394   2.448
  530TIP3    H1 1596   5.839   3.409   2.359
  530TIP3    H2 1597   5.719   3.434   2.448
  531TIP3   OH2 1598   6.051   5.346   0.901
  531TIP3    H1 1599   5.977   5.313   0.850
  531TIP3    H2 1600   6.011   5.381   0.981
  532TIP3   OH2 1601   0.648   5.774   0.092
  532TIP3    H1 1602   0.610   5.841   0.148
  532TIP3    H2 1603   0.636   5.808   0.003
  533TIP3   OH2 1604   4.972   1.610   4.731
  533TIP3    H1 1605   4.959   1.560   4.650
  533TIP3    H2 1606   4.993   1.543   4.796
  534TIP3   OH2 1607   5.507   2.781   1.187
  534TIP3    H1 1608   5.509   2.686   1.202
  534TIP3    H2 1609   5.418   2.807   1.209
  535TIP3   OH2 1610   0.543   4.367   0.974
  535TIP3    H1 1611   0.561   4.281   1.011
  535TIP3    H2 1612   0.549   4.354   0.879
  536TIP3   OH2 1613   3.161   5.629   2.613
  536TIP3    H1 1614   3.253   5.647   2.630
  536TIP3    H2 1615   3.113   5.690   2.669
  537TIP3   OH2 1616   5.367   5.588   0.975
  537TIP3    H1 1617   5.299   5.565   1.038
  537TIP3    H2 1618   5.379   5.509   0.923
  538TIP3   OH2 1619   1.864   1.861   3.130
  538TIP3    H1 1620   1.890   1.832   3.218
  538TIP3    H2 1621   1.939   1.911   3.099
  539TIP3   OH2 1622   5.331   1.588   2.204
  539TIP3    H1 1623   5.256   1.543   2.244
  539TIP3    H2 1624   5.306   1.600   2.113
  540TIP3   OH2 1625   6.243   3.239   2.083
  540TIP3    H1 1626   6.149   3.259   2.082
  540TIP3    H2 1627   6.251   3.169   2.148
  541TIP3   OH2 1628   4.268   2.357   0.911
  541TIP3    H1 1629   4.193   2.301   0.934
  541TIP3    H2 1630   4.262   2.368   0.816
  542TIP3   OH2 1631   6.325   3.962   1.191
  542TIP3    H1 1632   6.391   3.893   1.190
  542TIP3    H2 1633   6.242   3.916   1.174
  543TIP3   OH2 1634   4.046   3.962   1.964
  543TIP3    H1 1635   4.059   3.910   1.884
  543TIP3    H2 1636   4.012   3.899   2.028
  544TIP3   OH2 1637   6.214   3.389   1.024
  544TIP3    H1 1638   6.179   3.313   1.070
  544TIP3    H2 1639   6.141   3.423   0.973
  545TIP3   OH2 1640   4.146   2.471   1.928
  545TIP3    H1 1641   4.122   2.379   1.928
  545TIP3    H2 1642   4.147   2.495   1.835
  546TIP3   OH2 1643   0.532   0.843   0.056
  546TIP3    H1 1644   0.535   0.933   0.089
  546TIP3    H2 1645   0.499   0.851  -0.033
  547TIP3   OH2 1646   5.456   1.772   4.402
  547TIP3    H1 1647   5.363   1.758   4.419
  547TIP3    H2 1648   5.464   1.765   4.307
  548TIP3   OH2 1649   1.228   2.363   0.560
  548TIP3    H1 1650   1.173   2.382   0.483
  548TIP3    H2 1651   1.307   2.414   0.545
  549TIP3   OH2 1652   0.346   0.097   0.347
  549TIP3    H1 1653   0.345   0.010   0.386
  549TIP3    H2 1654   0.409   0.091   0.276
  550TIP3   OH2 1655   4.230   2.754   0.384
  550TIP3    H1 1656   4.178   2.831   0.360
  550TIP3    H2 1657   4.213   2.691   0.314
  551TIP3   OH2 1658   1.266   5.392   3.906
  551TIP3    H1 1659   1.222   5.456   3.850
  551TIP3    H2 1660   1.195   5.344   3.948
  552TIP3   OH2 1661   1.386   1.797   1.601
  552TIP3    H1 1662   1.321   1.729   1.581
  552TIP3    H2 1663   1.459   1.749   1.641
  553TIP3   OH2 1664   2.841   3.526   3.886
  553TIP3    H1 1665   2.809   3.440   3.858
  553TIP3    H2 1666   2.762   3.575   3.909
  554TIP3   OH2 1667   1.046   1.490   2.620
  554TIP3    H1 1668   1.047   1.415   2.561
  554TIP3    H2 1669   0.972   1.474   2.678
  555TIP3   OH2 1670   5.672   3.228   2.720
  555TIP3    H1 1671   5.665   3.237   2.815
  555TIP3    H2 1672   5.638   3.310   2.686
  556TIP3   OH2 1673   2.009   5.338   0.790
  556TIP3    H1 1674   1.987   5.405   0.726
  556TIP3    H2 1675   1.930   5.329   0.843
  557TIP3   OH2 1676   5.630   3.629   4.317
  557TIP3    H1 1677   5.725   3.644   4.314
  557TIP3    H2 1678   5.592   3.713   4.289
  558TIP3   OH2 1679   5.364   1.275   0.885
  558TIP3    H1 1680   5.293   1.221   0.851
  558TIP3    H2 1681   5.392   1.231   0.965
  559TIP3   OH2 1682   0.477   4.724   2.421
  559TIP3    H1 1683   0.483   4.775   2.341
  559TIP3    H2 1684   0.432   4.643   2.395
  560TIP3   OH2 1685   3.761   1.975   4.676
  560TIP3    H1 1686   3.727   1.997   4.589
  560TIP3    H2 1687   3.825   2.043   4.694
  561TIP3   OH2 1688   3.852   5.093   3.885
  561TIP3    H1 1689   3.779   5.135   3.840
  561TIP3    H2 1690   3.913   5.067   3.815
  562TIP3   OH2 1691   1.910   5.112   4.920
  562TIP3    H1 1692   1.959   5.111   5.002
  562TIP3    H2 1693   1.946   5.039   4.869
  563TIP3   OH2 1694   2.657   4.262   3.908
  563TIP3    H1 1695   2.688   4.350   3.932
  563TIP3    H2 1696   2.564   4.274   3.888
  564TIP3   OH2 1697   3.422   5.408   3.160
  564TIP3    H1 1698   3.494   5.454   3.204
  564TIP3    H2 1699   3.457   5.385   3.074
  565TIP3   OH2 1700   3.589   2.904   1.816
  565TIP3    H1 1701   3.545   2.935   1.895
  565TIP3    H2 1702   3.526   2.919   1.746
  566TIP3   OH2 1703   0.493   3.591   0.556
  566TIP3    H1 1704   0.455   3.588   0.644
  566TIP3    H2 1705   0.487   3.683   0.530
  567TIP3   OH2 1706   1.571   0.645   1.105
  567TIP3    H1 1707   1.543   0.722   1.154
  567TIP3    H2 1708   1.606   0.585   1.171
  568TIP3   OH2 1709   6.290   1.865   0.859
  568TIP3    H1 1710   6.217   1.887   0.802
  568TIP3    H2 1711   6.251   1.813   0.929
  569TIP3   OH2 1712   0.279   5.458   2.542
  569TIP3    H1 1713   0.213   5.523   2.564
  569TIP3    H2 1714   0.334   5.501   2.477
  570TIP3   OH2 1715   5.585   1.684   1.927
  570TIP3    H1 1716   5.589   1.604   1.875
  570TIP3    H2 1717   5.642   1.667   2.002
  571TIP3   OH2 1718   0.835   3.432   0.339
  571TIP3    H1 1719   0.800   3.469   0.258
  571TIP3    H2 1720   0.790   3.480   0.409
  572TIP3   OH2 1721   5.779   5.268   1.491
  572TIP3    H1 1722   5.848   5.294   1.552
  572TIP3    H2 1723   5.723   5.345   1.484
  573TIP3   OH2 1724   1.153   4.430   2.681
  573TIP3    H1 1725   1.141   4.346   2.724
  573TIP3    H2 1726   1.071   4.477   2.697
  574TIP3   OH2 1727   4.550   2.590   4.490
  574TIP3    H1 1728   4.512   2.677   4.481
  574TIP3    H2 1729   4.632   2.603   4.538
  575TIP3   OH2 1730   2.847   0.027   0.843
  575TIP3    H1 1731   2.821  -0.053   0.888
  575TIP3    H2 1732   2.801   0.097   0.888
  576TIP3   OH2 1733   6.354   4.799   0.757
  576TIP3    H1 1734   6.324   4.713   0.728
  576TIP3    H2 1735   6.278   4.856   0.746
  577TIP3   OH2 1736   1.084   2.107   1.151
  577TIP3    H1 1737   1.008   2.053   1.131
  577TIP3    H2 1738   1.111   2.078   1.238
  578TIP3   OH2 1739   0.379   3.429   4.693
  578TIP3    H1 1740   0.427   3.495   4.744
  578TIP3    H2 1741   0.288   3.458   4.697
  579TIP3   OH2 1742   2.407   0.266   0.735
  579TIP3    H1 1743   2.339   0.270   0.668
  579TIP3    H2 1744   2.420   0.357   0.761
  580TIP3   OH2 1745   4.015   2.516   3.625
  580TIP3    H1 1746   4.084   2.582   3.636
  580TIP3    H2 1747   3.933   2.565   3.637
  581TIP3   OH2 1748   1.649   3.447   1.515
  581TIP3    H1 1749   1.712   3.486   1.454
  581TIP3    H2 1750   1.703   3.400   1.579
  582TIP3   OH2 1751   2.726   1.215   1.506
  582TIP3    H1 1752   2.717   1.195   1.413
  582TIP3    H2 1753   2.727   1.311   1.510
  583TIP3   OH2 1754   5.189   1.845   2.863
  583TIP3    H1 1755   5.216   1.779   2.927
  583TIP3    H2 1756   5.263   1.906   2.858
  584TIP3   OH2 1757   0.801   3.591   0.793
  584TIP3    H1 1758   0.758   3.505   0.799
  584TIP3    H2 1759   0.878   3.583   0.848
  585TIP3   OH2 1760   0.727   5.118   3.064
  585TIP3    H1 1761   0.643   5.151   3.097
  585TIP3    H2 1762   0.704   5.050   3.002
  586TIP3   OH2 1763   6.126   0.467   3.087
  586TIP3    H1 1764   6.220   0.453   3.077
  586TIP3    H2 1765   6.087   0.382   3.070
  587TIP3   OH2 1766   1.206   3.279   4.848
  587TIP3    H1 1767   1.180   3.257   4.758
  587TIP3    H2 1768   1.123   3.285   4.896
  588TIP3   OH2 1769   4.592   5.210   4.319
  588TIP3    H1 1770   4.537   5.134   4.339
  588TIP3    H2 1771   4.563   5.238   4.232
  589TIP3   OH2 1772   5.350   1.541   3.290
  589TIP3    H1 1773   5.283   1.606   3.308
  589TIP3    H2 1774   5.432   1.580   3.321
  590TIP3   OH2 1775   2.783   0.396   0.602
  590TIP3    H1 1776   2.779   0.305   0.571
  590TIP3    H2 1777   2.846   0.438   0.544
  591TIP3   OH2 1778   2.942   0.285   3.969
  591TIP3    H1 1779   3.021   0.253   3.926
  591TIP3    H2 1780   2.907   0.209   4.014
  592TIP3   OH2 1781   0.762   4.613   5.142
  592TIP3    H1 1782   0.736   4.657   5.062
  592TIP3    H2 1783   0.685   4.617   5.199
  593TIP3   OH2 1784   4.368   4.050   0.322
  593TIP3    H1 1785   4.288   4.082   0.364
  593TIP3    H2 1786   4.426   4.027   0.394
  594TIP3   OH2 1787   3.285   4.996   0.952
  594TIP3    H1 1788   3.226   5.027   1.020
  594TIP3    H2 1789   3.368   5.042   0.969
  595TIP3   OH2 1790   5.505   0.190   3.939
  595TIP3    H1 1791   5.494   0.110   3.888
  595TIP3    H2 1792   5.470   0.168   4.025
  596TIP3   OH2 1793   0.262   5.322   1.598
  596TIP3    H1 1794   0.190   5.286   1.649
  596TIP3    H2 1795   0.255   5.279   1.513
  597TIP3   OH2 1796   1.835   4.201   3.871
  597TIP3    H1 1797   1.844   4.249   3.954
  597TIP3    H2 1798   1.880   4.255   3.806
  598TIP3   OH2 1799   4.669   3.884   3.581
  598TIP3    H1 1800   4.681   3.972   3.545
  598TIP3    H2 1801   4.644   3.831   3.506
  599TIP3   OH2 1802   2.875   5.811   3.719
  599TIP3    H1 1803   2.941   5.788   3.785
  599TIP3    H2 1804   2.793   5.813   3.767
  600TIP3   OH2 1805   4.207   4.410   1.411
  600TIP3    H1 1806   4.155   4.333   1.433
  600TIP3    H2 1807   4.295   4.390   1.442
  601TIP3   OH2 1808   5.661   2.730   2.190
  601TIP3    H1 1809   5.665   2.752   2.283
  601TIP3    H2 1810   5.616   2.804   2.149
  602TIP3   OH2 1811   0.819   1.985   1.174
  602TIP3    H1 1812   0.748   2.003   1.235
  602TIP3    H2 1813   0.783   1.924   1.110
  603TIP3   OH2 1814   2.569   2.079   3.450
  603TIP3    H1 1815   2.602   1.990   3.441
  603TIP3    H2 1816   2.548   2.088   3.543
  604TIP3   OH2 1817   6.053   4.195   2.979
  604TIP3    H1 1818   6.080   4.255   3.049
  604TIP3    H2 1819   5.959   4.186   2.991
  605TIP3   OH2 1820  -0.034   3.668   4.637
  605TIP3    H1 1821  -0.019   3.610   4.562
  605TIP3    H2 1822   0.043   3.656   4.692
  606TIP3   OH2 1823   0.946   4.857   2.232
  606TIP3    H1 1824   0.909   4.944   2.246
  606TIP3    H2 1825   0.871   4.803   2.207
  607TIP3   OH2 1826   3.363   0.594   3.514
  607TIP3    H1 1827   3.377   0.609   3.607
  607TIP3    H2 1828   3.435   0.537   3.488
  608TIP3   OH2 1829   3.587   3.492   2.194
  608TIP3    H1 1830   3.571   3.554   2.265
  608TIP3    H2 1831   3.500   3.456   2.174
  609TIP3   OH2 1832   5.336   0.465   4.362
  609TIP3    H1 1833   5.381   0.534   4.313
  609TIP3    H2 1834   5.373   0.383   4.328
  610TIP3   OH2 1835   0.610   4.967   3.413
  610TIP3    H1 1836   0.611   4.977   3.318
  610TIP3    H2 1837   0.528   4.922   3.431
  611TIP3   OH2 1838   6.310   4.759   3.652
  611TIP3    H1 1839   6.304   4.665   3.669
  611TIP3    H2 1840   6.267   4.770   3.566
  612TIP3   OH2 1841   3.264   4.781   0.420
  612TIP3    H1 1842   3.253   4.851   0.355
  612TIP3    H2 1843   3.274   4.827   0.503
  613TIP3   OH2 1844   4.963   1.971   2.749
  613TIP3    H1 1845   4.973   2.014   2.664
  613TIP3    H2 1846   5.028   1.901   2.748
  614TIP3   OH2 1847   0.317   3.153   4.254
  614TIP3    H1 1848   0.317   3.058   4.242
  614TIP3    H2 1849   0.324   3.166   4.348
  615TIP3   OH2 1850   5.201   4.361   2.636
  615TIP3    H1 1851   5.109   4.341   2.622
  615TIP3    H2 1852   5.209   4.454   2.619
  616TIP3   OH2 1853   4.274   4.296   2.316
  616TIP3    H1 1854   4.244   4.362   2.378
  616TIP3    H2 1855   4.344   4.339   2.267
  617TIP3   OH2 1856   3.462   1.449   4.168
  617TIP3    H1 1857   3.528   1.468   4.102
  617TIP3    H2 1858   3.379   1.448   4.119
  618TIP3   OH2 1859   0.015   3.948   3.990
  618TIP3    H1 1860  -0.013   3.859   4.010
  618TIP3    H2 1861   0.040   3.985   4.075
  619TIP3   OH2 1862   5.239   5.660   4.253
  619TIP3    H1 1863   5.145   5.645   4.249
  619TIP3    H2 1864   5.277   5.572   4.256
  620TIP3   OH2 1865   4.974   1.856   3.057
  620TIP3    H1 1866   4.993   1.766   3.030
  620TIP3    H2 1867   5.057   1.888   3.093
  621TIP3   OH2 1868   0.828   4.421   0.304
  621TIP3    H1 1869   0.805   4.336   0.342
  621TIP3    H2 1870   0.754   4.441   0.247
  622TIP3   OH2 1871   0.241   4.599   3.057
  622TIP3    H1 1872   0.267   4.653   2.983
  622TIP3    H2 1873   0.161   4.555   3.029
  623TIP3   OH2 1874   3.890   0.274   1.272
  623TIP3    H1 1875   3.859   0.216   1.342
  623TIP3    H2 1876   3.936   0.217   1.211
  624TIP3   OH2 1877   5.453   5.892   0.483
  624TIP3    H1 1878   5.498   5.942   0.415
  624TIP3    H2 1879   5.369   5.936   0.493
  625TIP3   OH2 1880   2.544   2.693   3.167
  625TIP3    H1 1881   2.554   2.779   3.126
  625TIP3    H2 1882   2.632   2.655   3.165
  626TIP3   OH2 1883   0.316   1.764   3.345
  626TIP3    H1 1884   0.343   1.756   3.253
  626TIP3    H2 1885   0.355   1.846   3.374
  627TIP3   OH2 1886   6.258   2.469   3.507
  627TIP3    H1 1887   6.301   2.388   3.534
  627TIP3    H2 1888   6.181   2.440   3.458
  628TIP3   OH2 1889   6.206   4.545   0.975
  628TIP3    H1 1890   6.229   4.472   1.032
  628TIP3    H2 1891   6.241   4.622   1.019
  629TIP3   OH2 1892   1.670   3.834   1.619
  629TIP3    H1 1893   1.643   3.803   1.706
  629TIP3    H2 1894   1.716   3.760   1.581
  630TIP3   OH2 1895   4.012   1.167   4.860
  630TIP3    H1 1896   4.001   1.200   4.771
  630TIP3    H2 1897   3.996   1.073   4.853
  631TIP3   OH2 1898   5.615   0.494   3.666
  631TIP3    H1 1899   5.600   0.404   3.638
  631TIP3    H2 1900   5.598   0.494   3.760
  632TIP3   OH2 1901   5.698   1.141   2.103
  632TIP3    H1 1902   5.675   1.167   2.014
  632TIP3    H2 1903   5.614   1.122   2.145
  633TIP3   OH2 1904   4.306   3.179   0.701
  633TIP3    H1 1905   4.359   3.159   0.778
  633TIP3    H2 1906   4.228   3.220   0.736
  634TIP3   OH2 1907   2.302   1.854   1.231
  634TIP3    H1 1908   2.361   1.921   1.264
  634TIP3    H2 1909   2.285   1.797   1.306
  635TIP3   OH2 1910   3.195   4.190   0.485
  635TIP3    H1 1911   3.264   4.165   0.424
  635TIP3    H2 1912   3.221   4.277   0.516
  636TIP3   OH2 1913   2.291   4.653   4.135
  636TIP3    H1 1914   2.290   4.639   4.040
  636TIP3    H2 1915   2.257   4.742   4.146
  637TIP3   OH2 1916   1.073   4.402   3.634
  637TIP3    H1 1917   1.027   4.333   3.587
  637TIP3    H2 1918   1.138   4.356   3.688
  638TIP3   OH2 1919   3.900   2.377   1.373
  638TIP3    H1 1920   3.971   2.405   1.316
  638TIP3    H2 1921   3.943   2.348   1.453
  639TIP3   OH2 1922   3.512   5.494   1.952
  639TIP3    H1 1923   3.481   5.412   1.914
  639TIP3    H2 1924   3.447   5.559   1.927
  640TIP3   OH2 1925   1.046   2.062   0.133
  640TIP3    H1 1926   0.955   2.090   0.139
  640TIP3    H2 1927   1.054   1.992   0.198
  641TIP3   OH2 1928   4.548   4.891   3.541
  641TIP3    H1 1929   4.593   4.840   3.608
  641TIP3    H2 1930   4.509   4.825   3.483
  642TIP3   OH2 1931   5.893   5.114   1.831
  642TIP3    H1 1932   5.806   5.081   1.855
  642TIP3    H2 1933   5.938   5.126   1.915
  643TIP3   OH2 1934   0.784   2.909   1.769
  643TIP3    H1 1935   0.847   2.838   1.757
  643TIP3    H2 1936   0.838   2.987   1.780
  644TIP3   OH2 1937   1.286   5.047   0.401
  644TIP3    H1 1938   1.331   4.985   0.344
  644TIP3    H2 1939   1.347   5.066   0.471
  645TIP3   OH2 1940   4.437   2.725   1.393
  645TIP3    H1 1941   4.371   2.722   1.324
  645TIP3    H2 1942   4.399   2.782   1.459
  646TIP3   OH2 1943   1.353   0.291   4.393
  646TIP3    H1 1944   1.379   0.381   4.412
  646TIP3    H2 1945   1.353   0.247   4.478
  647TIP3   OH2 1946   3.518   1.393   2.661
  647TIP3    H1 1947   3.597   1.418   2.708
  647TIP3    H2 1948   3.481   1.476   2.630
  648TIP3   OH2 1949   1.023   5.734   0.921
  648TIP3    H1 1950   0.936   5.754   0.956
  648TIP3    H2 1951   1.007   5.701   0.832
  649TIP3   OH2 1952   0.985   3.113   1.795
  649TIP3    H1 1953   1.004   3.169   1.720
  649TIP3    H2 1954   0.996   3.170   1.872
  650TIP3   OH2 1955   5.660   2.585   0.481
  650TIP3    H1 1956   5.693   2.522   0.418
  650TIP3    H2 1957   5.567   2.563   0.491
  651TIP3   OH2 1958   1.252   4.925   2.886
  651TIP3    H1 1959   1.267   4.832   2.901
  651TIP3    H2 1960   1.196   4.953   2.958
  652TIP3   OH2 1961   5.652   1.038   2.525
  652TIP3    H1 1962   5.648   1.113   2.585
  652TIP3    H2 1963   5.746   1.024   2.512
  653TIP3   OH2 1964   2.132   2.557   4.029
  653TIP3    H1 1965   2.219   2.595   4.037
  653TIP3    H2 1966   2.119   2.545   3.934
  654TIP3   OH2 1967   4.351   0.656   3.178
  654TIP3    H1 1968   4.332   0.707   3.258
  654TIP3    H2 1969   4.385   0.721   3.116
  655TIP3   OH2 1970   5.702   0.904   4.620
  655TIP3    H1 1971   5.737   0.991   4.601
  655TIP3    H2 1972   5.714   0.892   4.714
  656TIP3   OH2 1973   4.951   3.071   1.602
  656TIP3    H1 1974   5.013   3.063   1.674
  656TIP3    H2 1975   4.985   3.143   1.549
  657TIP3   OH2 1976   3.725   2.220   2.099
  657TIP3    H1 1977   3.637   2.244   2.128
  657TIP3    H2 1978   3.783   2.272   2.154
  658TIP3   OH2 1979   2.989   4.982   0.358
  658TIP3    H1 1980   2.920   5.035   0.318
  658TIP3    H2 1981   3.000   5.019   0.446
  659TIP3   OH2 1982   5.008   1.640   1.466
  659TIP3    H1 1983   4.919   1.629   1.501
  659TIP3    H2 1984   4.999   1.623   1.372
  660TIP3   OH2 1985   4.621   3.525   1.769
  660TIP3    H1 1986   4.573   3.447   1.744
  660TIP3    H2 1987   4.659   3.558   1.688
  661TIP3   OH2 1988   3.530   4.638   0.726
  661TIP3    H1 1989   3.503   4.592   0.805
  661TIP3    H2 1990   3.536   4.570   0.659
  662TIP3   OH2 1991   3.951   0.721   3.992
  662TIP3    H1 1992   3.981   0.636   3.959
  662TIP3    H2 1993   4.004   0.737   4.069
  663TIP3   OH2 1994   2.524   3.422   2.515
  663TIP3    H1 1995   2.568   3.337   2.507
  663TIP3    H2 1996   2.592   3.487   2.496
  664TIP3   OH2 1997   3.088   1.945   1.238
  664TIP3    H1 1998   3.170   1.953   1.190
  664TIP3    H2 1999   3.082   2.025   1.290
  665TIP3   OH2 2000   5.773   0.371   0.684
  665TIP3    H1 2001   5.734   0.427   0.751
  665TIP3    H2 2002   5.704   0.308   0.663
  666TIP3   OH2 2003   5.235   2.379   2.254
  666TIP3    H1 2004   5.288   2.436   2.309
  666TIP3    H2 2005   5.253   2.291   2.286
  667TIP3   OH2 2006   1.443   0.069   1.870
  667TIP3    H1 2007   1.376   0.024   1.819
  667TIP3    H2 2008   1.395   0.131   1.925
  668TIP3   OH2 2009   6.026   2.993   4.845
  668TIP3    H1 2010   6.118   2.997   4.819
  668TIP3    H2 2011   6.017   3.060   4.913
  669TIP3   OH2 2012   6.028   1.315   1.143
  669TIP3    H1 2013   6.021   1.297   1.049
  669TIP3    H2 2014   5.947   1.280   1.180
  670TIP3   OH2 2015   2.035   4.617   1.307
  670TIP3    H1 2016   2.048   4.570   1.390
  670TIP3    H2 2017   2.038   4.709   1.331
  671TIP3   OH2 2018   4.283   4.913   0.641
  671TIP3    H1 2019   4.208   4.867   0.678
  671TIP3    H2 2020   4.326   4.849   0.585
  672TIP3   OH2 2021   3.765   3.247   0.335
  672TIP3    H1 2022   3.817   3.221   0.259
  672TIP3    H2 2023   3.738   3.165   0.375
  673TIP3   OH2 2024   2.750   3.471   4.850
  673TIP3    H1 2025   2.808   3.542   4.824
  673TIP3    H2 2026   2.695   3.455   4.774
  674TIP3   OH2 2027   1.915   1.307   0.500
  674TIP3    H1 2028   1.996   1.261   0.478
  674TIP3    H2 2029   1.848   1.238   0.500
  675TIP3   OH2 2030   3.972   2.400   0.542
  675TIP3    H1 2031   4.038   2.343   0.582
  675TIP3    H2 2032   3.905   2.410   0.609
  676TIP3   OH2 2033   3.148   1.278   3.571
  676TIP3    H1 2034   3.211   1.286   3.499
  676TIP3    H2 2035   3.086   1.349   3.558
  677TIP3   OH2 2036   0.833   4.247   3.198
  677TIP3    H1 2037   0.762   4.307   3.173
  677TIP3    H2 2038   0.823   4.173   3.138
  678TIP3   OH2 2039   5.024   3.451   3.162
  678TIP3    H1 2040   5.082   3.417   3.230
  678TIP3    H2 2041   4.985   3.373   3.122
  679TIP3   OH2 2042   0.926   3.659   5.175
  679TIP3    H1 2043   0.948   3.707   5.255
  679TIP3    H2 2044   0.851   3.707   5.139
  680TIP3   OH2 2045   5.440   2.734   2.634
  680TIP3    H1 2046   5.495   2.803   2.671
  680TIP3    H2 2047   5.428   2.759   2.542
  681TIP3   OH2 2048  -0.039   1.758   1.783
  681TIP3    H1 2049   0.018   1.693   1.744
  681TIP3    H2 2050   0.012   1.839   1.782
  682TIP3   OH2 2051   1.845   3.777   0.364
  682TIP3    H1 2052   1.796   3.706   0.405
  682TIP3    H2 2053   1.915   3.733   0.315
  683TIP3   OH2 2054   3.254   1.557   3.761
  683TIP3    H1 2055   3.217   1.634   3.718
  683TIP3    H2 2056   3.316   1.592   3.826
  684TIP3   OH2 2057   0.187   2.877   3.308
  684TIP3    H1 2058   0.200   2.783   3.303
  684TIP3    H2 2059   0.243   2.913   3.239
  685TIP3   OH2 2060   3.275   3.418   4.209
  685TIP3    H1 2061   3.226   3.339   4.233
  685TIP3    H2 2062   3.357   3.410   4.257
  686TIP3   OH2 2063   3.824   2.772   0.425
  686TIP3    H1 2064   3.883   2.802   0.356
  686TIP3    H2 2065   3.865   2.798   0.507
  687TIP3   OH2 2066   5.873   4.546   0.357
  687TIP3    H1 2067   5.818   4.545   0.279
  687TIP3    H2 2068   5.939   4.613   0.339
  688TIP3   OH2 2069   1.895   4.495   4.763
  688TIP3    H1 2070   1.848   4.497   4.680
  688TIP3    H2 2071   1.986   4.511   4.740
  689TIP3   OH2 2072   1.931   1.520   0.733
  689TIP3    H1 2073   1.848   1.542   0.775
  689TIP3    H2 2074   1.967   1.449   0.787
  690TIP3   OH2 2075   0.312   4.616   0.677
  690TIP3    H1 2076   0.329   4.668   0.598
  690TIP3    H2 2077   0.254   4.546   0.648
  691TIP3   OH2 2078   1.716   4.633   1.163
  691TIP3    H1 2079   1.750   4.715   1.126
  691TIP3    H2 2080   1.736   4.567   1.097
  692TIP3   OH2 2081   0.937   3.915   1.051
  692TIP3    H1 2082   0.900   3.998   1.022
  692TIP3    H2 2083   0.898   3.900   1.137
  693TIP3   OH2 2084   2.333   3.342   1.036
  693TIP3    H1 2085   2.326   3.364   0.943
  693TIP3    H2 2086   2.388   3.411   1.072
  694TIP3   OH2 2087   0.058   2.576   2.405
  694TIP3    H1 2088   0.124   2.520   2.445
  694TIP3    H2 2089   0.074   2.569   2.311
  695TIP3   OH2 2090   1.311   0.281   0.825
  695TIP3    H1 2091   1.395   0.257   0.785
  695TIP3    H2 2092   1.335   0.326   0.905
  696TIP3   OH2 2093   0.331   2.399   0.681
  696TIP3    H1 2094   0.269   2.332   0.711
  696TIP3    H2 2095   0.413   2.376   0.725
  697TIP3   OH2 2096   0.826   3.515   2.537
  697TIP3    H1 2097   0.878   3.450   2.584
  697TIP3    H2 2098   0.738   3.477   2.534
  698TIP3   OH2 2099   1.567   4.971   3.556
  698TIP3    H1 2100   1.611   4.897   3.513
  698TIP3    H2 2101   1.531   5.022   3.484
  699TIP3   OH2 2102   2.437   3.072   2.724
  699TIP3    H1 2103   2.494   3.122   2.666
  699TIP3    H2 2104   2.424   2.988   2.680
  700TIP3   OH2 2105   1.881   2.788   3.488
  700TIP3    H1 2106   1.892   2.777   3.394
  700TIP3    H2 2107   1.895   2.701   3.524
  701TIP3   OH2 2108   4.819   0.293   0.050
  701TIP3    H1 2109   4.805   0.240  -0.028
  701TIP3    H2 2110   4.892   0.351   0.027
  702TIP3   OH2 2111   2.570   2.172   2.169
  702TIP3    H1 2112   2.594   2.094   2.219
  702TIP3    H2 2113   2.474   2.168   2.162
  703TIP3   OH2 2114   5.085   3.070   3.779
  703TIP3    H1 2115   5.119   3.131   3.844
  703TIP3    H2 2116   5.004   3.036   3.816
  704TIP3   OH2 2117   3.580   4.596   3.888
  704TIP3    H1 2118   3.570   4.534   3.961
  704TIP3    H2 2119   3.554   4.546   3.810
  705TIP3   OH2 2120   4.989   5.228   3.824
  705TIP3    H1 2121   5.063   5.259   3.877
  705TIP3    H2 2122   4.965   5.304   3.771
  706TIP3   OH2 2123   5.501   0.281   4.219
  706TIP3    H1 2124   5.561   0.355   4.214
  706TIP3    H2 2125   5.558   0.204   4.220
  707TIP3   OH2 2126   4.338   1.353   1.060
  707TIP3    H1 2127   4.365   1.299   1.134
  707TIP3    H2 2128   4.358   1.443   1.088
  708TIP3   OH2 2129   2.838   0.129   1.579
  708TIP3    H1 2130   2.804   0.040   1.581
  708TIP3    H2 2131   2.761   0.185   1.586
  709TIP3   OH2 2132   2.756   2.604   0.182
  709TIP3    H1 2133   2.820   2.600   0.111
  709TIP3    H2 2134   2.685   2.658   0.147
  710TIP3   OH2 2135   0.813   2.220   0.174
  710TIP3    H1 2136   0.823   2.302   0.127
  710TIP3    H2 2137   0.718   2.209   0.184
  711TIP3   OH2 2138   6.086   2.173   2.636
  711TIP3    H1 2139   6.145   2.248   2.645
  711TIP3    H2 2140   6.102   2.140   2.548
  712TIP3   OH2 2141   5.118   4.943   0.421
  712TIP3    H1 2142   5.097   4.873   0.483
  712TIP3    H2 2143   5.098   4.906   0.335
  713TIP3   OH2 2144   5.368   5.756   4.031
  713TIP3    H1 2145   5.428   5.821   4.067
  713TIP3    H2 2146   5.341   5.704   4.107
  714TIP3   OH2 2147   6.109   5.413   1.418
  714TIP3    H1 2148   6.175   5.353   1.384
  714TIP3    H2 2149   6.084   5.376   1.503
  715TIP3   OH2 2150   5.845   3.224   1.217
  715TIP3    H1 2151   5.799   3.290   1.269
  715TIP3    H2 2152   5.781   3.155   1.203
  716TIP3   OH2 2153   1.144   3.489   0.055
  716TIP3    H1 2154   1.207   3.473   0.124
  716TIP3    H2 2155   1.195   3.482  -0.026
  717TIP3   OH2 2156   6.244   5.222   4.725
  717TIP3    H1 2157   6.155   5.196   4.702
  717TIP3    H2 2158   6.295   5.142   4.717
  718TIP3   OH2 2159   3.741   4.220   3.785
  718TIP3    H1 2160   3.755   4.264   3.701
  718TIP3    H2 2161   3.652   4.242   3.810
  719TIP3   OH2 2162   1.700   3.624   3.925
  719TIP3    H1 2163   1.684   3.659   4.013
  719TIP3    H2 2164   1.760   3.550   3.939
  720TIP3   OH2 2165   0.205   1.983   3.051
  720TIP3    H1 2166   0.205   1.889   3.033
  720TIP3    H2 2167   0.128   2.016   3.003
  721TIP3   OH2 2168   2.968   1.720   1.999
  721TIP3    H1 2169   3.034   1.728   1.930
  721TIP3    H2 2170   2.999   1.648   2.054
  722TIP3   OH2 2171   5.058   3.996   2.404
  722TIP3    H1 2172   4.979   4.033   2.364
  722TIP3    H2 2173   5.025   3.930   2.465
  723TIP3   OH2 2174   5.403   3.963   3.972
  723TIP3    H1 2175   5.410   3.982   3.879
  723TIP3    H2 2176   5.346   4.031   4.007
  724TIP3   OH2 2177   2.545   1.415   0.179
  724TIP3    H1 2178   2.514   1.324   0.182
  724TIP3    H2 2179   2.552   1.441   0.270
  725TIP3   OH2 2180   3.095   4.599   0.345
  725TIP3    H1 2181   3.011   4.606   0.390
  725TIP3    H2 2182   3.144   4.676   0.374
  726TIP3   OH2 2183   6.095   0.232   4.107
  726TIP3    H1 2184   6.161   0.284   4.060
  726TIP3    H2 2185   6.146   0.181   4.171
  727TIP3   OH2 2186   1.659   3.149   3.681
  727TIP3    H1 2187   1.716   3.191   3.745
  727TIP3    H2 2188   1.578   3.200   3.684
  728TIP3   OH2 2189   6.028   0.619   2.558
  728TIP3    H1 2190   6.095   0.605   2.625
  728TIP3    H2 2191   6.023   0.714   2.550
  729TIP3   OH2 2192   3.032   2.749   1.709
  729TIP3    H1 2193   3.001   2.735   1.619
  729TIP3    H2 2194   3.013   2.666   1.753
  730TIP3   OH2 2195   0.627   5.752   2.343
  730TIP3    H1 2196   0.574   5.680   2.378
  730TIP3    H2 2197   0.569   5.828   2.344
  731TIP3   OH2 2198   0.722   1.889   2.178
  731TIP3    H1 2199   0.684   1.804   2.201
  731TIP3    H2 2200   0.798   1.896   2.235
  732TIP3   OH2 2201   5.583   1.564   2.955
  732TIP3    H1 2202   5.593   1.613   2.874
  732TIP3    H2 2203   5.648   1.494   2.949
  733TIP3   OH2 2204   6.131   4.473   1.408
  733TIP3    H1 2205   6.095   4.493   1.322
  733TIP3    H2 2206   6.223   4.498   1.402
  734TIP3   OH2 2207   2.156   2.109   4.184
  734TIP3    H1 2208   2.062   2.123   4.198
  734TIP3    H2 2209   2.198   2.186   4.222
  735TIP3   OH2 2210   4.695   3.404   5.007
  735TIP3    H1 2211   4.612   3.358   5.023
  735TIP3    H2 2212   4.687   3.437   4.917
  736TIP3   OH2 2213   5.903   0.488   3.641
  736TIP3    H1 2214   5.928   0.419   3.579
  736TIP3    H2 2215   5.811   0.473   3.659
  737TIP3   OH2 2216   4.962   5.467   3.713
  737TIP3    H1 2217   5.019   5.543   3.720
  737TIP3    H2 2218   4.932   5.468   3.622
  738TIP3   OH2 2219   4.017   4.076   0.119
  738TIP3    H1 2220   4.061   4.093   0.036
  738TIP3    H2 2221   3.952   4.009   0.099
  739TIP3   OH2 2222   0.469   2.782   0.115
  739TIP3    H1 2223   0.466   2.793   0.210
  739TIP3    H2 2224   0.536   2.844   0.086
  740TIP3   OH2 2225   2.708   4.535   3.924
  740TIP3    H1 2226   2.633   4.593   3.911
  740TIP3    H2 2227   2.781   4.580   3.882
  741TIP3   OH2 2228   3.438   4.148   2.960
  741TIP3    H1 2229   3.438   4.090   3.036
  741TIP3    H2 2230   3.400   4.095   2.890
  742TIP3   OH2 2231   4.945   2.172   4.099
  742TIP3    H1 2232   4.960   2.254   4.052
  742TIP3    H2 2233   4.989   2.106   4.046
  743TIP3   OH2 2234   5.681   1.547   1.483
  743TIP3    H1 2235   5.715   1.511   1.565
  743TIP3    H2 2236   5.744   1.613   1.457
  744TIP3   OH2 2237   2.759   4.851   2.485
  744TIP3    H1 2238   2.751   4.853   2.389
  744TIP3    H2 2239   2.854   4.855   2.500
  745TIP3   OH2 2240   4.849   4.966   1.693
  745TIP3    H1 2241   4.864   4.926   1.607
  745TIP3    H2 2242   4.905   5.043   1.694
  746TIP3   OH2 2243   0.471   4.378   0.724
  746TIP3    H1 2244   0.439   4.461   0.687
  746TIP3    H2 2245   0.516   4.335   0.651
  747TIP3   OH2 2246   4.728   5.167   1.186
  747TIP3    H1 2247   4.783   5.110   1.132
  747TIP3    H2 2248   4.781   5.246   1.197
  748TIP3   OH2 2249   2.693   2.387   2.313
  748TIP3    H1 2250   2.689   2.362   2.405
  748TIP3    H2 2251   2.645   2.317   2.268
  749TIP3   OH2 2252   3.688   2.728   4.789
  749TIP3    H1 2253   3.725   2.790   4.726
  749TIP3    H2 2254   3.613   2.689   4.744
  750TIP3   OH2 2255   5.160   0.216   3.896
  750TIP3    H1 2256   5.095   0.190   3.961
  750TIP3    H2 2257   5.222   0.270   3.945
  751TIP3   OH2 2258   5.916   4.195   4.359
  751TIP3    H1 2259   5.899   4.282   4.397
  751TIP3    H2 2260   6.010   4.183   4.369
  752TIP3   OH2 2261   5.918   4.447   4.530
  752TIP3    H1 2262   5.881   4.534   4.511
  752TIP3    H2 2263   5.967   4.460   4.611
  753TIP3   OH2 2264   4.140   4.644   0.352
  753TIP3    H1 2265   4.084   4.575   0.387
  753TIP3    H2 2266   4.202   4.664   0.423
  754TIP3   OH2 2267   5.724   0.367   4.531
  754TIP3    H1 2268   5.760   0.454   4.513
  754TIP3    H2 2269   5.800   0.314   4.556
  755TIP3   OH2 2270   6.243   1.445   1.375
  755TIP3    H1 2271   6.238   1.380   1.444
  755TIP3    H2 2272   6.296   1.404   1.307
  756TIP3   OH2 2273   2.508   4.974   2.478
  756TIP3    H1 2274   2.597   4.949   2.502
  756TIP3    H2 2275   2.504   4.959   2.383
  757TIP3   OH2 2276   0.875   4.863   2.937
  757TIP3    H1 2277   0.889   4.865   3.031
  757TIP3    H2 2278   0.952   4.818   2.902
  758TIP3   OH2 2279   0.166   1.843   4.912
  758TIP3    H1 2280   0.229   1.879   4.850
  758TIP3    H2 2281   0.200   1.757   4.934
  759TIP3   OH2 2282   2.281   3.002   4.959
  759TIP3    H1 2283   2.296   2.909   4.979
  759TIP3    H2 2284   2.231   3.001   4.877
  760TIP3   OH2 2285   1.819   0.422   1.156
  760TIP3    H1 2286   1.801   0.370   1.234
  760TIP3    H2 2287   1.795   0.365   1.083
  761TIP3   OH2 2288   5.968   3.417   3.676
  761TIP3    H1 2289   5.987   3.326   3.697
  761TIP3    H2 2290   5.886   3.436   3.722
  762TIP3   OH2 2291   2.390   3.579   0.009
  762TIP3    H1 2292   2.352   3.633   0.078
  762TIP3    H2 2293   2.480   3.565   0.037
  763TIP3   OH2 2294   1.650   4.658   3.859
  763TIP3    H1 2295   1.628   4.572   3.893
  763TIP3    H2 2296   1.717   4.691   3.919
  764TIP3   OH2 2297   5.637   1.108   4.947
  764TIP3    H1 2298   5.652   1.200   4.926
  764TIP3    H2 2299   5.543   1.096   4.935
  765TIP3   OH2 2300   5.887   1.339   4.409
  765TIP3    H1 2301   5.863   1.257   4.452
  765TIP3    H2 2302   5.944   1.384   4.472
  766TIP3   OH2 2303   3.570   2.493   2.574
  766TIP3    H1 2304   3.517   2.521   2.499
  766TIP3    H2 2305   3.653   2.467   2.536
  767TIP3   OH2 2306   3.560   1.732   4.139
  767TIP3    H1 2307   3.543   1.727   4.233
  767TIP3    H2 2308   3.644   1.688   4.128
  768TIP3   OH2 2309   5.019   5.670   3.407
  768TIP3    H1 2310   5.026   5.709   3.494
  768TIP3    H2 2311   4.963   5.594   3.419
  769TIP3   OH2 2312   3.273   4.680   2.786
  769TIP3    H1 2313   3.352   4.658   2.835
  769TIP3    H2 2314   3.297   4.667   2.694
  770TIP3   OH2 2315   0.615   2.004   2.432
  770TIP3    H1 2316   0.551   1.958   2.378
  770TIP3    H2 2317   0.676   1.937   2.462
  771TIP3   OH2 2318   5.916   0.393   0.348
  771TIP3    H1 2319   5.996   0.349   0.318
  771TIP3    H2 2320   5.931   0.408   0.441
  772TIP3   OH2 2321   3.206   1.478   4.081
  772TIP3    H1 2322   3.140   1.485   4.011
  772TIP3    H2 2323   3.162   1.515   4.158
  773TIP3   OH2 2324   1.326   3.727   2.074
  773TIP3    H1 2325   1.255   3.787   2.098
  773TIP3    H2 2326   1.284   3.640   2.071
  774TIP3   OH2 2327   2.596   2.100   3.987
  774TIP3    H1 2328   2.575   2.017   4.029
  774TIP3    H2 2329   2.602   2.078   3.894
  775TIP3   OH2 2330   3.347   4.854   5.137
  775TIP3    H1 2331   3.350   4.899   5.221
  775TIP3    H2 2332   3.368   4.921   5.072
  776TIP3   OH2 2333   0.249   5.797   0.291
  776TIP3    H1 2334   0.275   5.742   0.217
  776TIP3    H2 2335   0.180   5.853   0.256
  777TIP3   OH2 2336   6.317   1.067   1.778
  777TIP3    H1 2337   6.234   1.111   1.799
  777TIP3    H2 2338   6.384   1.124   1.814
  778TIP3   OH2 2339   5.204   4.889   2.791
  778TIP3    H1 2340   5.182   4.816   2.734
  778TIP3    H2 2341   5.259   4.850   2.859
  779TIP3   OH2 2342   3.028   0.713   0.284
  779TIP3    H1 2343   3.014   0.802   0.316
  779TIP3    H2 2344   2.953   0.696   0.227
  780TIP3   OH2 2345   5.790   2.293   1.898
  780TIP3    H1 2346   5.855   2.357   1.927
  780TIP3    H2 2347   5.707   2.341   1.899
  781TIP3   OH2 2348   1.386   4.255   1.683
  781TIP3    H1 2349   1.309   4.288   1.728
  781TIP3    H2 2350   1.399   4.317   1.611
  782TIP3   OH2 2351   2.920   1.661   1.469
  782TIP3    H1 2352   2.872   1.707   1.537
  782TIP3    H2 2353   3.009   1.696   1.474
  783TIP3   OH2 2354   2.392   3.424   3.831
  783TIP3    H1 2355   2.328   3.420   3.759
  783TIP3    H2 2356   2.410   3.332   3.852
  784TIP3   OH2 2357   0.527   2.687   2.424
  784TIP3    H1 2358   0.436   2.716   2.428
  784TIP3    H2 2359   0.524   2.593   2.439
  785TIP3   OH2 2360   1.732   0.449   5.080
  785TIP3    H1 2361   1.804   0.385   5.085
  785TIP3    H2 2362   1.748   0.509   5.152
  786TIP3   OH2 2363   0.671   5.613   0.697
  786TIP3    H1 2364   0.638   5.529   0.729
  786TIP3    H2 2365   0.626   5.679   0.750
  787TIP3   OH2 2366   5.019   0.034   0.986
  787TIP3    H1 2367   5.039   0.001   1.073
  787TIP3    H2 2368   5.016  -0.044   0.931
  788TIP3   OH2 2369   4.254   2.337   0.619
  788TIP3    H1 2370   4.268   2.392   0.541
  788TIP3    H2 2371   4.322   2.270   0.612
  789TIP3   OH2 2372   5.310   0.467   3.229
  789TIP3    H1 2373   5.250   0.397   3.206
  789TIP3    H2 2374   5.381   0.459   3.165
  790TIP3   OH2 2375   5.141   0.822   3.450
  790TIP3    H1 2376   5.158   0.730   3.430
  790TIP3    H2 2377   5.166   0.869   3.370
  791TIP3   OH2 2378   2.490   2.959   1.853
  791TIP3    H1 2379   2.551   2.952   1.780
  791TIP3    H2 2380   2.481   3.053   1.869
  792TIP3   OH2 2381   5.217   3.116   5.097
  792TIP3    H1 2382   5.181   3.053   5.035
  792TIP3    H2 2383   5.249   3.188   5.042
  793TIP3   OH2 2384   0.536   1.595   5.062
  793TIP3    H1 2385   0.487   1.662   5.013
  793TIP3    H2 2386   0.474   1.522   5.070
  794TIP3   OH2 2387   3.323   3.921   4.340
  794TIP3    H1 2388   3.290   4.007   4.313
  794TIP3    H2 2389   3.298   3.862   4.270
  795TIP3   OH2 2390   5.319   4.710   4.757
  795TIP3    H1 2391   5.277   4.631   4.791
  795TIP3    H2 2392   5.289   4.780   4.815
  796TIP3   OH2 2393   3.609   0.292   4.209
  796TIP3    H1 2394   3.656   0.298   4.126
  796TIP3    H2 2395   3.671   0.251   4.270
  797TIP3   OH2 2396   4.967   4.559   2.976
  797TIP3    H1 2397   5.018   4.496   3.027
  797TIP3    H2 2398   4.985   4.644   3.018
  798TIP3   OH2 2399   5.497   5.868   4.892
  798TIP3    H1 2400   5.543   5.951   4.879
  798TIP3    H2 2401   5.421   5.890   4.946
  799TIP3   OH2 2402   3.162   5.844   1.242
  799TIP3    H1 2403   3.158   5.762   1.192
  799TIP3    H2 2404   3.072   5.876   1.243
  800TIP3   OH2 2405   5.151   1.731   0.617
  800TIP3    H1 2406   5.206   1.661   0.582
  800TIP3    H2 2407   5.064   1.693   0.623
  801TIP3   OH2 2408   1.350   2.933   1.580
  801TIP3    H1 2409   1.283   2.883   1.534
  801TIP3    H2 2410   1.414   2.955   1.513
  802TIP3   OH2 2411   4.985   2.440   1.913
  802TIP3    H1 2412   4.907   2.492   1.897
  802TIP3    H2 2413   5.034   2.444   1.831
  803TIP3   OH2 2414   2.151   0.337   5.026
  803TIP3    H1 2415   2.181   0.249   5.004
  803TIP3    H2 2416   2.176   0.391   4.950
  804TIP3   OH2 2417   3.864   0.101   0.638
  804TIP3    H1 2418   3.882   0.051   0.718
  804TIP3    H2 2419   3.770   0.092   0.624
  805TIP3   OH2 2420   1.634   5.635   0.324
  805TIP3    H1 2421   1.600   5.546   0.313
  805TIP3    H2 2422   1.618   5.656   0.416
  806TIP3   OH2 2423   1.594   0.541   1.401
  806TIP3    H1 2424   1.652   0.608   1.440
  806TIP3    H2 2425   1.509   0.585   1.393
  807TIP3   OH2 2426   3.877   0.136   4.288
  807TIP3    H1 2427   3.941   0.171   4.349
  807TIP3    H2 2428   3.914   0.151   4.201
  808TIP3   OH2 2429   0.351   3.070   3.427
  808TIP3    H1 2430   0.438   3.050   3.393
  808TIP3    H2 2431   0.294   3.006   3.387
  809TIP3   OH2 2432   3.360   5.062   3.959
  809TIP3    H1 2433   3.409   5.069   3.877
  809TIP3    H2 2434   3.341   4.968   3.967
  810TIP3   OH2 2435   5.852   2.030   3.531
  810TIP3    H1 2436   5.874   2.123   3.532
  810TIP3    H2 2437   5.935   1.985   3.541
  811TIP3   OH2 2438   4.650   1.160   1.492
  811TIP3    H1 2439   4.648   1.255   1.489
  811TIP3    H2 2440   4.566   1.135   1.530
  812TIP3   OH2 2441   5.451   2.172   1.388
  812TIP3    H1 2442   5.403   2.134   1.315
  812TIP3    H2 2443   5.384   2.217   1.440
  813TIP3   OH2 2444   1.145   0.131   4.076
  813TIP3    H1 2445   1.066   0.076   4.069
  813TIP3    H2 2446   1.138   0.173   4.161
  814TIP3   OH2 2447   5.978   0.805   0.010
  814TIP3    H1 2448   5.938   0.720  -0.008
  814TIP3    H2 2449   6.063   0.783   0.050
  815TIP3   OH2 2450   0.177   2.496   2.156
  815TIP3    H1 2451   0.235   2.527   2.087
  815TIP3    H2 2452   0.222   2.420   2.193
  816TIP3   OH2 2453   0.439   1.236   5.181
  816TIP3    H1 2454   0.471   1.148   5.201
  816TIP3    H2 2455   0.422   1.234   5.087
  817TIP3   OH2 2456   2.772   0.069   4.602
  817TIP3    H1 2457   2.778   0.106   4.690
  817TIP3    H2 2458   2.836  -0.003   4.602
  818TIP3   OH2 2459   5.741   0.117   0.365
  818TIP3    H1 2460   5.747   0.137   0.272
  818TIP3    H2 2461   5.692   0.190   0.403
  819TIP3   OH2 2462   5.135   1.183   2.687
  819TIP3    H1 2463   5.125   1.149   2.775
  819TIP3    H2 2464   5.069   1.136   2.635
  820TIP3   OH2 2465   5.161   3.278   3.935
  820TIP3    H1 2466   5.239   3.245   3.979
  820TIP3    H2 2467   5.114   3.328   4.002
  821TIP3   OH2 2468   0.315   1.253   3.713
  821TIP3    H1 2469   0.404   1.272   3.684
  821TIP3    H2 2470   0.322   1.168   3.758
  822TIP3   OH2 2471   2.651   4.787   2.771
  822TIP3    H1 2472   2.558   4.807   2.785
  822TIP3    H2 2473   2.668   4.815   2.682
  823TIP3   OH2 2474   0.379   5.005   0.437
  823TIP3    H1 2475   0.379   5.082   0.494
  823TIP3    H2 2476   0.306   4.951   0.469
  824TIP3   OH2 2477   5.776   3.813   4.993
  824TIP3    H1 2478   5.812   3.885   5.044
  824TIP3    H2 2479   5.820   3.735   5.026
  825TIP3   OH2 2480   2.622   4.322   0.931
  825TIP3    H1 2481   2.652   4.292   0.845
  825TIP3    H2 2482   2.596   4.241   0.976
  826TIP3   OH2 2483   5.410   3.104   4.006
  826TIP3    H1 2484   5.470   3.066   4.069
  826TIP3    H2 2485   5.412   3.043   3.932
  827TIP3   OH2 2486   2.515   0.692   1.898
  827TIP3    H1 2487   2.481   0.769   1.852
  827TIP3    H2 2488   2.468   0.691   1.981
  828TIP3   OH2 2489   1.265   5.119   3.805
  828TIP3    H1 2490   1.293   5.210   3.816
  828TIP3    H2 2491   1.325   5.069   3.860
  829TIP3   OH2 2492   4.255   5.841   2.000
  829TIP3    H1 2493   4.288   5.931   1.995
  829TIP3    H2 2494   4.236   5.827   2.093
  830TIP3   OH2 2495   3.132   5.407   0.930
  830TIP3    H1 2496   3.119   5.370   0.843
  830TIP3    H2 2497   3.222   5.438   0.930
  831TIP3   OH2 2498   2.989   0.347   0.116
  831TIP3    H1 2499   3.045   0.274   0.091
  831TIP3    H2 2500   2.982   0.400   0.036
  832TIP3   OH2 2501   2.864   4.642   0.486
  832TIP3    H1 2502   2.775   4.620   0.514
  832TIP3    H2 2503   2.880   4.728   0.526
  833TIP3   OH2 2504   5.033   5.131   0.599
  833TIP3    H1 2505   5.059   5.085   0.518
  833TIP3    H2 2506   5.105   5.113   0.660
  834TIP3   OH2 2507   2.006   0.436   0.580
  834TIP3    H1 2508   2.078   0.440   0.643
  834TIP3    H2 2509   2.002   0.524   0.543
  835TIP3   OH2 2510   1.955   0.060   0.424
  835TIP3    H1 2511   1.904   0.117   0.481
  835TIP3    H2 2512   1.993  -0.005   0.483
  836TIP3   OH2 2513   0.316   0.438   1.005
  836TIP3    H1 2514   0.375   0.461   0.934
  836TIP3    H2 2515   0.359   0.469   1.084
  837TIP3   OH2 2516   5.947   2.026   0.309
  837TIP3    H1 2517   5.893   2.055   0.235
  837TIP3    H2 2518   5.907   2.067   0.385
  838TIP3   OH2 2519   6.144   5.396   4.300
  838TIP3    H1 2520   6.211   5.440   4.351
  838TIP3    H2 2521   6.185   5.313   4.273
  839TIP3   OH2 2522   5.296   0.086   2.736
  839TIP3    H1 2523   5.228   0.091   2.668
  839TIP3    H2 2524   5.253   0.118   2.815
  840TIP3   OH2 2525   3.723   0.120   0.360
  840TIP3    H1 2526   3.689   0.209   0.364
  840TIP3    H2 2527   3.711   0.086   0.449
  841TIP3   OH2 2528   1.849   3.320   0.690
  841TIP3    H1 2529   1.831   3.319   0.596
  841TIP3    H2 2530   1.828   3.232   0.720
  842TIP3   OH2 2531   2.054   1.606   1.588
  842TIP3    H1 2532   1.985   1.604   1.654
  842TIP3    H2 2533   2.019   1.557   1.514
  843TIP3   OH2 2534   1.208   0.741   1.604
  843TIP3    H1 2535   1.129   0.792   1.584
  843TIP3    H2 2536   1.239   0.711   1.518
  844TIP3   OH2 2537   5.572   0.650   5.035
  844TIP3    H1 2538   5.635   0.585   5.006
  844TIP3    H2 2539   5.610   0.687   5.115
  845TIP3   OH2 2540   1.827   4.528   4.496
  845TIP3    H1 2541   1.754   4.478   4.460
  845TIP3    H2 2542   1.864   4.575   4.421
  846TIP3   OH2 2543   2.233   4.203   1.163
  846TIP3    H1 2544   2.206   4.293   1.147
  846TIP3    H2 2545   2.154   4.158   1.192
  847TIP3   OH2 2546   3.496   0.810   4.202
  847TIP3    H1 2547   3.435   0.738   4.190
  847TIP3    H2 2548   3.452   0.869   4.263
  848TIP3   OH2 2549   5.551   5.989   1.083
  848TIP3    H1 2550   5.456   6.000   1.071
  848TIP3    H2 2551   5.564   5.894   1.085
  849TIP3   OH2 2552   0.841   4.025   2.493
  849TIP3    H1 2553   0.933   4.009   2.474
  849TIP3    H2 2554   0.805   3.938   2.512
  850TIP3   OH2 2555   3.938   3.009   5.127
  850TIP3    H1 2556   3.879   2.936   5.108
  850TIP3    H2 2557   3.913   3.038   5.215
  851TIP3   OH2 2558   1.095   4.267   2.442
  851TIP3    H1 2559   1.122   4.283   2.533
  851TIP3    H2 2560   1.000   4.264   2.446
  852TIP3   OH2 2561   4.968   0.597   4.055
  852TIP3    H1 2562   4.888   0.556   4.022
  852TIP3    H2 2563   5.014   0.626   3.977
  853TIP3   OH2 2564   1.084   1.871   0.329
  853TIP3    H1 2565   1.014   1.813   0.359
  853TIP3    H2 2566   1.109   1.920   0.407
  854TIP3   OH2 2567   3.284   4.050   2.026
  854TIP3    H1 2568   3.242   4.134   2.044
  854TIP3    H2 2569   3.250   4.025   1.940
  855TIP3   OH2 2570   1.725   5.316   1.977
  855TIP3    H1 2571   1.778   5.389   1.944
  855TIP3    H2 2572   1.769   5.237   1.944
  856TIP3   OH2 2573   3.166   1.707   1.819
  856TIP3    H1 2574   3.109   1.722   1.744
  856TIP3    H2 2575   3.203   1.793   1.839
  857TIP3   OH2 2576   2.916   2.951   2.557
  857TIP3    H1 2577   2.943   2.880   2.499
  857TIP3    H2 2578   2.929   3.031   2.506
  858TIP3   OH2 2579   2.333   4.966   0.736
  858TIP3    H1 2580   2.419   5.003   0.757
  858TIP3    H2 2581   2.271   5.023   0.782
  859TIP3   OH2 2582   4.151   3.139   2.253
  859TIP3    H1 2583   4.117   3.206   2.312
  859TIP3    H2 2584   4.073   3.105   2.208
  860TIP3   OH2 2585   3.043   1.528   0.248
  860TIP3    H1 2586   2.970   1.478   0.282
  860TIP3    H2 2587   3.007   1.614   0.228
  861TIP3   OH2 2588   3.885   1.476   2.152
  861TIP3    H1 2589   3.790   1.475   2.157
  861TIP3    H2 2590   3.905   1.507   2.064
  862TIP3   OH2 2591   3.111   2.531   0.288
  862TIP3    H1 2592   3.111   2.600   0.222
  862TIP3    H2 2593   3.203   2.506   0.297
  863TIP3   OH2 2594   0.378   2.072   0.696
  863TIP3    H1 2595   0.448   2.007   0.705
  863TIP3    H2 2596   0.302   2.021   0.668
  864TIP3   OH2 2597   3.294   3.021   1.118
  864TIP3    H1 2598   3.202   3.036   1.096
  864TIP3    H2 2599   3.295   3.016   1.213
  865TIP3   OH2 2600   5.599   0.016   1.640
  865TIP3    H1 2601   5.688  -0.002   1.610
  865TIP3    H2 2602   5.544  -0.004   1.564
  866TIP3   OH2 2603   5.119   5.038   4.537
  866TIP3    H1 2604   5.042   5.035   4.593
  866TIP3    H2 2605   5.193   5.021   4.596
  867TIP3   OH2 2606   5.884   0.759   3.709
  867TIP3    H1 2607   5.829   0.750   3.787
  867TIP3    H2 2608   5.899   0.669   3.679
  868TIP3   OH2 2609   2.657   3.384   4.616
  868TIP3    H1 2610   2.730   3.335   4.578
  868TIP3    H2 2611   2.584   3.370   4.555
  869TIP3   OH2 2612   0.152   1.069   1.221
  869TIP3    H1 2613   0.187   1.096   1.306
  869TIP3    H2 2614   0.058   1.058   1.236
  870TIP3   OH2 2615   5.494   1.912   0.636
  870TIP3    H1 2616   5.426   1.891   0.572
  870TIP3    H2 2617   5.500   1.833   0.691
  871TIP3   OH2 2618   4.777   5.569   5.040
  871TIP3    H1 2619   4.872   5.579   5.042
  871TIP3    H2 2620   4.743   5.654   5.070
  872TIP3   OH2 2621   1.952   2.327   0.336
  872TIP3    H1 2622   2.026   2.304   0.393
  872TIP3    H2 2623   1.875   2.293   0.382
  873TIP3   OH2 2624   5.433   2.450   3.271
  873TIP3    H1 2625   5.526   2.458   3.250
  873TIP3    H2 2626   5.429   2.383   3.339
  874TIP3   OH2 2627   3.082   1.290   1.400
  874TIP3    H1 2628   3.158   1.247   1.361
  874TIP3    H2 2629   3.089   1.271   1.494
  875TIP3   OH2 2630   2.286   5.767   0.553
  875TIP3    H1 2631   2.345   5.721   0.612
  875TIP3    H2 2632   2.289   5.717   0.472
  876TIP3   OH2 2633   6.274   2.335   0.972
  876TIP3    H1 2634   6.314   2.297   0.894
  876TIP3    H2 2635   6.201   2.276   0.993
  877TIP3   OH2 2636   0.533   4.347   1.241
  877TIP3    H1 2637   0.494   4.379   1.322
  877TIP3    H2 2638   0.559   4.426   1.194
  878TIP3   OH2 2639   6.258   0.964   0.558
  878TIP3    H1 2640   6.287   0.918   0.638
  878TIP3    H2 2641   6.163   0.951   0.556
  879TIP3   OH2 2642   4.666   2.356   3.199
  879TIP3    H1 2643   4.652   2.296   3.272
  879TIP3    H2 2644   4.601   2.330   3.133
  880TIP3   OH2 2645   3.536   2.280   4.405
  880TIP3    H1 2646   3.501   2.357   4.362
  880TIP3    H2 2647   3.631   2.288   4.394
  881TIP3   OH2 2648   1.550   0.284   0.292
  881TIP3    H1 2649   1.591   0.351   0.347
  881TIP3    H2 2650   1.503   0.334   0.225
  882TIP3   OH2 2651   0.881   1.430   2.367
  882TIP3    H1 2652   0.955   1.374   2.391
  882TIP3    H2 2653   0.917   1.491   2.303
  883TIP3   OH2 2654   2.782   1.496   1.096
  883TIP3    H1 2655   2.859   1.490   1.152
  883TIP3    H2 2656   2.770   1.590   1.081
  884TIP3   OH2 2657   3.652   4.030   5.094
  884TIP3    H1 2658   3.598   3.954   5.119
  884TIP3    H2 2659   3.590   4.102   5.087
  885TIP3   OH2 2660   3.630   2.377   3.890
  885TIP3    H1 2661   3.589   2.293   3.869
  885TIP3    H2 2662   3.719   2.369   3.857
  886TIP3   OH2 2663   2.779   0.365   1.352
  886TIP3    H1 2664   2.754   0.371   1.444
  886TIP3    H2 2665   2.706   0.406   1.305
  887TIP3   OH2 2666   5.063   2.635   2.345
  887TIP3    H1 2667   5.078   2.542   2.360
  887TIP3    H2 2668   5.046   2.641   2.251
  888TIP3   OH2 2669   1.240   3.079   0.662
  888TIP3    H1 2670   1.309   3.069   0.597
  888TIP3    H2 2671   1.275   3.144   0.724
  889TIP3   OH2 2672   2.297   0.655   0.441
  889TIP3    H1 2673   2.343   0.596   0.381
  889TIP3    H2 2674   2.231   0.698   0.386
  890TIP3   OH2 2675   0.201   3.652   1.837
  890TIP3    H1 2676   0.157   3.608   1.910
  890TIP3    H2 2677   0.144   3.637   1.762
  891TIP3   OH2 2678   4.922   4.480   0.205
  891TIP3    H1 2679   4.940   4.413   0.139
  891TIP3    H2 2680   4.848   4.446   0.255
  892TIP3   OH2 2681   3.397   0.445   4.479
  892TIP3    H1 2682   3.328   0.479   4.537
  892TIP3    H2 2683   3.437   0.374   4.529
  893TIP3   OH2 2684   0.564   0.647   3.763
  893TIP3    H1 2685   0.573   0.731   3.719
  893TIP3    H2 2686   0.596   0.663   3.852
  894TIP3   OH2 2687   4.736   1.023   2.231
  894TIP3    H1 2688   4.705   0.961   2.165
  894TIP3    H2 2689   4.829   1.003   2.241
  895TIP3   OH2 2690   1.782   3.421   4.995
  895TIP3    H1 2691   1.737   3.389   5.073
  895TIP3    H2 2692   1.726   3.394   4.922
  896TIP3   OH2 2693   1.430   3.681   1.810
  896TIP3    H1 2694   1.421   3.764   1.763
  896TIP3    H2 2695   1.388   3.697   1.895
  897TIP3   OH2 2696   2.930   0.386   2.631
  897TIP3    H1 2697   2.915   0.436   2.551
  897TIP3    H2 2698   3.006   0.428   2.671
  898TIP3   OH2 2699   5.823   4.707   4.553
  898TIP3    H1 2700   5.729   4.723   4.549
  898TIP3    H2 2701   5.855   4.725   4.465
  899TIP3   OH2 2702   0.826   4.781   1.711
  899TIP3    H1 2703   0.854   4.872   1.714
  899TIP3    H2 2704   0.893   4.737   1.658
  900TIP3   OH2 2705   0.790   2.861   2.426
  900TIP3    H1 2706   0.720   2.862   2.492
  900TIP3    H2 2707   0.868   2.831   2.475
  901TIP3   OH2 2708   2.996   4.801   0.156
  901TIP3    H1 2709   3.001   4.841   0.243
  901TIP3    H2 2710   2.934   4.729   0.166
  902TIP3   OH2 2711   0.936   0.403   4.527
  902TIP3    H1 2712   0.915   0.481   4.476
  902TIP3    H2 2713   0.862   0.391   4.585
  903TIP3   OH2 2714   3.362   2.732   4.011
  903TIP3    H1 2715   3.280   2.781   4.018
  903TIP3    H2 2716   3.342   2.647   4.048
  904TIP3   OH2 2717   3.030   3.110   2.758
  904TIP3    H1 2718   2.963   3.049   2.726
  904TIP3    H2 2719   3.111   3.078   2.718
  905TIP3   OH2 2720   0.241   0.976   0.253
  905TIP3    H1 2721   0.213   1.044   0.315
  905TIP3    H2 2722   0.321   1.011   0.215
  906TIP3   OH2 2723   3.489   3.616   3.653
  906TIP3    H1 2724   3.549   3.663   3.712
  906TIP3    H2 2725   3.481   3.673   3.576
  907TIP3   OH2 2726   4.325   2.919  -0.002
  907TIP3    H1 2727   4.288   2.983  -0.063
  907TIP3    H2 2728   4.393   2.968   0.045
  908TIP3   OH2 2729   3.433   4.766   3.350
  908TIP3    H1 2730   3.449   4.832   3.282
  908TIP3    H2 2731   3.393   4.815   3.422
  909TIP3   OH2 2732   4.427   1.395   4.276
  909TIP3    H1 2733   4.461   1.309   4.251
  909TIP3    H2 2734   4.483   1.422   4.350
  910TIP3   OH2 2735   1.740   2.218   0.489
  910TIP3    H1 2736   1.724   2.165   0.567
  910TIP3    H2 2737   1.656   2.219   0.443
  911TIP3   OH2 2738   5.020   0.856   5.067
  911TIP3    H1 2739   5.090   0.793   5.087
  911TIP3    H2 2740   4.976   0.871   5.151
  912TIP3   OH2 2741   2.394   2.611   0.902
  912TIP3    H1 2742   2.478   2.647   0.932
  912TIP3    H2 2743   2.404   2.516   0.912
  913TIP3   OH2 2744   2.145   4.725   2.937
  913TIP3    H1 2745   2.159   4.660   3.005
  913TIP3    H2 2746   2.060   4.763   2.957
  914TIP3   OH2 2747   4.145   5.061   2.638
  914TIP3    H1 2748   4.138   4.978   2.591
  914TIP3    H2 2749   4.178   5.123   2.572
  915TIP3   OH2 2750   1.049   3.869   2.377
  915TIP3    H1 2751   1.079   3.928   2.308
  915TIP3    H2 2752   1.064   3.781   2.342
  916TIP3   OH2 2753   0.213   5.335   3.663
  916TIP3    H1 2754   0.200   5.423   3.627
  916TIP3    H2 2755   0.124   5.302   3.678
  917TIP3   OH2 2756   2.948   4.741   1.039
  917TIP3    H1 2757   2.897   4.670   0.999
  917TIP3    H2 2758   2.882   4.799   1.078
  918TIP3   OH2 2759   5.239   0.298   0.925
  918TIP3    H1 2760   5.222   0.236   0.854
  918TIP3    H2 2761   5.152   0.328   0.951
  919TIP3   OH2 2762   4.098   2.901   4.385
  919TIP3    H1 2763   4.142   2.949   4.315
  919TIP3    H2 2764   4.097   2.961   4.459
  920TIP3   OH2 2765   1.866   2.997   2.352
  920TIP3    H1 2766   1.842   2.963   2.439
  920TIP3    H2 2767   1.790   3.047   2.323
  921TIP3   OH2 2768   5.954   2.615   1.107
  921TIP3    H1 2769   5.997   2.556   1.169
  921TIP3    H2 2770   5.874   2.569   1.081
  922TIP3   OH2 2771   2.441   2.936   3.369
  922TIP3    H1 2772   2.534   2.914   3.380
  922TIP3    H2 2773   2.438   3.031   3.375
  923TIP3   OH2 2774   5.000   3.524   4.014
  923TIP3    H1 2775   5.065   3.493   4.077
  923TIP3    H2 2776   4.915   3.508   4.057
  924TIP3   OH2 2777   5.135   3.652   2.676
  924TIP3    H1 2778   5.134   3.600   2.756
  924TIP3    H2 2779   5.199   3.609   2.619
  925TIP3   OH2 2780   3.892   1.292   1.715
  925TIP3    H1 2781   3.988   1.284   1.709
  925TIP3    H2 2782   3.866   1.338   1.636
  926TIP3   OH2 2783   0.282   3.949   0.418
  926TIP3    H1 2784   0.348   3.952   0.349
  926TIP3    H2 2785   0.317   3.886   0.482
  927TIP3   OH2 2786   0.090   0.689   1.612
  927TIP3    H1 2787   0.098   0.605   1.659
  927TIP3    H2 2788   0.135   0.752   1.668
  928TIP3   OH2 2789   5.209   5.318   2.955
  928TIP3    H1 2790   5.180   5.402   2.919
  928TIP3    H2 2791   5.137   5.258   2.937
  929TIP3   OH2 2792   1.328   3.831   5.194
  929TIP3    H1 2793   1.268   3.796   5.128
  929TIP3    H2 2794   1.397   3.875   5.143
  930TIP3   OH2 2795   4.925   2.301   3.678
  930TIP3    H1 2796   4.972   2.270   3.600
  930TIP3    H2 2797   4.841   2.255   3.675
  931TIP3   OH2 2798   0.550   2.749   5.093
  931TIP3    H1 2799   0.494   2.826   5.084
  931TIP3    H2 2800   0.610   2.770   5.164
  932TIP3   OH2 2801   6.117   3.375   3.142
  932TIP3    H1 2802   6.097   3.424   3.222
  932TIP3    H2 2803   6.213   3.368   3.141
  933TIP3   OH2 2804   2.522   0.556   2.848
  933TIP3    H1 2805   2.467   0.517   2.917
  933TIP3    H2 2806   2.548   0.481   2.794
  934TIP3   OH2 2807   4.327   0.532   2.476
  934TIP3    H1 2808   4.265   0.462   2.497
  934TIP3    H2 2809   4.289   0.611   2.515
  935TIP3   OH2 2810   2.358   5.704   1.060
  935TIP3    H1 2811   2.410   5.773   1.020
  935TIP3    H2 2812   2.416   5.627   1.059
  936TIP3   OH2 2813   5.155   3.339   3.396
  936TIP3    H1 2814   5.232   3.288   3.420
  936TIP3    H2 2815   5.094   3.329   3.470
  937TIP3   OH2 2816   3.876   3.560   4.258
  937TIP3    H1 2817   3.925   3.640   4.274
  937TIP3    H2 2818   3.850   3.531   4.346
  938TIP3   OH2 2819   3.941   1.725   0.473
  938TIP3    H1 2820   3.993   1.803   0.491
  938TIP3    H2 2821   4.004   1.660   0.443
  939TIP3   OH2 2822   5.450   3.236   4.959
  939TIP3    H1 2823   5.489   3.315   4.922
  939TIP3    H2 2824   5.454   3.250   5.053
  940TIP3   OH2 2825   5.797   4.337   0.548
  940TIP3    H1 2826   5.754   4.267   0.500
  940TIP3    H2 2827   5.833   4.394   0.480
  941TIP3   OH2 2828   3.950   2.270   3.506
  941TIP3    H1 2829   4.012   2.274   3.433
  941TIP3    H2 2830   3.971   2.346   3.561
  942TIP3   OH2 2831   5.117   0.283   3.164
  942TIP3    H1 2832   5.044   0.314   3.217
  942TIP3    H2 2833   5.114   0.187   3.173
  943TIP3   OH2 2834   5.315   3.705   2.042
  943TIP3    H1 2835   5.268   3.761   2.104
  943TIP3    H2 2836   5.320   3.757   1.962
  944TIP3   OH2 2837   0.496   0.600   0.547
  944TIP3    H1 2838   0.516   0.507   0.536
  944TIP3    H2 2839   0.567   0.646   0.503
  945TIP3   OH2 2840   3.811   3.386   3.693
  945TIP3    H1 2841   3.733   3.352   3.649
  945TIP3    H2 2842   3.800   3.481   3.692
  946TIP3   OH2 2843   1.312   1.321   3.916
  946TIP3    H1 2844   1.343   1.264   3.986
  946TIP3    H2 2845   1.377   1.391   3.911
  947TIP3   OH2 2846   6.151   1.537   4.023
  947TIP3    H1 2847   6.219   1.516   3.958
  947TIP3    H2 2848   6.069   1.514   3.979
  948TIP3   OH2 2849   1.851   4.586   3.692
  948TIP3    H1 2850   1.867   4.591   3.597
  948TIP3    H2 2851   1.758   4.608   3.701
  949TIP3   OH2 2852   1.159   3.962   2.127
  949TIP3    H1 2853   1.132   3.927   2.042
  949TIP3    H2 2854   1.242   4.007   2.109
  950TIP3   OH2 2855   4.550   5.780   2.105
  950TIP3    H1 2856   4.481   5.713   2.109
  950TIP3    H2 2857   4.561   5.797   2.011
  951TIP3   OH2 2858   6.134   4.789   3.465
  951TIP3    H1 2859   6.081   4.857   3.424
  951TIP3    H2 2860   6.083   4.709   3.456
  952TIP3   OH2 2861   1.415   2.769   4.713
  952TIP3    H1 2862   1.453   2.767   4.801
  952TIP3    H2 2863   1.485   2.805   4.658
  953TIP3   OH2 2864   2.336   3.618   3.101
  953TIP3    H1 2865   2.258   3.672   3.085
  953TIP3    H2 2866   2.391   3.673   3.157
  954TIP3   OH2 2867   6.199   1.390   2.053
  954TIP3    H1 2868   6.151   1.439   2.120
  954TIP3    H2 2869   6.286   1.430   2.050
  955TIP3   OH2 2870   1.968   1.602   3.569
  955TIP3    H1 2871   1.903   1.542   3.532
  955TIP3    H2 2872   1.924   1.686   3.573
  956TIP3   OH2 2873   1.815   0.880   1.188
  956TIP3    H1 2874   1.846   0.796   1.155
  956TIP3    H2 2875   1.727   0.863   1.221
  957TIP3   OH2 2876   6.222   1.760   3.722
  957TIP3    H1 2877   6.301   1.814   3.728
  957TIP3    H2 2878   6.247   1.676   3.762
  958TIP3   OH2 2879   5.133   4.693   4.129
  958TIP3    H1 2880   5.059   4.753   4.136
  958TIP3    H2 2881   5.171   4.693   4.217
  959TIP3   OH2 2882   4.358   2.005   4.699
  959TIP3    H1 2883   4.267   2.027   4.680
  959TIP3    H2 2884   4.377   2.051   4.781
  960TIP3   OH2 2885   0.718   4.970   1.108
  960TIP3    H1 2886   0.794   5.028   1.115
  960TIP3    H2 2887   0.680   4.970   1.196
  961TIP3   OH2 2888   0.712   0.355   0.248
  961TIP3    H1 2889   0.670   0.411   0.182
  961TIP3    H2 2890   0.657   0.366   0.326
  962TIP3   OH2 2891   0.040   3.141   2.826
  962TIP3    H1 2892  -0.025   3.209   2.846
  962TIP3    H2 2893   0.103   3.146   2.897
  963TIP3   OH2 2894   5.211   1.227   4.329
  963TIP3    H1 2895   5.279   1.189   4.273
  963TIP3    H2 2896   5.151   1.155   4.346
  964TIP3   OH2 2897   2.249   4.484   2.156
  964TIP3    H1 2898   2.207   4.398   2.153
  964TIP3    H2 2899   2.322   4.473   2.216
  965TIP3   OH2 2900   4.896   5.639   4.612
  965TIP3    H1 2901   4.926   5.671   4.526
  965TIP3    H2 2902   4.862   5.717   4.655
  966TIP3   OH2 2903   0.018   5.808   4.780
  966TIP3    H1 2904   0.099   5.859   4.779
  966TIP3    H2 2905   0.016   5.765   4.694
  967TIP3   OH2 2906   3.906   2.902   3.879
  967TIP3    H1 2907   3.969   2.833   3.902
  967TIP3    H2 2908   3.823   2.870   3.915
  968TIP3   OH2 2909   4.205   2.844   2.559
  968TIP3    H1 2910   4.115   2.840   2.592
  968TIP3    H2 2911   4.251   2.773   2.604
  969TIP3   OH2 2912   2.129   0.973   4.842
  969TIP3    H1 2913   2.210   1.002   4.800
  969TIP3    H2 2914   2.096   1.051   4.887
  970TIP3   OH2 2915   4.840   4.650   0.007
  970TIP3    H1 2916   4.753   4.619  -0.017
  970TIP3    H2 2917   4.863   4.598   0.084
  971TIP3   OH2 2918   4.135   4.567   1.201
  971TIP3    H1 2919   4.198   4.638   1.192
  971TIP3    H2 2920   4.168   4.516   1.275
  972TIP3   OH2 2921   5.451   4.484   1.846
  972TIP3    H1 2922   5.502   4.431   1.785
  972TIP3    H2 2923   5.368   4.500   1.801
  973TIP3   OH2 2924   5.295   3.652   4.224
  973TIP3    H1 2925   5.281   3.746   4.239
  973TIP3    H2 2926   5.299   3.614   4.311
  974TIP3   OH2 2927   2.053   4.811   1.663
  974TIP3    H1 2928   2.147   4.813   1.642
  974TIP3    H2 2929   2.026   4.903   1.659
  975TIP3   OH2 2930   2.213   1.095   0.903
  975TIP3    H1 2931   2.137   1.037   0.909
  975TIP3    H2 2932   2.232   1.119   0.994
  976TIP3   OH2 2933   4.296   4.390   3.843
  976TIP3    H1 2934   4.230   4.429   3.900
  976TIP3    H2 2935   4.363   4.458   3.833
  977TIP3   OH2 2936   2.867   5.065   1.626
  977TIP3    H1 2937   2.792   5.102   1.671
  977TIP3    H2 2938   2.909   5.140   1.582
  978TIP3   OH2 2939   3.377   0.616   0.563
  978TIP3    H1 2940   3.407   0.700   0.597
  978TIP3    H2 2941   3.282   0.621   0.567
  979TIP3   OH2 2942   5.994   0.462   5.052
  979TIP3    H1 2943   6.019   0.554   5.058
  979TIP3    H2 2944   5.957   0.453   4.964
  980TIP3   OH2 2945   0.934   3.225   4.878
  980TIP3    H1 2946   0.904   3.134   4.874
  980TIP3    H2 2947   0.880   3.265   4.946
  981TIP3   OH2 2948   4.069   1.567   1.678
  981TIP3    H1 2949   4.157   1.595   1.653
  981TIP3    H2 2950   4.023   1.556   1.595
  982TIP3   OH2 2951   4.479   4.137   3.312
  982TIP3    H1 2952   4.409   4.142   3.377
  982TIP3    H2 2953   4.470   4.217   3.260
  983TIP3   OH2 2954   0.328   3.413   4.216
  983TIP3    H1 2955   0.238   3.445   4.217
  983TIP3    H2 2956   0.320   3.318   4.211
  984TIP3   OH2 2957   5.378   1.049   0.257
  984TIP3    H1 2958   5.412   1.047   0.167
  984TIP3    H2 2959   5.321   1.126   0.259
  985TIP3   OH2 2960   0.527   4.104   4.965
  985TIP3    H1 2961   0.578   4.164   4.911
  985TIP3    H2 2962   0.436   4.130   4.949
  986TIP3   OH2 2963   1.804   0.202   2.740
  986TIP3    H1 2964   1.788   0.113   2.769
  986TIP3    H2 2965   1.860   0.240   2.807
  987TIP3   OH2 2966   2.972   5.822   0.604
  987TIP3    H1 2967   3.037   5.859   0.545
  987TIP3    H2 2968   2.917   5.897   0.630
  988TIP3   OH2 2969   3.398   3.067   2.932
  988TIP3    H1 2970   3.460   3.026   2.992
  988TIP3    H2 2971   3.324   3.007   2.929
  989TIP3   OH2 2972   5.880   1.997   2.814
  989TIP3    H1 2973   5.818   1.982   2.743
  989TIP3    H2 2974   5.830   1.979   2.894
  990TIP3   OH2 2975   4.838   1.232   4.322
  990TIP3    H1 2976   4.831   1.148   4.277
  990TIP3    H2 2977   4.872   1.211   4.409
  991TIP3   OH2 2978   4.034   2.599   5.094
  991TIP3    H1 2979   4.040   2.506   5.116
  991TIP3    H2 2980   4.112   2.638   5.132
  992TIP3   OH2 2981   4.877   5.423   3.462
  992TIP3    H1 2982   4.918   5.336   3.466
  992TIP3    H2 2983   4.791   5.411   3.502
  993TIP3   OH2 2984   1.517   0.829   2.609
  993TIP3    H1 2985   1.551   0.773   2.679
  993TIP3    H2 2986   1.561   0.799   2.530
  994TIP3   OH2 2987   3.830   2.447   2.494
  994TIP3    H1 2988   3.921   2.464   2.519
  994TIP3    H2 2989   3.803   2.526   2.447
  995TIP3   OH2 2990   4.619   2.261   2.516
  995TIP3    H1 2991   4.660   2.306   2.590
  995TIP3    H2 2992   4.602   2.172   2.549
  996TIP3   OH2 2993   0.935   3.468   4.637
  996TIP3    H1 2994   0.853   3.517   4.636
  996TIP3    H2 2995   0.911   3.379   4.613
  997TIP3   OH2 2996   0.163   5.282   0.480
  997TIP3    H1 2997   0.146   5.318   0.567
  997TIP3    H2 2998   0.258   5.285   0.472
  998TIP3   OH2 2999   0.850   5.757   3.252
  998TIP3    H1 3000   0.884   5.705   3.179
  998TIP3    H2 3001   0.838   5.695   3.324
  999TIP3   OH2 3002   2.379   4.140   0.307
  999TIP3    H1 3003   2.417   4.156   0.393
  999TIP3    H2 3004   2.287   4.165   0.316
 1000TIP3   OH2 3005   0.390   4.793   4.097
 1000TIP3    H1 3006   0.410   4.872   4.147
 1000TIP3    H2 3007   0.402   4.818   4.006
 1001TIP3   OH2 3008   3.569   0.965   1.921
 1001TIP3    H1 3009   3.564   0.880   1.876
 1001TIP3    H2 3010   3.561   0.942   2.014
 1002TIP3   OH2 3011   0.775   5.331   1.510
 1002TIP3    H1 3012   0.861   5.297   1.483
 1002TIP3    H2 3013   0.764   5.412   1.460
 1003TIP3   OH2 3014   2.948   0.971   2.281
 1003TIP3    H1 3015   2.959   0.929   2.195
 1003TIP3    H2 3016   2.928   0.899   2.340
 1004TIP3   OH2 3017   3.255   1.720   0.863
 1004TIP3    H1 3018   3.214   1.689   0.943
 1004TIP3    H2 3019   3.335   1.668   0.855
 1005TIP3   OH2 3020   2.262  -0.011   3.057
 1005TIP3    H1 3021   2.279  -0.070   3.131
 1005TIP3    H2 3022   2.282   0.076   3.090
 1006TIP3   OH2 3023   0.829   3.022   0.765
 1006TIP3    H1 3024   0.783   3.017   0.682
 1006TIP3    H2 3025   0.760   3.037   0.830
 1007TIP3   OH2 3026   4.799   2.552   4.614
 1007TIP3    H1 3027   4.783   2.459   4.603
 1007TIP3    H2 3028   4.884   2.568   4.574
 1008TIP3   OH2 3029   4.663   2.872   2.031
 1008TIP3    H1 3030   4.742   2.818   2.022
 1008TIP3    H2 3031   4.636   2.891   1.941
 1009TIP3   OH2 3032   0.856   0.425   1.057
 1009TIP3    H1 3033   0.916   0.394   1.124
 1009TIP3    H2 3034   0.862   0.359   0.987
 1010TIP3   OH2 3035   5.680   2.455   3.158
 1010TIP3    H1 3036   5.714   2.544   3.168
 1010TIP3    H2 3037   5.749   2.409   3.111
 1011TIP3   OH2 3038   3.985   0.552   1.661
 1011TIP3    H1 3039   3.952   0.612   1.594
 1011TIP3    H2 3040   4.022   0.479   1.611
 1012TIP3   OH2 3041   0.542   0.175   4.184
 1012TIP3    H1 3042   0.626   0.199   4.223
 1012TIP3    H2 3043   0.518   0.093   4.226
 1013TIP3   OH2 3044   0.898   5.364   5.107
 1013TIP3    H1 3045   0.901   5.392   5.016
 1013TIP3    H2 3046   0.820   5.310   5.114
 1014TIP3   OH2 3047   0.721   0.723   3.972
 1014TIP3    H1 3048   0.703   0.810   4.006
 1014TIP3    H2 3049   0.816   0.713   3.980
 1015TIP3   OH2 3050   0.678   5.180   5.149
 1015TIP3    H1 3051   0.740   5.109   5.163
 1015TIP3    H2 3052   0.615   5.144   5.085
 1016TIP3   OH2 3053   3.372   1.031   3.233
 1016TIP3    H1 3054   3.409   1.116   3.257
 1016TIP3    H2 3055   3.369   0.981   3.314
 1017TIP3   OH2 3056   3.366   2.486   0.364
 1017TIP3    H1 3057   3.451   2.529   0.361
 1017TIP3    H2 3058   3.376   2.409   0.307
 1018TIP3   OH2 3059   3.793   1.279   1.116
 1018TIP3    H1 3060   3.875   1.323   1.134
 1018TIP3    H2 3061   3.755   1.262   1.203
 1019TIP3   OH2 3062   5.524   4.581   4.199
 1019TIP3    H1 3063   5.600   4.559   4.253
 1019TIP3    H2 3064   5.550   4.659   4.151
 1020TIP3   OH2 3065   0.812   4.264   1.912
 1020TIP3    H1 3066   0.860   4.345   1.896
 1020TIP3    H2 3067   0.833   4.209   1.837
 1021TIP3   OH2 3068   3.637   1.363   4.692
 1021TIP3    H1 3069   3.588   1.283   4.670
 1021TIP3    H2 3070   3.726   1.345   4.661
 1022TIP3   OH2 3071   5.256   1.956   0.894
 1022TIP3    H1 3072   5.230   2.048   0.905
 1022TIP3    H2 3073   5.352   1.960   0.889
 1023TIP3   OH2 3074   1.107   2.080   5.194
 1023TIP3    H1 3075   1.085   2.116   5.108
 1023TIP3    H2 3076   1.172   2.012   5.176
 1024TIP3   OH2 3077   0.823   4.283   2.799
 1024TIP3    H1 3078   0.760   4.212   2.790
 1024TIP3    H2 3079   0.786   4.340   2.866
 1025TIP3   OH2 3080   1.407   1.189   2.894
 1025TIP3    H1 3081   1.351   1.264   2.877
 1025TIP3    H2 3082   1.490   1.211   2.851
 1026TIP3   OH2 3083   3.837   1.479   2.606
 1026TIP3    H1 3084   3.868   1.389   2.616
 1026TIP3    H2 3085   3.890   1.515   2.534
 1027TIP3   OH2 3086   4.348   1.083   0.711
 1027TIP3    H1 3087   4.288   1.150   0.744
 1027TIP3    H2 3088   4.333   1.007   0.766
 1028TIP3   OH2 3089   0.916   0.017   4.519
 1028TIP3    H1 3090   0.953   0.039   4.604
 1028TIP3    H2 3091   0.822   0.024   4.531
 1029TIP3   OH2 3092   6.080   5.737   3.482
 1029TIP3    H1 3093   6.029   5.803   3.434
 1029TIP3    H2 3094   6.161   5.729   3.433
 1030TIP3   OH2 3095   2.510   4.649   3.533
 1030TIP3    H1 3096   2.513   4.553   3.535
 1030TIP3    H2 3097   2.428   4.669   3.489
 1031TIP3   OH2 3098   4.029   1.863   2.442
 1031TIP3    H1 3099   4.030   1.797   2.512
 1031TIP3    H2 3100   3.939   1.895   2.440
 1032TIP3   OH2 3101   4.709   2.480   3.957
 1032TIP3    H1 3102   4.693   2.448   4.046
 1032TIP3    H2 3103   4.796   2.446   3.934
 1033TIP3   OH2 3104   3.581   0.285   2.856
 1033TIP3    H1 3105   3.550   0.370   2.826
 1033TIP3    H2 3106   3.615   0.302   2.944
 1034TIP3   OH2 3107   3.393   5.098   2.647
 1034TIP3    H1 3108   3.458   5.032   2.625
 1034TIP3    H2 3109   3.437   5.156   2.709
 1035TIP3   OH2 3110   2.544   1.385   2.374
 1035TIP3    H1 3111   2.507   1.395   2.462
 1035TIP3    H2 3112   2.523   1.467   2.330
 1036TIP3   OH2 3113   5.467   3.656   0.465
 1036TIP3    H1 3114   5.518   3.581   0.432
 1036TIP3    H2 3115   5.501   3.670   0.554
 1037TIP3   OH2 3116   2.211   0.713   1.572
 1037TIP3    H1 3117   2.252   0.799   1.571
 1037TIP3    H2 3118   2.146   0.717   1.501
 1038TIP3   OH2 3119  -0.040   1.942   4.362
 1038TIP3    H1 3120   0.019   1.992   4.306
 1038TIP3    H2 3121   0.017   1.898   4.425
 1039TIP3   OH2 3122   6.071   1.424   4.893
 1039TIP3    H1 3123   6.089   1.330   4.898
 1039TIP3    H2 3124   6.156   1.465   4.912
 1040TIP3   OH2 3125   2.898   2.479   1.285
 1040TIP3    H1 3126   2.986   2.459   1.255
 1040TIP3    H2 3127   2.903   2.472   1.381
 1041TIP3   OH2 3128   5.138   2.244   2.936
 1041TIP3    H1 3129   5.177   2.162   2.904
 1041TIP3    H2 3130   5.043   2.229   2.931
 1042TIP3   OH2 3131   3.521   0.040   3.934
 1042TIP3    H1 3132   3.462   0.012   4.005
 1042TIP3    H2 3133   3.596  -0.019   3.940
 1043TIP3   OH2 3134   0.441   3.929   3.641
 1043TIP3    H1 3135   0.374   3.895   3.701
 1043TIP3    H2 3136   0.488   3.852   3.611
 1044TIP3   OH2 3137   3.308   4.927   4.735
 1044TIP3    H1 3138   3.376   4.990   4.711
 1044TIP3    H2 3139   3.300   4.870   4.659
 1045TIP3   OH2 3140   6.140   3.833   1.898
 1045TIP3    H1 3141   6.101   3.904   1.948
 1045TIP3    H2 3142   6.220   3.871   1.862
 1046TIP3   OH2 3143   3.231   5.161   2.271
 1046TIP3    H1 3144   3.232   5.192   2.181
 1046TIP3    H2 3145   3.146   5.118   2.281
 1047TIP3   OH2 3146   2.206   0.458   1.411
 1047TIP3    H1 3147   2.197   0.550   1.435
 1047TIP3    H2 3148   2.123   0.418   1.437
 1048TIP3   OH2 3149   4.586   4.850   2.788
 1048TIP3    H1 3150   4.552   4.843   2.698
 1048TIP3    H2 3151   4.681   4.847   2.777
 1049TIP3   OH2 3152   3.311   0.377   1.557
 1049TIP3    H1 3153   3.233   0.323   1.572
 1049TIP3    H2 3154   3.319   0.382   1.462
 1050TIP3   OH2 3155   3.196   3.602   3.475
 1050TIP3    H1 3156   3.210   3.567   3.563
 1050TIP3    H2 3157   3.177   3.695   3.489
 1051TIP3   OH2 3158   5.475   1.279   3.702
 1051TIP3    H1 3159   5.384   1.250   3.701
 1051TIP3    H2 3160   5.508   1.250   3.788
 1052TIP3   OH2 3161   1.976   1.358   4.757
 1052TIP3    H1 3162   1.935   1.396   4.680
 1052TIP3    H2 3163   1.999   1.269   4.731
 1053TIP3   OH2 3164   2.431   1.744   2.323
 1053TIP3    H1 3165   2.450   1.745   2.229
 1053TIP3    H2 3166   2.336   1.739   2.328
 1054TIP3   OH2 3167   1.699   2.872   1.203
 1054TIP3    H1 3168   1.744   2.903   1.124
 1054TIP3    H2 3169   1.769   2.860   1.267
 1055TIP3   OH2 3170   5.952   3.178   0.293
 1055TIP3    H1 3171   5.869   3.208   0.257
 1055TIP3    H2 3172   6.007   3.162   0.215
 1056TIP3   OH2 3173   1.961   4.285   0.059
 1056TIP3    H1 3174   1.910   4.207   0.039
 1056TIP3    H2 3175   2.036   4.280   0.000
 1057TIP3   OH2 3176   1.850   4.049   0.593
 1057TIP3    H1 3177   1.868   3.955   0.587
 1057TIP3    H2 3178   1.904   4.088   0.524
 1058TIP3   OH2 3179   5.823   3.996   4.751
 1058TIP3    H1 3180   5.872   4.061   4.800
 1058TIP3    H2 3181   5.794   3.932   4.816
 1059TIP3   OH2 3182   3.318   5.441   5.001
 1059TIP3    H1 3183   3.293   5.366   4.946
 1059TIP3    H2 3184   3.410   5.456   4.980
 1060TIP3   OH2 3185   1.018   0.080   4.767
 1060TIP3    H1 3186   0.952   0.130   4.816
 1060TIP3    H2 3187   1.076   0.146   4.730
 1061TIP3   OH2 3188   2.484   1.998   5.183
 1061TIP3    H1 3189   2.442   1.921   5.145
 1061TIP3    H2 3190   2.544   2.029   5.115
 1062TIP3   OH2 3191   1.003   2.672   2.287
 1062TIP3    H1 3192   0.996   2.671   2.383
 1062TIP3    H2 3193   1.097   2.672   2.270
 1063TIP3   OH2 3194   3.275   1.169   2.323
 1063TIP3    H1 3195   3.353   1.152   2.270
 1063TIP3    H2 3196   3.303   1.234   2.388
 1064TIP3   OH2 3197   1.140   3.227   1.295
 1064TIP3    H1 3198   1.067   3.178   1.258
 1064TIP3    H2 3199   1.170   3.283   1.223
 1065TIP3   OH2 3200   4.725   2.979   4.452
 1065TIP3    H1 3201   4.792   2.936   4.505
 1065TIP3    H2 3202   4.753   3.071   4.448
 1066TIP3   OH2 3203   0.026   0.516   0.967
 1066TIP3    H1 3204   0.007   0.571   1.043
 1066TIP3    H2 3205   0.114   0.483   0.982
 1067TIP3   OH2 3206   2.418   5.447   1.757
 1067TIP3    H1 3207   2.399   5.525   1.810
 1067TIP3    H2 3208   2.370   5.460   1.676
 1068TIP3   OH2 3209   2.544   5.246   2.056
 1068TIP3    H1 3210   2.618   5.252   2.116
 1068TIP3    H2 3211   2.491   5.324   2.075
 1069TIP3   OH2 3212   4.452   2.750   3.033
 1069TIP3    H1 3213   4.536   2.765   3.077
 1069TIP3    H2 3214   4.416   2.673   3.076
 1070TIP3   OH2 3215   3.546   3.667   1.231
 1070TIP3    H1 3216   3.482   3.650   1.300
 1070TIP3    H2 3217   3.617   3.605   1.247
 1071TIP3   OH2 3218   4.673   2.945   1.547
 1071TIP3    H1 3219   4.700   2.853   1.551
 1071TIP3    H2 3220   4.752   2.994   1.571
 1072TIP3   OH2 3221   4.716   3.954   1.081
 1072TIP3    H1 3222   4.782   4.012   1.121
 1072TIP3    H2 3223   4.643   3.955   1.143
 1073TIP3   OH2 3224   2.949   3.065   4.066
 1073TIP3    H1 3225   2.928   3.039   3.976
 1073TIP3    H2 3226   2.985   3.153   4.058
 1074TIP3   OH2 3227   2.662   5.928   1.994
 1074TIP3    H1 3228   2.724   5.923   1.921
 1074TIP3    H2 3229   2.699   5.871   2.061
 1075TIP3   OH2 3230   4.131   4.806   3.937
 1075TIP3    H1 3231   4.153   4.714   3.948
 1075TIP3    H2 3232   4.044   4.815   3.975
 1076TIP3   OH2 3233   4.213   4.151   3.957
 1076TIP3    H1 3234   4.258   4.226   3.919
 1076TIP3    H2 3235   4.270   4.122   4.029
 1077TIP3   OH2 3236   3.481   5.737   4.781
 1077TIP3    H1 3237   3.425   5.710   4.708
 1077TIP3    H2 3238   3.450   5.825   4.803
 1078TIP3   OH2 3239   3.035   0.122   0.656
 1078TIP3    H1 3240   2.983   0.081   0.726
 1078TIP3    H2 3241   2.971   0.144   0.589
 1079TIP3   OH2 3242   5.621   0.240   3.578
 1079TIP3    H1 3243   5.618   0.188   3.498
 1079TIP3    H2 3244   5.637   0.176   3.647
 1080TIP3   OH2 3245   1.866   1.441   4.531
 1080TIP3    H1 3246   1.778   1.428   4.494
 1080TIP3    H2 3247   1.925   1.417   4.460
 1081TIP3   OH2 3248   5.131   4.890   3.822
 1081TIP3    H1 3249   5.054   4.922   3.774
 1081TIP3    H2 3250   5.195   4.871   3.754
 1082TIP3   OH2 3251   3.406   1.280   3.347
 1082TIP3    H1 3252   3.355   1.315   3.274
 1082TIP3    H2 3253   3.485   1.335   3.350
 1083TIP3   OH2 3254   5.203   0.052   5.088
 1083TIP3    H1 3255   5.162   0.003   5.158
 1083TIP3    H2 3256   5.257   0.117   5.132
 1084TIP3   OH2 3257   2.973   5.407   4.908
 1084TIP3    H1 3258   2.975   5.498   4.877
 1084TIP3    H2 3259   2.915   5.362   4.846
 1085TIP3   OH2 3260   3.586   0.821   0.641
 1085TIP3    H1 3261   3.611   0.758   0.574
 1085TIP3    H2 3262   3.658   0.885   0.642
 1086TIP3   OH2 3263   1.727   3.589   2.219
 1086TIP3    H1 3264   1.811   3.544   2.221
 1086TIP3    H2 3265   1.670   3.532   2.168
 1087TIP3   OH2 3266   4.225   3.334   4.877
 1087TIP3    H1 3267   4.140   3.350   4.918
 1087TIP3    H2 3268   4.216   3.247   4.837
 1088TIP3   OH2 3269   1.979   4.504   2.028
 1088TIP3    H1 3270   2.036   4.578   2.003
 1088TIP3    H2 3271   2.038   4.429   2.032
 1089TIP3   OH2 3272   2.740   0.403   2.083
 1089TIP3    H1 3273   2.694   0.384   2.165
 1089TIP3    H2 3274   2.830   0.374   2.098
 1090TIP3   OH2 3275   6.319   5.842   0.612
 1090TIP3    H1 3276   6.243   5.794   0.578
 1090TIP3    H2 3277   6.378   5.774   0.644
 1091TIP3   OH2 3278   6.219   1.913   1.537
 1091TIP3    H1 3279   6.171   1.854   1.595
 1091TIP3    H2 3280   6.219   1.868   1.453
 1092TIP3   OH2 3281   2.824   1.844   1.177
 1092TIP3    H1 3282   2.823   1.937   1.156
 1092TIP3    H2 3283   2.777   1.802   1.104
 1093TIP3   OH2 3284   3.104   1.379   1.787
 1093TIP3    H1 3285   3.140   1.375   1.876
 1093TIP3    H2 3286   3.017   1.418   1.798
 1094TIP3   OH2 3287   2.243   0.969   1.462
 1094TIP3    H1 3288   2.335   0.972   1.435
 1094TIP3    H2 3289   2.194   0.974   1.381
 1095TIP3   OH2 3290   6.002   1.982   4.748
 1095TIP3    H1 3291   6.061   1.911   4.773
 1095TIP3    H2 3292   5.922   1.966   4.799
 1096TIP3   OH2 3293   6.072   2.547   2.281
 1096TIP3    H1 3294   6.009   2.504   2.339
 1096TIP3    H2 3295   6.133   2.479   2.255
 1097TIP3   OH2 3296   2.654   4.201   4.832
 1097TIP3    H1 3297   2.578   4.172   4.782
 1097TIP3    H2 3298   2.624   4.201   4.923
 1098TIP3   OH2 3299   0.446   1.458   0.430
 1098TIP3    H1 3300   0.472   1.448   0.338
 1098TIP3    H2 3301   0.448   1.369   0.465
 1099TIP3   OH2 3302   2.047   2.450   4.459
 1099TIP3    H1 3303   1.995   2.484   4.532
 1099TIP3    H2 3304   2.042   2.355   4.470
 1100TIP3   OH2 3305   0.485   1.062   2.093
 1100TIP3    H1 3306   0.549   1.018   2.148
 1100TIP3    H2 3307   0.418   0.995   2.076
 1101TIP3   OH2 3308   2.789   3.004   5.100
 1101TIP3    H1 3309   2.761   3.038   5.185
 1101TIP3    H2 3310   2.796   3.082   5.045
 1102TIP3   OH2 3311   6.179   5.728   1.284
 1102TIP3    H1 3312   6.260   5.697   1.243
 1102TIP3    H2 3313   6.208   5.781   1.358
 1103TIP3   OH2 3314   0.647   1.149   3.747
 1103TIP3    H1 3315   0.700   1.163   3.826
 1103TIP3    H2 3316   0.665   1.227   3.693
 1104TIP3   OH2 3317   3.964   0.217   1.745
 1104TIP3    H1 3318   3.876   0.179   1.749
 1104TIP3    H2 3319   3.986   0.215   1.651
 1105TIP3   OH2 3320   2.981   0.646   1.307
 1105TIP3    H1 3321   3.039   0.673   1.379
 1105TIP3    H2 3322   2.905   0.704   1.315
 1106TIP3   OH2 3323   1.973   4.597   4.184
 1106TIP3    H1 3324   2.019   4.566   4.106
 1106TIP3    H2 3325   2.041   4.603   4.251
 1107TIP3   OH2 3326   1.530   0.895   1.242
 1107TIP3    H1 3327   1.503   0.984   1.218
 1107TIP3    H2 3328   1.469   0.870   1.312
 1108TIP3   OH2 3329   5.481   4.437   0.840
 1108TIP3    H1 3330   5.463   4.349   0.875
 1108TIP3    H2 3331   5.412   4.451   0.774
 1109TIP3   OH2 3332   2.782   5.986   4.416
 1109TIP3    H1 3333   2.855   6.025   4.369
 1109TIP3    H2 3334   2.770   5.900   4.375
 1110TIP3   OH2 3335   6.289   2.201   4.557
 1110TIP3    H1 3336   6.199   2.167   4.561
 1110TIP3    H2 3337   6.315   2.213   4.648
 1111TIP3   OH2 3338   5.346   4.912   0.296
 1111TIP3    H1 3339   5.264   4.931   0.342
 1111TIP3    H2 3340   5.322   4.913   0.203
 1112TIP3   OH2 3341   1.170   5.517   3.418
 1112TIP3    H1 3342   1.122   5.553   3.343
 1112TIP3    H2 3343   1.227   5.451   3.381
 1113TIP3   OH2 3344   2.343   0.242   3.431
 1113TIP3    H1 3345   2.437   0.242   3.449
 1113TIP3    H2 3346   2.320   0.335   3.422
 1114TIP3   OH2 3347   5.775   4.349   1.479
 1114TIP3    H1 3348   5.773   4.372   1.386
 1114TIP3    H2 3349   5.807   4.428   1.522
 1115TIP3   OH2 3350   3.657   5.677   1.221
 1115TIP3    H1 3351   3.735   5.712   1.177
 1115TIP3    H2 3352   3.588   5.740   1.202
 1116TIP3   OH2 3353   0.471   3.063   2.724
 1116TIP3    H1 3354   0.417   2.986   2.709
 1116TIP3    H2 3355   0.560   3.029   2.734
 1117TIP3   OH2 3356   3.751   4.920   2.144
 1117TIP3    H1 3357   3.793   4.835   2.141
 1117TIP3    H2 3358   3.762   4.950   2.235
 1118TIP3   OH2 3359   0.896   3.350   2.970
 1118TIP3    H1 3360   0.912   3.417   2.904
 1118TIP3    H2 3361   0.965   3.363   3.035
 1119TIP3   OH2 3362   1.447   4.817   1.873
 1119TIP3    H1 3363   1.456   4.844   1.964
 1119TIP3    H2 3364   1.440   4.899   1.824
 1120TIP3   OH2 3365   3.750   3.753   1.459
 1120TIP3    H1 3366   3.667   3.797   1.473
 1120TIP3    H2 3367   3.778   3.725   1.546
 1121TIP3   OH2 3368   5.280   5.246   2.142
 1121TIP3    H1 3369   5.193   5.210   2.123
 1121TIP3    H2 3370   5.326   5.174   2.185
 1122TIP3   OH2 3371   1.148   0.395   3.366
 1122TIP3    H1 3372   1.084   0.466   3.359
 1122TIP3    H2 3373   1.129   0.355   3.451
 1123TIP3   OH2 3374   5.772   4.094   0.392
 1123TIP3    H1 3375   5.744   4.127   0.307
 1123TIP3    H2 3376   5.860   4.060   0.377
 1124TIP3   OH2 3377   6.073   5.430   3.078
 1124TIP3    H1 3378   6.057   5.337   3.091
 1124TIP3    H2 3379   6.043   5.471   3.159
 1125TIP3   OH2 3380   5.878   4.779   3.646
 1125TIP3    H1 3381   5.897   4.713   3.579
 1125TIP3    H2 3382   5.905   4.862   3.606
 1126TIP3   OH2 3383   0.425   4.383   0.442
 1126TIP3    H1 3384   0.337   4.347   0.451
 1126TIP3    H2 3385   0.414   4.460   0.388
 1127TIP3   OH2 3386   3.689   1.200   2.856
 1127TIP3    H1 3387   3.714   1.140   2.785
 1127TIP3    H2 3388   3.602   1.171   2.882
 1128TIP3   OH2 3389   1.440   3.141   4.171
 1128TIP3    H1 3390   1.463   3.218   4.120
 1128TIP3    H2 3391   1.411   3.176   4.256
 1129TIP3   OH2 3392   4.902   3.767   3.917
 1129TIP3    H1 3393   4.821   3.725   3.889
 1129TIP3    H2 3394   4.958   3.695   3.945
 1130TIP3   OH2 3395   1.368   4.748   4.706
 1130TIP3    H1 3396   1.288   4.760   4.655
 1130TIP3    H2 3397   1.356   4.803   4.783
 1131TIP3   OH2 3398   0.600   2.839   4.256
 1131TIP3    H1 3399   0.513   2.814   4.225
 1131TIP3    H2 3400   0.584   2.903   4.324
 1132TIP3   OH2 3401   1.341   2.416   3.067
 1132TIP3    H1 3402   1.316   2.492   3.013
 1132TIP3    H2 3403   1.377   2.455   3.147
 1133TIP3   OH2 3404   5.146   0.254   2.894
 1133TIP3    H1 3405   5.052   0.246   2.875
 1133TIP3    H2 3406   5.150   0.251   2.990
 1134TIP3   OH2 3407   5.776   3.693   0.900
 1134TIP3    H1 3408   5.800   3.707   0.992
 1134TIP3    H2 3409   5.857   3.663   0.859
 1135TIP3   OH2 3410   4.825   2.641   2.505
 1135TIP3    H1 3411   4.787   2.583   2.439
 1135TIP3    H2 3412   4.912   2.663   2.471
 1136TIP3   OH2 3413   2.585   1.254   3.512
 1136TIP3    H1 3414   2.671   1.213   3.520
 1136TIP3    H2 3415   2.601   1.334   3.463
 1137TIP3   OH2 3416   0.230   3.158   0.222
 1137TIP3    H1 3417   0.198   3.144   0.312
 1137TIP3    H2 3418   0.241   3.252   0.214
 1138TIP3   OH2 3419   6.300   2.380   0.343
 1138TIP3    H1 3420   6.366   2.352   0.280
 1138TIP3    H2 3421   6.259   2.298   0.373
 1139TIP3   OH2 3422   2.356   4.414   0.093
 1139TIP3    H1 3423   2.431   4.363   0.064
 1139TIP3    H2 3424   2.285   4.350   0.101
 1140TIP3   OH2 3425   0.944   4.092   5.084
 1140TIP3    H1 3426   0.891   4.170   5.065
 1140TIP3    H2 3427   0.881   4.027   5.113
 1141TIP3   OH2 3428   1.528   1.946   2.045
 1141TIP3    H1 3429   1.501   2.025   2.093
 1141TIP3    H2 3430   1.458   1.883   2.060
 1142TIP3   OH2 3431   3.772   0.686   1.509
 1142TIP3    H1 3432   3.804   0.743   1.439
 1142TIP3    H2 3433   3.742   0.746   1.577
 1143TIP3   OH2 3434   5.547   2.852   4.971
 1143TIP3    H1 3435   5.508   2.845   5.058
 1143TIP3    H2 3436   5.474   2.839   4.911
 1144TIP3   OH2 3437   2.454   3.018   0.635
 1144TIP3    H1 3438   2.371   2.982   0.669
 1144TIP3    H2 3439   2.504   3.039   0.714
 1145TIP3   OH2 3440   2.176   2.059   1.923
 1145TIP3    H1 3441   2.117   2.129   1.950
 1145TIP3    H2 3442   2.257   2.076   1.970
 1146TIP3   OH2 3443   0.324   5.582   1.499
 1146TIP3    H1 3444   0.325   5.498   1.544
 1146TIP3    H2 3445   0.286   5.643   1.562
 1147TIP3   OH2 3446   0.830   5.808   4.720
 1147TIP3    H1 3447   0.844   5.783   4.629
 1147TIP3    H2 3448   0.737   5.791   4.736
 1148TIP3   OH2 3449   4.335   2.629   4.953
 1148TIP3    H1 3450   4.299   2.707   4.995
 1148TIP3    H2 3451   4.321   2.643   4.859
 1149TIP3   OH2 3452   5.011   1.468   2.486
 1149TIP3    H1 3453   5.002   1.474   2.391
 1149TIP3    H2 3454   4.941   1.409   2.513
 1150TIP3   OH2 3455   0.694   2.324   4.920
 1150TIP3    H1 3456   0.757   2.314   4.849
 1150TIP3    H2 3457   0.609   2.311   4.878
 1151TIP3   OH2 3458   2.970   1.840   0.355
 1151TIP3    H1 3459   2.967   1.890   0.436
 1151TIP3    H2 3460   2.879   1.819   0.335
 1152TIP3   OH2 3461   4.427   0.756   0.578
 1152TIP3    H1 3462   4.507   0.778   0.626
 1152TIP3    H2 3463   4.429   0.811   0.500
 1153TIP3   OH2 3464   0.314   3.533   0.784
 1153TIP3    H1 3465   0.238   3.475   0.778
 1153TIP3    H2 3466   0.384   3.477   0.820
 1154TIP3   OH2 3467   3.267   5.571   1.405
 1154TIP3    H1 3468   3.351   5.588   1.448
 1154TIP3    H2 3469   3.246   5.653   1.361
 1155TIP3   OH2 3470   0.600   0.377   1.384
 1155TIP3    H1 3471   0.600   0.427   1.301
 1155TIP3    H2 3472   0.541   0.426   1.441
 1156TIP3   OH2 3473   2.537   0.743   2.494
 1156TIP3    H1 3474   2.553   0.820   2.438
 1156TIP3    H2 3475   2.455   0.763   2.538
 1157TIP3   OH2 3476   4.867   4.418   0.993
 1157TIP3    H1 3477   4.860   4.439   1.086
 1157TIP3    H2 3478   4.929   4.481   0.958
 1158TIP3   OH2 3479   6.294   3.173   2.377
 1158TIP3    H1 3480   6.314   3.106   2.442
 1158TIP3    H2 3481   6.259   3.246   2.428
 1159TIP3   OH2 3482   2.126   0.770   0.277
 1159TIP3    H1 3483   2.120   0.700   0.211
 1159TIP3    H2 3484   2.075   0.842   0.240
 1160TIP3   OH2 3485   3.977   2.267   1.615
 1160TIP3    H1 3486   4.064   2.231   1.630
 1160TIP3    H2 3487   3.919   2.215   1.670
 1161TIP3   OH2 3488   5.254   5.914   2.831
 1161TIP3    H1 3489   5.163   5.932   2.856
 1161TIP3    H2 3490   5.306   5.959   2.898
 1162TIP3   OH2 3491   4.227   5.476   2.670
 1162TIP3    H1 3492   4.309   5.525   2.664
 1162TIP3    H2 3493   4.254   5.389   2.702
 1163TIP3   OH2 3494   4.925   0.603   0.386
 1163TIP3    H1 3495   4.909   0.515   0.350
 1163TIP3    H2 3496   4.950   0.588   0.477
 1164TIP3   OH2 3497   2.443   2.341   1.919
 1164TIP3    H1 3498   2.505   2.308   1.984
 1164TIP3    H2 3499   2.375   2.385   1.971
 1165TIP3   OH2 3500   1.612   2.417   4.670
 1165TIP3    H1 3501   1.610   2.492   4.728
 1165TIP3    H2 3502   1.705   2.407   4.646
 1166TIP3   OH2 3503   2.409   2.586   0.603
 1166TIP3    H1 3504   2.433   2.676   0.581
 1166TIP3    H2 3505   2.442   2.573   0.692
 1167TIP3   OH2 3506   0.050   5.892   3.705
 1167TIP3    H1 3507  -0.018   5.860   3.764
 1167TIP3    H2 3508   0.003   5.946   3.641
 1168TIP3   OH2 3509   5.121   2.033   0.242
 1168TIP3    H1 3510   5.176   1.986   0.305
 1168TIP3    H2 3511   5.172   2.111   0.219
 1169TIP3   OH2 3512   4.884   4.749   2.631
 1169TIP3    H1 3513   4.869   4.818   2.566
 1169TIP3    H2 3514   4.969   4.712   2.608
 1170TIP3   OH2 3515   3.511   3.118   3.794
 1170TIP3    H1 3516   3.424   3.090   3.821
 1170TIP3    H2 3517   3.496   3.201   3.748
 1171TIP3   OH2 3518   2.749   0.625   4.964
 1171TIP3    H1 3519   2.727   0.577   4.884
 1171TIP3    H2 3520   2.704   0.708   4.955
 1172TIP3   OH2 3521   3.707   1.416   4.988
 1172TIP3    H1 3522   3.683   1.387   4.899
 1172TIP3    H2 3523   3.735   1.336   5.032
 1173TIP3   OH2 3524   3.974   4.982   1.983
 1173TIP3    H1 3525   4.044   4.969   2.047
 1173TIP3    H2 3526   3.896   4.946   2.025
 1174TIP3   OH2 3527   1.253   5.087   3.435
 1174TIP3    H1 3528   1.236   5.000   3.472
 1174TIP3    H2 3529   1.174   5.138   3.455
 1175TIP3   OH2 3530   3.914   3.197   4.864
 1175TIP3    H1 3531   3.910   3.103   4.847
 1175TIP3    H2 3532   3.958   3.204   4.948
 1176TIP3   OH2 3533   4.890   4.152   0.825
 1176TIP3    H1 3534   4.895   4.247   0.840
 1176TIP3    H2 3535   4.907   4.114   0.911
 1177TIP3   OH2 3536   5.651   5.838   3.669
 1177TIP3    H1 3537   5.728   5.893   3.658
 1177TIP3    H2 3538   5.646   5.788   3.587
 1178TIP3   OH2 3539   2.792   4.032   3.095
 1178TIP3    H1 3540   2.853   4.017   3.167
 1178TIP3    H2 3541   2.717   3.975   3.115
 1179TIP3   OH2 3542   4.224   3.561   0.791
 1179TIP3    H1 3543   4.278   3.604   0.857
 1179TIP3    H2 3544   4.254   3.597   0.708
 1180TIP3   OH2 3545   2.189   4.798   4.932
 1180TIP3    H1 3546   2.252   4.771   4.865
 1180TIP3    H2 3547   2.147   4.716   4.958
 1181TIP3   OH2 3548   5.541   2.942   1.732
 1181TIP3    H1 3549   5.531   2.968   1.640
 1181TIP3    H2 3550   5.470   2.879   1.746
 1182TIP3   OH2 3551   2.824   3.510   0.368
 1182TIP3    H1 3552   2.800   3.422   0.339
 1182TIP3    H2 3553   2.741   3.553   0.386
 1183TIP3   OH2 3554   5.842   3.206   3.953
 1183TIP3    H1 3555   5.801   3.142   4.010
 1183TIP3    H2 3556   5.894   3.154   3.892
 1184TIP3   OH2 3557   4.552   3.068   2.202
 1184TIP3    H1 3558   4.538   3.005   2.273
 1184TIP3    H2 3559   4.603   3.019   2.137
 1185TIP3   OH2 3560   5.249   5.403   3.466
 1185TIP3    H1 3561   5.224   5.421   3.375
 1185TIP3    H2 3562   5.262   5.308   3.469
 1186TIP3   OH2 3563   3.760   1.933   4.356
 1186TIP3    H1 3564   3.775   2.027   4.356
 1186TIP3    H2 3565   3.836   1.897   4.309
 1187TIP3   OH2 3566   1.237   4.541   0.338
 1187TIP3    H1 3567   1.196   4.454   0.330
 1187TIP3    H2 3568   1.294   4.547   0.262
 1188TIP3   OH2 3569   4.145   4.063   4.397
 1188TIP3    H1 3570   4.207   3.992   4.381
 1188TIP3    H2 3571   4.178   4.109   4.474
 1189TIP3   OH2 3572   5.342   0.659   1.438
 1189TIP3    H1 3573   5.395   0.721   1.488
 1189TIP3    H2 3574   5.405   0.605   1.391
 1190TIP3   OH2 3575   0.407   4.639   3.279
 1190TIP3    H1 3576   0.437   4.730   3.271
 1190TIP3    H2 3577   0.362   4.622   3.196
 1191TIP3   OH2 3578   0.367   2.805   4.765
 1191TIP3    H1 3579   0.277   2.773   4.768
 1191TIP3    H2 3580   0.419   2.730   4.737
 1192TIP3   OH2 3581   4.296   5.346   5.182
 1192TIP3    H1 3582   4.203   5.363   5.197
 1192TIP3    H2 3583   4.298   5.287   5.107
 1193TIP3   OH2 3584   4.286   4.792   1.906
 1193TIP3    H1 3585   4.200   4.760   1.934
 1193TIP3    H2 3586   4.307   4.739   1.829
 1194TIP3   OH2 3587   5.814   1.903   0.631
 1194TIP3    H1 3588   5.808   1.820   0.678
 1194TIP3    H2 3589   5.901   1.936   0.650
 1195TIP3   OH2 3590   0.981   0.153   0.204
 1195TIP3    H1 3591   1.027   0.237   0.212
 1195TIP3    H2 3592   0.898   0.167   0.251
 1196TIP3   OH2 3593   5.942   4.599   4.962
 1196TIP3    H1 3594   6.023   4.591   4.912
 1196TIP3    H2 3595   5.969   4.595   5.053
 1197TIP3   OH2 3596   3.701   2.097   3.058
 1197TIP3    H1 3597   3.686   2.168   2.995
 1197TIP3    H2 3598   3.793   2.072   3.044
 1198TIP3   OH2 3599   5.588   5.682   3.433
 1198TIP3    H1 3600   5.497   5.680   3.404
 1198TIP3    H2 3601   5.639   5.668   3.353
 1199TIP3   OH2 3602   2.012   2.806   0.494
 1199TIP3    H1 3603   2.033   2.725   0.449
 1199TIP3    H2 3604   1.924   2.792   0.530
 1200TIP3   OH2 3605   2.211   0.736   2.472
 1200TIP3    H1 3606   2.179   0.744   2.562
 1200TIP3    H2 3607   2.214   0.642   2.455
 1201TIP3   OH2 3608   2.444   2.866   2.544
 1201TIP3    H1 3609   2.366   2.896   2.496
 1201TIP3    H2 3610   2.468   2.784   2.500
 1202TIP3   OH2 3611   0.166   5.260   1.904
 1202TIP3    H1 3612   0.108   5.273   1.980
 1202TIP3    H2 3613   0.174   5.347   1.864
 1203TIP3   OH2 3614   1.550   4.975   0.495
 1203TIP3    H1 3615   1.493   4.911   0.538
 1203TIP3    H2 3616   1.590   5.024   0.567
 1204TIP3   OH2 3617   5.551   0.196   3.024
 1204TIP3    H1 3618   5.518   0.158   3.106
 1204TIP3    H2 3619   5.541   0.291   3.036
 1205TIP3   OH2 3620   3.451   1.040   5.016
 1205TIP3    H1 3621   3.380   1.084   4.971
 1205TIP3    H2 3622   3.475   1.099   5.087
 1206TIP3   OH2 3623   5.462   4.153   3.754
 1206TIP3    H1 3624   5.425   4.141   3.667
 1206TIP3    H2 3625   5.470   4.248   3.764
 1207TIP3   OH2 3626   2.091   5.810   0.890
 1207TIP3    H1 3627   2.180   5.817   0.926
 1207TIP3    H2 3628   2.090   5.873   0.818
 1208TIP3   OH2 3629   3.362   2.623   3.723
 1208TIP3    H1 3630   3.414   2.637   3.802
 1208TIP3    H2 3631   3.382   2.533   3.696
 1209TIP3   OH2 3632   2.841   4.050   2.019
 1209TIP3    H1 3633   2.812   4.038   1.928
 1209TIP3    H2 3634   2.776   4.003   2.071
 1210TIP3   OH2 3635   0.574   1.262   4.048
 1210TIP3    H1 3636   0.571   1.254   4.143
 1210TIP3    H2 3637   0.625   1.341   4.032
 1211TIP3   OH2 3638   2.797   3.056   0.396
 1211TIP3    H1 3639   2.773   3.013   0.478
 1211TIP3    H2 3640   2.876   3.106   0.416
 1212TIP3   OH2 3641   1.916   2.821   4.582
 1212TIP3    H1 3642   1.922   2.725   4.588
 1212TIP3    H2 3643   1.879   2.848   4.666
 1213TIP3   OH2 3644   4.394   2.092   3.051
 1213TIP3    H1 3645   4.438   2.054   3.128
 1213TIP3    H2 3646   4.301   2.080   3.069
 1214TIP3   OH2 3647   3.460   5.697   2.595
 1214TIP3    H1 3648   3.419   5.781   2.573
 1214TIP3    H2 3649   3.549   5.721   2.622
 1215TIP3   OH2 3650   1.556   2.229   3.000
 1215TIP3    H1 3651   1.468   2.258   3.024
 1215TIP3    H2 3652   1.577   2.278   2.921
 1216TIP3   OH2 3653   1.218   3.898   4.327
 1216TIP3    H1 3654   1.159   3.835   4.368
 1216TIP3    H2 3655   1.303   3.881   4.369
 1217TIP3   OH2 3656   4.951   1.815   3.616
 1217TIP3    H1 3657   4.991   1.748   3.672
 1217TIP3    H2 3658   5.022   1.875   3.595
 1218TIP3   OH2 3659   3.371   1.509   1.860
 1218TIP3    H1 3660   3.304   1.578   1.857
 1218TIP3    H2 3661   3.325   1.432   1.894
 1219TIP3   OH2 3662   1.602   2.961   4.619
 1219TIP3    H1 3663   1.631   2.988   4.533
 1219TIP3    H2 3664   1.538   3.027   4.645
 1220TIP3   OH2 3665   0.160   1.525   4.642
 1220TIP3    H1 3666   0.096   1.460   4.615
 1220TIP3    H2 3667   0.245   1.482   4.627
 1221TIP3   OH2 3668   1.064   0.513   2.102
 1221TIP3    H1 3669   0.980   0.498   2.059
 1221TIP3    H2 3670   1.111   0.430   2.094
 1222TIP3   OH2 3671   2.852   5.678   1.373
 1222TIP3    H1 3672   2.760   5.699   1.355
 1222TIP3    H2 3673   2.872   5.606   1.313
 1223TIP3   OH2 3674   4.889   2.102   1.718
 1223TIP3    H1 3675   4.904   2.033   1.782
 1223TIP3    H2 3676   4.935   2.072   1.639
 1224TIP3   OH2 3677   3.727   3.831   4.803
 1224TIP3    H1 3678   3.704   3.923   4.794
 1224TIP3    H2 3679   3.819   3.826   4.777
 1225TIP3   OH2 3680   0.648   1.823   2.710
 1225TIP3    H1 3681   0.688   1.830   2.623
 1225TIP3    H2 3682   0.703   1.878   2.766
 1226TIP3   OH2 3683   5.885   0.991   3.201
 1226TIP3    H1 3684   5.867   1.004   3.108
 1226TIP3    H2 3685   5.874   1.079   3.239
 1227TIP3   OH2 3686   3.606   2.037   1.681
 1227TIP3    H1 3687   3.628   2.050   1.589
 1227TIP3    H2 3688   3.685   2.063   1.728
 1228TIP3   OH2 3689   4.609   3.387   3.841
 1228TIP3    H1 3690   4.674   3.451   3.814
 1228TIP3    H2 3691   4.529   3.413   3.797
 1229TIP3   OH2 3692   1.471   1.703   3.182
 1229TIP3    H1 3693   1.416   1.746   3.117
 1229TIP3    H2 3694   1.434   1.615   3.190
 1230TIP3   OH2 3695   3.967   4.528   4.634
 1230TIP3    H1 3696   3.964   4.573   4.549
 1230TIP3    H2 3697   4.054   4.547   4.669
 1231TIP3   OH2 3698   4.512   2.096   2.807
 1231TIP3    H1 3699   4.582   2.032   2.821
 1231TIP3    H2 3700   4.469   2.105   2.892
 1232TIP3   OH2 3701   1.916   4.965   2.734
 1232TIP3    H1 3702   1.909   4.883   2.783
 1232TIP3    H2 3703   2.010   4.981   2.729
 1233TIP3   OH2 3704   3.413   3.476   0.262
 1233TIP3    H1 3705   3.453   3.446   0.181
 1233TIP3    H2 3706   3.436   3.568   0.268
 1234TIP3   OH2 3707   4.477   4.319   1.511
 1234TIP3    H1 3708   4.551   4.314   1.451
 1234TIP3    H2 3709   4.484   4.406   1.551
 1235TIP3   OH2 3710   0.043   0.621   4.103
 1235TIP3    H1 3711   0.087   0.542   4.072
 1235TIP3    H2 3712   0.099   0.692   4.073
 1236TIP3   OH2 3713   0.169   1.557   1.099
 1236TIP3    H1 3714   0.230   1.490   1.069
 1236TIP3    H2 3715   0.083   1.526   1.070
 1237TIP3   OH2 3716   0.370   1.864   0.364
 1237TIP3    H1 3717   0.335   1.858   0.276
 1237TIP3    H2 3718   0.303   1.824   0.420
 1238TIP3   OH2 3719   4.647   1.016   3.138
 1238TIP3    H1 3720   4.641   1.095   3.084
 1238TIP3    H2 3721   4.572   1.022   3.198
 1239TIP3   OH2 3722   3.574   1.623   2.064
 1239TIP3    H1 3723   3.532   1.554   2.116
 1239TIP3    H2 3724   3.614   1.576   1.990
 1240TIP3   OH2 3725   4.392   0.590   2.192
 1240TIP3    H1 3726   4.333   0.514   2.187
 1240TIP3    H2 3727   4.466   0.567   2.135
 1241TIP3   OH2 3728   6.258   2.114   3.536
 1241TIP3    H1 3729   6.212   2.031   3.524
 1241TIP3    H2 3730   6.280   2.143   3.447
 1242TIP3   OH2 3731   0.787   0.133   2.557
 1242TIP3    H1 3732   0.882   0.140   2.562
 1242TIP3    H2 3733   0.764   0.181   2.477
 1243TIP3   OH2 3734   4.557   5.556   0.278
 1243TIP3    H1 3735   4.538   5.481   0.221
 1243TIP3    H2 3736   4.650   5.575   0.262
 1244TIP3   OH2 3737   1.817   3.357   0.409
 1244TIP3    H1 3738   1.752   3.424   0.429
 1244TIP3    H2 3739   1.821   3.356   0.313
 1245TIP3   OH2 3740   5.317   5.332   4.703
 1245TIP3    H1 3741   5.409   5.329   4.678
 1245TIP3    H2 3742   5.310   5.409   4.760
 1246TIP3   OH2 3743   1.436   3.663   0.370
 1246TIP3    H1 3744   1.392   3.713   0.439
 1246TIP3    H2 3745   1.380   3.586   0.357
 1247TIP3   OH2 3746   2.051   2.202   3.865
 1247TIP3    H1 3747   1.959   2.190   3.840
 1247TIP3    H2 3748   2.048   2.227   3.958
 1248TIP3   OH2 3749   4.449   4.408   2.075
 1248TIP3    H1 3750   4.514   4.464   2.031
 1248TIP3    H2 3751   4.368   4.459   2.072
 1249TIP3   OH2 3752   2.083   3.276   0.212
 1249TIP3    H1 3753   2.020   3.241   0.276
 1249TIP3    H2 3754   2.038   3.268   0.128
 1250TIP3   OH2 3755   3.000   2.162   1.402
 1250TIP3    H1 3756   2.916   2.136   1.440
 1250TIP3    H2 3757   3.047   2.204   1.474
 1251TIP3   OH2 3758   2.906   5.560   2.461
 1251TIP3    H1 3759   2.976   5.618   2.492
 1251TIP3    H2 3760   2.865   5.527   2.541
 1252TIP3   OH2 3761   1.929   0.963   1.506
 1252TIP3    H1 3762   1.941   0.953   1.600
 1252TIP3    H2 3763   1.966   1.049   1.486
 1253TIP3   OH2 3764   2.991   1.913   1.685
 1253TIP3    H1 3765   2.969   1.999   1.723
 1253TIP3    H2 3766   2.921   1.855   1.716
 1254TIP3   OH2 3767   6.298   1.122   0.820
 1254TIP3    H1 3768   6.352   1.043   0.827
 1254TIP3    H2 3769   6.352   1.183   0.769
 1255TIP3   OH2 3770   0.438   0.994   1.310
 1255TIP3    H1 3771   0.466   0.990   1.218
 1255TIP3    H2 3772   0.343   0.982   1.305
 1256TIP3   OH2 3773   1.367   0.724   4.052
 1256TIP3    H1 3774   1.379   0.630   4.071
 1256TIP3    H2 3775   1.346   0.727   3.959
 1257TIP3   OH2 3776   1.749   3.616   3.182
 1257TIP3    H1 3777   1.738   3.617   3.087
 1257TIP3    H2 3778   1.736   3.707   3.209
 1258TIP3   OH2 3779   3.225   0.137   2.452
 1258TIP3    H1 3780   3.131   0.150   2.440
 1258TIP3    H2 3781   3.265   0.170   2.372
 1259TIP3   OH2 3782   3.336   5.852   3.235
 1259TIP3    H1 3783   3.410   5.798   3.263
 1259TIP3    H2 3784   3.347   5.861   3.141
 1260TIP3   OH2 3785   1.653   2.606   4.868
 1260TIP3    H1 3786   1.601   2.663   4.925
 1260TIP3    H2 3787   1.715   2.564   4.928
 1261TIP3   OH2 3788   4.524   5.441   2.077
 1261TIP3    H1 3789   4.540   5.438   2.172
 1261TIP3    H2 3790   4.600   5.397   2.039
 1262TIP3   OH2 3791   5.009   0.675   0.823
 1262TIP3    H1 3792   4.922   0.686   0.861
 1262TIP3    H2 3793   4.995   0.620   0.745
 1263TIP3   OH2 3794   6.040   0.877   2.595
 1263TIP3    H1 3795   5.977   0.898   2.526
 1263TIP3    H2 3796   6.112   0.939   2.582
 1264TIP3   OH2 3797   5.201   5.165   0.094
 1264TIP3    H1 3798   5.127   5.132   0.145
 1264TIP3    H2 3799   5.191   5.125   0.007
 1265TIP3   OH2 3800   0.084   3.211   3.706
 1265TIP3    H1 3801   0.172   3.246   3.716
 1265TIP3    H2 3802   0.094   3.116   3.714
 1266TIP3   OH2 3803   5.860   1.155   2.929
 1266TIP3    H1 3804   5.942   1.108   2.913
 1266TIP3    H2 3805   5.791   1.090   2.911
 1267TIP3   OH2 3806   1.136   4.237   2.187
 1267TIP3    H1 3807   1.108   4.147   2.167
 1267TIP3    H2 3808   1.121   4.247   2.280
 1268TIP3   OH2 3809   4.650   4.447   0.809
 1268TIP3    H1 3810   4.586   4.516   0.790
 1268TIP3    H2 3811   4.713   4.489   0.867
 1269TIP3   OH2 3812   6.341   4.016   1.795
 1269TIP3    H1 3813   6.406   4.083   1.775
 1269TIP3    H2 3814   6.263   4.042   1.746
 1270TIP3   OH2 3815   3.952   5.692   1.559
 1270TIP3    H1 3816   4.041   5.669   1.588
 1270TIP3    H2 3817   3.912   5.608   1.538
 1271TIP3   OH2 3818   1.960   0.564   4.050
 1271TIP3    H1 3819   1.979   0.549   4.143
 1271TIP3    H2 3820   1.865   0.552   4.043
 1272TIP3   OH2 3821   4.230   1.809   3.318
 1272TIP3    H1 3822   4.229   1.727   3.368
 1272TIP3    H2 3823   4.143   1.847   3.333
 1273TIP3   OH2 3824   4.151   5.800   2.827
 1273TIP3    H1 3825   4.229   5.747   2.841
 1273TIP3    H2 3826   4.154   5.823   2.734
 1274TIP3   OH2 3827   0.316   1.277   2.083
 1274TIP3    H1 3828   0.399   1.230   2.084
 1274TIP3    H2 3829   0.299   1.297   2.175
 1275TIP3   OH2 3830   1.081   0.283   4.304
 1275TIP3    H1 3831   1.158   0.308   4.355
 1275TIP3    H2 3832   1.007   0.302   4.362
 1276TIP3   OH2 3833   5.545   3.400   4.220
 1276TIP3    H1 3834   5.566   3.486   4.257
 1276TIP3    H2 3835   5.532   3.343   4.296
 1277TIP3   OH2 3836   1.550   1.075   4.024
 1277TIP3    H1 3837   1.600   1.147   3.986
 1277TIP3    H2 3838   1.535   1.015   3.952
 1278TIP3   OH2 3839   3.938   1.355   3.392
 1278TIP3    H1 3840   3.846   1.351   3.368
 1278TIP3    H2 3841   3.938   1.369   3.486
 1279TIP3   OH2 3842   5.189   4.084   0.476
 1279TIP3    H1 3843   5.223   4.004   0.435
 1279TIP3    H2 3844   5.114   4.054   0.528
 1280TIP3   OH2 3845   2.005   5.618   0.707
 1280TIP3    H1 3846   2.002   5.661   0.792
 1280TIP3    H2 3847   1.959   5.678   0.648
 1281TIP3   OH2 3848   0.619   1.312   0.592
 1281TIP3    H1 3849   0.664   1.333   0.510
 1281TIP3    H2 3850   0.666   1.236   0.626
 1282TIP3   OH2 3851   1.601   3.366   3.072
 1282TIP3    H1 3852   1.588   3.415   3.153
 1282TIP3    H2 3853   1.695   3.351   3.067
 1283TIP3   OH2 3854   0.075   1.997   3.799
 1283TIP3    H1 3855   0.139   2.021   3.732
 1283TIP3    H2 3856   0.005   2.062   3.790
 1284TIP3   OH2 3857   6.021   5.911   1.606
 1284TIP3    H1 3858   5.958   5.982   1.594
 1284TIP3    H2 3859   6.095   5.934   1.549
 1285TIP3   OH2 3860   4.754   3.742   0.615
 1285TIP3    H1 3861   4.837   3.765   0.656
 1285TIP3    H2 3862   4.700   3.708   0.687
 1286TIP3   OH2 3863   1.603   4.538   4.891
 1286TIP3    H1 3864   1.648   4.463   4.852
 1286TIP3    H2 3865   1.616   4.609   4.829
 1287TIP3   OH2 3866   4.192   0.128   3.061
 1287TIP3    H1 3867   4.236   0.066   3.119
 1287TIP3    H2 3868   4.262   0.174   3.015
 1288TIP3   OH2 3869   6.137   1.276   3.584
 1288TIP3    H1 3870   6.092   1.360   3.591
 1288TIP3    H2 3871   6.221   1.296   3.542
 1289TIP3   OH2 3872   3.112   5.404   3.475
 1289TIP3    H1 3873   3.152   5.436   3.394
 1289TIP3    H2 3874   3.135   5.470   3.540
 1290TIP3   OH2 3875   3.491   1.804   0.082
 1290TIP3    H1 3876   3.398   1.786   0.095
 1290TIP3    H2 3877   3.502   1.804  -0.013
 1291TIP3   OH2 3878   4.936   4.534   3.401
 1291TIP3    H1 3879   4.906   4.511   3.313
 1291TIP3    H2 3880   5.007   4.473   3.419
 1292TIP3   OH2 3881   3.795   0.386   0.151
 1292TIP3    H1 3882   3.755   0.403   0.237
 1292TIP3    H2 3883   3.742   0.314   0.115
 1293TIP3   OH2 3884   3.783   5.373   1.970
 1293TIP3    H1 3885   3.811   5.323   1.893
 1293TIP3    H2 3886   3.687   5.372   1.966
 1294TIP3   OH2 3887   4.238   5.212   2.400
 1294TIP3    H1 3888   4.245   5.299   2.360
 1294TIP3    H2 3889   4.324   5.198   2.440
 1295TIP3   OH2 3890   1.170   4.149   1.404
 1295TIP3    H1 3891   1.257   4.115   1.380
 1295TIP3    H2 3892   1.118   4.070   1.419
 1296TIP3   OH2 3893   0.570   4.983   1.909
 1296TIP3    H1 3894   0.588   4.889   1.905
 1296TIP3    H2 3895   0.487   4.994   1.862
 1297TIP3   OH2 3896   1.344   2.842   2.261
 1297TIP3    H1 3897   1.430   2.854   2.300
 1297TIP3    H2 3898   1.348   2.755   2.220
 1298TIP3   OH2 3899   3.540   4.938   1.112
 1298TIP3    H1 3900   3.486   5.013   1.138
 1298TIP3    H2 3901   3.610   4.976   1.060
 1299TIP3   OH2 3902   6.189   3.710   1.333
 1299TIP3    H1 3903   6.221   3.673   1.251
 1299TIP3    H2 3904   6.164   3.633   1.385
 1300TIP3   OH2 3905   3.153   5.625   1.075
 1300TIP3    H1 3906   3.094   5.677   1.020
 1300TIP3    H2 3907   3.150   5.537   1.037
 1301TIP3   OH2 3908   0.591   1.747   3.974
 1301TIP3    H1 3909   0.518   1.793   3.932
 1301TIP3    H2 3910   0.617   1.681   3.910
 1302TIP3   OH2 3911   4.704   3.110   4.861
 1302TIP3    H1 3912   4.636   3.043   4.848
 1302TIP3    H2 3913   4.755   3.078   4.936
 1303TIP3   OH2 3914   1.736   1.493   3.455
 1303TIP3    H1 3915   1.654   1.538   3.475
 1303TIP3    H2 3916   1.717   1.400   3.467
 1304TIP3   OH2 3917   3.001   3.757   4.094
 1304TIP3    H1 3918   3.026   3.848   4.108
 1304TIP3    H2 3919   3.015   3.743   4.000
 1305TIP3   OH2 3920   3.281   0.933   2.816
 1305TIP3    H1 3921   3.230   0.860   2.850
 1305TIP3    H2 3922   3.228   0.968   2.744
 1306TIP3   OH2 3923   6.160   3.689   4.905
 1306TIP3    H1 3924   6.155   3.593   4.895
 1306TIP3    H2 3925   6.223   3.717   4.839
 1307TIP3   OH2 3926   2.919   1.433   2.571
 1307TIP3    H1 3927   2.878   1.380   2.639
 1307TIP3    H2 3928   2.921   1.376   2.494
 1308TIP3   OH2 3929   1.814   4.806   1.496
 1308TIP3    H1 3930   1.901   4.772   1.518
 1308TIP3    H2 3931   1.753   4.738   1.524
 1309TIP3   OH2 3932   1.328   5.663   1.612
 1309TIP3    H1 3933   1.273   5.599   1.568
 1309TIP3    H2 3934   1.303   5.659   1.704
 1310TIP3   OH2 3935   6.057   4.036   0.447
 1310TIP3    H1 3936   6.066   4.108   0.384
 1310TIP3    H2 3937   6.145   3.999   0.454
 1311TIP3   OH2 3938   1.590   1.218   4.819
 1311TIP3    H1 3939   1.499   1.210   4.789
 1311TIP3    H2 3940   1.637   1.255   4.744
 1312TIP3   OH2 3941   2.948   0.959   1.533
 1312TIP3    H1 3942   3.011   0.894   1.562
 1312TIP3    H2 3943   2.986   1.043   1.558
 1313TIP3   OH2 3944   4.942   3.012   1.878
 1313TIP3    H1 3945   4.876   3.007   1.947
 1313TIP3    H2 3946   4.901   3.064   1.809
 1314TIP3   OH2 3947   0.917   1.466   3.645
 1314TIP3    H1 3948   0.940   1.533   3.710
 1314TIP3    H2 3949   0.976   1.393   3.665
 1315TIP3   OH2 3950   3.475   3.680   0.622
 1315TIP3    H1 3951   3.507   3.592   0.601
 1315TIP3    H2 3952   3.414   3.700   0.552
 1316TIP3   OH2 3953   3.151   4.386   0.113
 1316TIP3    H1 3954   3.185   4.463   0.066
 1316TIP3    H2 3955   3.189   4.394   0.200
 1317TIP3   OH2 3956   2.264   0.637   4.578
 1317TIP3    H1 3957   2.347   0.672   4.613
 1317TIP3    H2 3958   2.285   0.613   4.488
 1318TIP3   OH2 3959   4.029   5.718   2.210
 1318TIP3    H1 3960   3.949   5.722   2.262
 1318TIP3    H2 3961   4.001   5.685   2.125
 1319TIP3   OH2 3962   5.692   2.160   4.176
 1319TIP3    H1 3963   5.730   2.075   4.154
 1319TIP3    H2 3964   5.735   2.221   4.116
 1320TIP3   OH2 3965   3.103   0.610   4.513
 1320TIP3    H1 3966   3.065   0.685   4.558
 1320TIP3    H2 3967   3.076   0.535   4.566
 1321TIP3   OH2 3968   2.780   5.834   4.157
 1321TIP3    H1 3969   2.814   5.752   4.194
 1321TIP3    H2 3970   2.858   5.881   4.127
 1322TIP3   OH2 3971   4.605   2.175   0.402
 1322TIP3    H1 3972   4.700   2.174   0.387
 1322TIP3    H2 3973   4.572   2.243   0.343
 1323TIP3   OH2 3974   4.522   3.412   0.805
 1323TIP3    H1 3975   4.528   3.449   0.717
 1323TIP3    H2 3976   4.611   3.415   0.839
 1324TIP3   OH2 3977   2.710   5.121   1.837
 1324TIP3    H1 3978   2.733   5.109   1.929
 1324TIP3    H2 3979   2.644   5.190   1.837
 1325TIP3   OH2 3980   1.063   3.763   1.929
 1325TIP3    H1 3981   1.104   3.677   1.934
 1325TIP3    H2 3982   1.030   3.768   1.839
 1326TIP3   OH2 3983   4.526   2.114   4.511
 1326TIP3    H1 3984   4.568   2.176   4.571
 1326TIP3    H2 3985   4.475   2.056   4.568
 1327TIP3   OH2 3986   0.887   1.039   2.336
 1327TIP3    H1 3987   0.969   1.028   2.383
 1327TIP3    H2 3988   0.838   1.102   2.387
 1328TIP3   OH2 3989   0.425   1.788   3.081
 1328TIP3    H1 3990   0.487   1.858   3.098
 1328TIP3    H2 3991   0.428   1.774   2.987
 1329TIP3   OH2 3992   2.212   3.704   1.308
 1329TIP3    H1 3993   2.162   3.785   1.316
 1329TIP3    H2 3994   2.269   3.717   1.232
 1330TIP3   OH2 3995   2.903   5.587   3.262
 1330TIP3    H1 3996   2.872   5.541   3.340
 1330TIP3    H2 3997   2.995   5.562   3.255
 1331TIP3   OH2 3998   5.458   3.469   1.656
 1331TIP3    H1 3999   5.512   3.497   1.730
 1331TIP3    H2 4000   5.520   3.425   1.597
 1332TIP3   OH2 4001   4.306   4.594   1.691
 1332TIP3    H1 4002   4.383   4.618   1.640
 1332TIP3    H2 4003   4.331   4.513   1.735
 1333TIP3   OH2 4004   2.345   5.770   1.576
 1333TIP3    H1 4005   2.291   5.770   1.497
 1333TIP3    H2 4006   2.293   5.724   1.641
 1334TIP3   OH2 4007   2.934   1.504   4.751
 1334TIP3    H1 4008   2.925   1.455   4.832
 1334TIP3    H2 4009   3.026   1.491   4.726
 1335TIP3   OH2 4010   5.409   1.395   2.810
 1335TIP3    H1 4011   5.427   1.428   2.899
 1335TIP3    H2 4012   5.343   1.455   2.775
 1336TIP3   OH2 4013   3.056   4.661   3.500
 1336TIP3    H1 4014   2.978   4.612   3.472
 1336TIP3    H2 4015   3.023   4.749   3.519
 1337TIP3   OH2 4016   2.985   1.136   2.928
 1337TIP3    H1 4017   2.961   1.048   2.897
 1337TIP3    H2 4018   3.024   1.122   3.014
 1338TIP3   OH2 4019   0.312   0.490   4.319
 1338TIP3    H1 4020   0.364   0.502   4.399
 1338TIP3    H2 4021   0.368   0.524   4.249
 1339TIP3   OH2 4022   2.034   0.727   1.379
 1339TIP3    H1 4023   2.016   0.657   1.316
 1339TIP3    H2 4024   2.035   0.807   1.326
 1340TIP3   OH2 4025   2.550   5.794   4.554
 1340TIP3    H1 4026   2.496   5.808   4.632
 1340TIP3    H2 4027   2.609   5.869   4.552
 1341TIP3   OH2 4028   6.021   2.481   2.567
 1341TIP3    H1 4029   6.108   2.477   2.608
 1341TIP3    H2 4030   5.973   2.409   2.608
 1342TIP3   OH2 4031   5.603   1.456   2.465
 1342TIP3    H1 4032   5.632   1.384   2.521
 1342TIP3    H2 4033   5.508   1.445   2.460
 1343TIP3   OH2 4034   5.636   0.384   0.346
 1343TIP3    H1 4035   5.730   0.393   0.329
 1343TIP3    H2 4036   5.618   0.448   0.415
 1344TIP3   OH2 4037   0.390   1.970   4.248
 1344TIP3    H1 4038   0.325   2.031   4.213
 1344TIP3    H2 4039   0.466   2.024   4.268
 1345TIP3   OH2 4040   2.217   1.445   3.150
 1345TIP3    H1 4041   2.155   1.452   3.077
 1345TIP3    H2 4042   2.254   1.357   3.142
 1346TIP3   OH2 4043   6.192   1.686   1.047
 1346TIP3    H1 4044   6.225   1.599   1.024
 1346TIP3    H2 4045   6.097   1.675   1.048
 1347TIP3   OH2 4046   2.292   3.678   4.609
 1347TIP3    H1 4047   2.385   3.658   4.610
 1347TIP3    H2 4048   2.255   3.623   4.679
 1348TIP3   OH2 4049   5.405   4.093   1.505
 1348TIP3    H1 4050   5.487   4.086   1.456
 1348TIP3    H2 4051   5.403   4.015   1.561
 1349TIP3   OH2 4052   3.931   4.643   3.718
 1349TIP3    H1 4053   4.027   4.643   3.726
 1349TIP3    H2 4054   3.900   4.668   3.805
 1350TIP3   OH2 4055   3.027   3.488   2.328
 1350TIP3    H1 4056   3.014   3.581   2.347
 1350TIP3    H2 4057   3.063   3.452   2.410
 1351TIP3   OH2 4058   5.893   2.587   4.743
 1351TIP3    H1 4059   5.864   2.639   4.668
 1351TIP3    H2 4060   5.812   2.554   4.782
 1352TIP3   OH2 4061   5.447   4.457   1.209
 1352TIP3    H1 4062   5.459   4.532   1.267
 1352TIP3    H2 4063   5.504   4.475   1.134
 1353TIP3   OH2 4064   3.801   5.576   3.639
 1353TIP3    H1 4065   3.861   5.603   3.708
 1353TIP3    H2 4066   3.803   5.481   3.640
 1354TIP3   OH2 4067   2.399   4.547   2.904
 1354TIP3    H1 4068   2.338   4.621   2.909
 1354TIP3    H2 4069   2.468   4.569   2.967
 1355TIP3   OH2 4070   2.004   5.154   0.102
 1355TIP3    H1 4071   2.022   5.121   0.189
 1355TIP3    H2 4072   2.065   5.227   0.090
 1356TIP3   OH2 4073   1.434   4.064   2.047
 1356TIP3    H1 4074   1.474   4.151   2.035
 1356TIP3    H2 4075   1.474   4.030   2.127
 1357TIP3   OH2 4076   3.775   0.412   0.846
 1357TIP3    H1 4077   3.688   0.372   0.845
 1357TIP3    H2 4078   3.777   0.465   0.925
 1358TIP3   OH2 4079   3.700   1.529   2.834
 1358TIP3    H1 4080   3.716   1.622   2.851
 1358TIP3    H2 4081   3.750   1.510   2.755
 1359TIP3   OH2 4082   4.497   2.453   1.068
 1359TIP3    H1 4083   4.421   2.407   1.032
 1359TIP3    H2 4084   4.507   2.530   1.013
 1360TIP3   OH2 4085   0.552   2.293   0.106
 1360TIP3    H1 4086   0.523   2.206   0.079
 1360TIP3    H2 4087   0.487   2.353   0.070
 1361TIP3   OH2 4088   2.752   5.240   0.630
 1361TIP3    H1 4089   2.735   5.226   0.537
 1361TIP3    H2 4090   2.747   5.335   0.642
 1362TIP3   OH2 4091   0.242   4.273   2.589
 1362TIP3    H1 4092   0.211   4.244   2.674
 1362TIP3    H2 4093   0.184   4.230   2.526
 1363TIP3   OH2 4094   5.702   5.536   1.553
 1363TIP3    H1 4095   5.772   5.601   1.551
 1363TIP3    H2 4096   5.686   5.521   1.646
 1364TIP3   OH2 4097   4.908   4.337   2.662
 1364TIP3    H1 4098   4.839   4.341   2.595
 1364TIP3    H2 4099   4.885   4.406   2.724
 1365TIP3   OH2 4100   4.654   3.264   4.203
 1365TIP3    H1 4101   4.576   3.290   4.252
 1365TIP3    H2 4102   4.622   3.199   4.141
 1366TIP3   OH2 4103   3.278   2.797   2.560
 1366TIP3    H1 4104   3.343   2.802   2.490
 1366TIP3    H2 4105   3.235   2.882   2.559
 1367TIP3   OH2 4106   0.713   2.870   3.480
 1367TIP3    H1 4107   0.652   2.902   3.414
 1367TIP3    H2 4108   0.776   2.816   3.431
 1368TIP3   OH2 4109   3.110   0.836   3.562
 1368TIP3    H1 4110   3.196   0.860   3.528
 1368TIP3    H2 4111   3.106   0.741   3.554
 1369TIP3   OH2 4112   2.821   4.238   1.291
 1369TIP3    H1 4113   2.831   4.306   1.224
 1369TIP3    H2 4114   2.749   4.268   1.346
 1370TIP3   OH2 4115   2.071   2.458   3.766
 1370TIP3    H1 4116   2.050   2.364   3.773
 1370TIP3    H2 4117   1.987   2.501   3.754
 1371TIP3   OH2 4118   4.912   4.775   4.593
 1371TIP3    H1 4119   4.965   4.699   4.569
 1371TIP3    H2 4120   4.867   4.800   4.512
 1372TIP3   OH2 4121   3.006   3.982   1.506
 1372TIP3    H1 4122   3.026   4.002   1.415
 1372TIP3    H2 4123   2.921   4.023   1.522
 1373TIP3   OH2 4124   0.008   4.488   2.961
 1373TIP3    H1 4125  -0.048   4.547   2.910
 1373TIP3    H2 4126  -0.009   4.401   2.924
 1374TIP3   OH2 4127   3.016   5.538   0.583
 1374TIP3    H1 4128   2.994   5.527   0.490
 1374TIP3    H2 4129   3.060   5.623   0.587
 1375TIP3   OH2 4130   6.042   4.653   1.170
 1375TIP3    H1 4131   6.053   4.604   1.089
 1375TIP3    H2 4132   6.085   4.737   1.153
 1376TIP3   OH2 4133   3.843   0.939   0.726
 1376TIP3    H1 4134   3.902   0.871   0.693
 1376TIP3    H2 4135   3.901   1.003   0.767
 1377TIP3   OH2 4136   2.791   3.094   2.084
 1377TIP3    H1 4137   2.827   3.062   2.167
 1377TIP3    H2 4138   2.809   3.024   2.021
 1378TIP3   OH2 4139   2.245   5.542   4.724
 1378TIP3    H1 4140   2.306   5.494   4.668
 1378TIP3    H2 4141   2.201   5.475   4.775
 1379TIP3   OH2 4142   2.611   0.076   3.975
 1379TIP3    H1 4143   2.542   0.024   4.015
 1379TIP3    H2 4144   2.684   0.071   4.037
 1380TIP3   OH2 4145   2.041   5.363   1.727
 1380TIP3    H1 4146   1.949   5.379   1.704
 1380TIP3    H2 4147   2.075   5.450   1.750
 1381TIP3   OH2 4148   4.267   0.266   0.622
 1381TIP3    H1 4149   4.230   0.267   0.534
 1381TIP3    H2 4150   4.194   0.292   0.679
 1382TIP3   OH2 4151   5.219   5.903   0.708
 1382TIP3    H1 4152   5.146   5.868   0.758
 1382TIP3    H2 4153   5.184   5.980   0.664
 1383TIP3   OH2 4154   2.521   5.581   3.709
 1383TIP3    H1 4155   2.559   5.574   3.796
 1383TIP3    H2 4156   2.458   5.509   3.704
 1384TIP3   OH2 4157   4.066   3.604   1.989
 1384TIP3    H1 4158   4.094   3.657   1.915
 1384TIP3    H2 4159   4.064   3.514   1.954
 1385TIP3   OH2 4160   1.942   1.735   2.906
 1385TIP3    H1 4161   1.879   1.747   2.836
 1385TIP3    H2 4162   1.897   1.767   2.985
 1386TIP3   OH2 4163   3.828   5.230   1.614
 1386TIP3    H1 4164   3.895   5.210   1.679
 1386TIP3    H2 4165   3.819   5.148   1.564
 1387TIP3   OH2 4166   3.610   2.445   4.168
 1387TIP3    H1 4167   3.616   2.438   4.072
 1387TIP3    H2 4168   3.701   2.455   4.197
 1388TIP3   OH2 4169   0.467   4.877   2.183
 1388TIP3    H1 4170   0.519   4.931   2.124
 1388TIP3    H2 4171   0.408   4.829   2.126
 1389TIP3   OH2 4172   2.132   4.646   2.662
 1389TIP3    H1 4173   2.073   4.704   2.614
 1389TIP3    H2 4174   2.118   4.668   2.754
 1390TIP3   OH2 4175   6.059   2.785   2.739
 1390TIP3    H1 4176   6.095   2.735   2.813
 1390TIP3    H2 4177   6.068   2.877   2.764
 1391TIP3   OH2 4178   3.953   1.871   3.015
 1391TIP3    H1 4179   3.918   1.782   3.007
 1391TIP3    H2 4180   3.987   1.891   2.927
 1392TIP3   OH2 4181   0.597   0.771   4.693
 1392TIP3    H1 4182   0.664   0.839   4.689
 1392TIP3    H2 4183   0.521   0.808   4.647
 1393TIP3   OH2 4184   1.011   4.554   4.654
 1393TIP3    H1 4185   0.995   4.490   4.724
 1393TIP3    H2 4186   0.946   4.533   4.587
 1394TIP3   OH2 4187   5.850   4.446   1.225
 1394TIP3    H1 4188   5.786   4.433   1.155
 1394TIP3    H2 4189   5.902   4.521   1.197
 1395TIP3   OH2 4190   4.091   2.380   2.919
 1395TIP3    H1 4191   3.996   2.376   2.933
 1395TIP3    H2 4192   4.102   2.442   2.847
 1396TIP3   OH2 4193   3.232   1.927   0.295
 1396TIP3    H1 4194   3.142   1.919   0.328
 1396TIP3    H2 4195   3.226   1.906   0.202
 1397TIP3   OH2 4196   3.694   4.375   1.384
 1397TIP3    H1 4197   3.733   4.450   1.339
 1397TIP3    H2 4198   3.650   4.414   1.460
 1398TIP3   OH2 4199   1.225   5.891   2.082
 1398TIP3    H1 4200   1.253   5.983   2.085
 1398TIP3    H2 4201   1.286   5.850   2.021
 1399TIP3   OH2 4202   1.897   5.095   1.953
 1399TIP3    H1 4203   1.981   5.123   1.988
 1399TIP3    H2 4204   1.881   5.010   1.994
 1400TIP3   OH2 4205   4.967   3.716   1.678
 1400TIP3    H1 4206   5.022   3.748   1.749
 1400TIP3    H2 4207   5.004   3.631   1.655
 1401TIP3   OH2 4208   0.846   2.034   1.531
 1401TIP3    H1 4209   0.750   2.042   1.535
 1401TIP3    H2 4210   0.874   2.116   1.490
 1402TIP3   OH2 4211   0.691   5.232   0.930
 1402TIP3    H1 4212   0.664   5.163   0.990
 1402TIP3    H2 4213   0.766   5.195   0.883
 1403TIP3   OH2 4214   4.407   3.738   1.838
 1403TIP3    H1 4215   4.474   3.794   1.798
 1403TIP3    H2 4216   4.436   3.649   1.821
 1404TIP3   OH2 4217   0.463   4.453   4.304
 1404TIP3    H1 4218   0.524   4.525   4.325
 1404TIP3    H2 4219   0.384   4.473   4.354
 1405TIP3   OH2 4220   2.899   2.513   1.799
 1405TIP3    H1 4221   2.825   2.573   1.793
 1405TIP3    H2 4222   2.879   2.444   1.736
 1406TIP3   OH2 4223   0.562   2.986   2.005
 1406TIP3    H1 4224   0.552   2.927   2.080
 1406TIP3    H2 4225   0.648   3.027   2.019
 1407TIP3   OH2 4226   2.529   2.683   2.844
 1407TIP3    H1 4227   2.484   2.746   2.900
 1407TIP3    H2 4228   2.606   2.729   2.812
 1408TIP3   OH2 4229   3.352   0.475   0.296
 1408TIP3    H1 4230   3.358   0.486   0.391
 1408TIP3    H2 4231   3.337   0.381   0.284
 1409TIP3   OH2 4232   2.095   5.438   4.078
 1409TIP3    H1 4233   2.074   5.530   4.061
 1409TIP3    H2 4234   2.147   5.411   4.002
 1410TIP3   OH2 4235   2.032   5.396   3.539
 1410TIP3    H1 4236   1.966   5.331   3.563
 1410TIP3    H2 4237   2.067   5.366   3.455
 1411TIP3   OH2 4238   3.513   4.787   4.280
 1411TIP3    H1 4239   3.481   4.712   4.231
 1411TIP3    H2 4240   3.434   4.833   4.308
 1412TIP3   OH2 4241   0.344   2.536   5.070
 1412TIP3    H1 4242   0.405   2.608   5.079
 1412TIP3    H2 4243   0.258   2.576   5.083
 1413TIP3   OH2 4244   0.407   0.910   4.545
 1413TIP3    H1 4245   0.326   0.862   4.529
 1413TIP3    H2 4246   0.379   1.001   4.555
 1414TIP3   OH2 4247   5.232   4.395   4.040
 1414TIP3    H1 4248   5.250   4.488   4.022
 1414TIP3    H2 4249   5.184   4.396   4.123
 1415TIP3   OH2 4250   0.040   5.524   3.909
 1415TIP3    H1 4251  -0.003   5.449   3.867
 1415TIP3    H2 4252   0.092   5.486   3.979
 1416TIP3   OH2 4253   1.431   1.331   3.213
 1416TIP3    H1 4254   1.395   1.282   3.288
 1416TIP3    H2 4255   1.514   1.286   3.194
 1417TIP3   OH2 4256   3.398   5.335   1.617
 1417TIP3    H1 4257   3.342   5.412   1.626
 1417TIP3    H2 4258   3.388   5.289   1.701
 1418TIP3   OH2 4259   2.388   0.890   4.987
 1418TIP3    H1 4260   2.429   0.840   5.058
 1418TIP3    H2 4261   2.302   0.850   4.977
 1419TIP3   OH2 4262   5.522   4.549   2.630
 1419TIP3    H1 4263   5.474   4.497   2.695
 1419TIP3    H2 4264   5.468   4.545   2.551
 1420TIP3   OH2 4265   4.526   0.432   1.783
 1420TIP3    H1 4266   4.475   0.377   1.842
 1420TIP3    H2 4267   4.616   0.421   1.812
 1421TIP3   OH2 4268   5.206   0.845   2.430
 1421TIP3    H1 4269   5.213   0.756   2.464
 1421TIP3    H2 4270   5.262   0.898   2.487
 1422TIP3   OH2 4271   0.944   0.517   2.550
 1422TIP3    H1 4272   0.966   0.424   2.560
 1422TIP3    H2 4273   1.012   0.551   2.492
 1423TIP3   OH2 4274   5.222   0.119   0.673
 1423TIP3    H1 4275   5.244   0.123   0.580
 1423TIP3    H2 4276   5.255   0.034   0.702
 1424TIP3   OH2 4277   2.525   0.731   4.620
 1424TIP3    H1 4278   2.579   0.715   4.698
 1424TIP3    H2 4279   2.585   0.716   4.547
 1425TIP3   OH2 4280   0.214   3.256   2.392
 1425TIP3    H1 4281   0.261   3.173   2.386
 1425TIP3    H2 4282   0.127   3.236   2.358
 1426TIP3   OH2 4283   1.496   1.218   3.618
 1426TIP3    H1 4284   1.477   1.308   3.645
 1426TIP3    H2 4285   1.446   1.206   3.537
 1427TIP3   OH2 4286   3.562   2.069   2.316
 1427TIP3    H1 4287   3.529   2.024   2.238
 1427TIP3    H2 4288   3.528   2.158   2.309
 1428TIP3   OH2 4289   4.828   4.826   2.199
 1428TIP3    H1 4290   4.766   4.892   2.168
 1428TIP3    H2 4291   4.871   4.867   2.274
 1429TIP3   OH2 4292   3.962   1.660   3.421
 1429TIP3    H1 4293   3.929   1.577   3.386
 1429TIP3    H2 4294   3.991   1.637   3.510
 1430TIP3   OH2 4295   3.278   2.897   1.648
 1430TIP3    H1 4296   3.240   2.982   1.668
 1430TIP3    H2 4297   3.215   2.834   1.683
 1431TIP3   OH2 4298   4.015   4.140   3.718
 1431TIP3    H1 4299   4.059   4.167   3.799
 1431TIP3    H2 4300   3.923   4.161   3.732
 1432TIP3   OH2 4301   6.057   2.176   2.986
 1432TIP3    H1 4302   6.018   2.130   2.912
 1432TIP3    H2 4303   5.988   2.236   3.016
 1433TIP3   OH2 4304   1.171   5.235   0.563
 1433TIP3    H1 4305   1.260   5.231   0.598
 1433TIP3    H2 4306   1.167   5.163   0.500
 1434TIP3   OH2 4307   6.326   5.677   4.524
 1434TIP3    H1 4308   6.401   5.624   4.498
 1434TIP3    H2 4309   6.259   5.613   4.549
 1435TIP3   OH2 4310   4.136   0.735   1.425
 1435TIP3    H1 4311   4.208   0.675   1.445
 1435TIP3    H2 4312   4.080   0.685   1.366
 1436TIP3   OH2 4313   5.926   2.982   2.228
 1436TIP3    H1 4314   5.852   3.037   2.202
 1436TIP3    H2 4315   5.968   3.030   2.299
 1437TIP3   OH2 4316   3.447   3.745   0.182
 1437TIP3    H1 4317   3.408   3.827   0.150
 1437TIP3    H2 4318   3.500   3.714   0.108
 1438TIP3   OH2 4319   5.952   5.921   3.310
 1438TIP3    H1 4320   5.993   5.979   3.246
 1438TIP3    H2 4321   5.860   5.919   3.286
 1439TIP3   OH2 4322   2.404   5.761   3.228
 1439TIP3    H1 4323   2.368   5.838   3.271
 1439TIP3    H2 4324   2.340   5.739   3.160
 1440TIP3   OH2 4325   2.996   5.475   2.204
 1440TIP3    H1 4326   2.965   5.502   2.291
 1440TIP3    H2 4327   2.930   5.510   2.144
 1441TIP3   OH2 4328   2.732   5.196   2.229
 1441TIP3    H1 4329   2.776   5.125   2.182
 1441TIP3    H2 4330   2.790   5.214   2.303
 1442TIP3   OH2 4331   5.193   1.283   0.262
 1442TIP3    H1 4332   5.116   1.231   0.287
 1442TIP3    H2 4333   5.157   1.355   0.210
 1443TIP3   OH2 4334   2.779   4.619   0.125
 1443TIP3    H1 4335   2.797   4.528   0.148
 1443TIP3    H2 4336   2.722   4.613   0.048
 1444TIP3   OH2 4337   5.143   0.189   1.921
 1444TIP3    H1 4338   5.136   0.283   1.906
 1444TIP3    H2 4339   5.056   0.154   1.899
 1445TIP3   OH2 4340   2.597   4.463   1.696
 1445TIP3    H1 4341   2.530   4.454   1.763
 1445TIP3    H2 4342   2.665   4.516   1.737
 1446TIP3   OH2 4343   3.355   1.887   2.476
 1446TIP3    H1 4344   3.289   1.952   2.501
 1446TIP3    H2 4345   3.427   1.938   2.439
 1447TIP3   OH2 4346   1.152   3.861   4.647
 1447TIP3    H1 4347   1.090   3.866   4.720
 1447TIP3    H2 4348   1.102   3.818   4.577
 1448TIP3   OH2 4349   0.141   4.921   2.976
 1448TIP3    H1 4350   0.219   4.958   2.933
 1448TIP3    H2 4351   0.096   4.873   2.907
 1449TIP3   OH2 4352   4.989   1.314   4.098
 1449TIP3    H1 4353   4.923   1.325   4.030
 1449TIP3    H2 4354   4.940   1.317   4.180
 1450TIP3   OH2 4355   1.476   2.917   0.890
 1450TIP3    H1 4356   1.416   2.944   0.959
 1450TIP3    H2 4357   1.532   2.852   0.932
 1451TIP3   OH2 4358   4.708   2.658   1.332
 1451TIP3    H1 4359   4.616   2.684   1.337
 1451TIP3    H2 4360   4.739   2.692   1.248
 1452TIP3   OH2 4361   2.270   0.985   2.353
 1452TIP3    H1 4362   2.363   0.974   2.334
 1452TIP3    H2 4363   2.239   0.897   2.373
 1453TIP3   OH2 4364   1.161   4.844   2.419
 1453TIP3    H1 4365   1.165   4.927   2.466
 1453TIP3    H2 4366   1.112   4.864   2.339
 1454TIP3   OH2 4367   2.632   5.905   2.284
 1454TIP3    H1 4368   2.726   5.894   2.274
 1454TIP3    H2 4369   2.622   5.971   2.352
 1455TIP3   OH2 4370   2.843   2.119   1.147
 1455TIP3    H1 4371   2.766   2.161   1.185
 1455TIP3    H2 4372   2.907   2.115   1.218
 1456TIP3   OH2 4373   1.495   3.610   4.865
 1456TIP3    H1 4374   1.421   3.657   4.902
 1456TIP3    H2 4375   1.469   3.518   4.867
 1457TIP3   OH2 4376   2.239   3.303   1.681
 1457TIP3    H1 4377   2.205   3.286   1.593
 1457TIP3    H2 4378   2.281   3.389   1.674
 1458TIP3   OH2 4379   5.206   4.898   2.040
 1458TIP3    H1 4380   5.278   4.866   2.095
 1458TIP3    H2 4381   5.137   4.832   2.050
 1459TIP3   OH2 4382   4.633   5.428   3.573
 1459TIP3    H1 4383   4.561   5.380   3.534
 1459TIP3    H2 4384   4.623   5.413   3.668
 1460TIP3   OH2 4385   4.662   5.449   0.647
 1460TIP3    H1 4386   4.738   5.482   0.598
 1460TIP3    H2 4387   4.634   5.372   0.598
 1461TIP3   OH2 4388   6.326   2.635   0.452
 1461TIP3    H1 4389   6.235   2.651   0.478
 1461TIP3    H2 4390   6.328   2.542   0.428
 1462TIP3   OH2 4391   6.245   4.138   4.634
 1462TIP3    H1 4392   6.164   4.086   4.637
 1462TIP3    H2 4393   6.263   4.150   4.541
 1463TIP3   OH2 4394   2.323   1.868   4.149
 1463TIP3    H1 4395   2.285   1.805   4.210
 1463TIP3    H2 4396   2.288   1.953   4.177
 1464TIP3   OH2 4397   2.909   0.778   1.788
 1464TIP3    H1 4398   2.886   0.751   1.699
 1464TIP3    H2 4399   2.988   0.728   1.808
 1465TIP3   OH2 4400   4.253   3.470   1.720
 1465TIP3    H1 4401   4.207   3.446   1.800
 1465TIP3    H2 4402   4.261   3.388   1.671
 1466TIP3   OH2 4403   5.929   2.718   2.493
 1466TIP3    H1 4404   5.958   2.628   2.504
 1466TIP3    H2 4405   5.979   2.768   2.558
 1467TIP3   OH2 4406   2.355   2.137   2.437
 1467TIP3    H1 4407   2.349   2.204   2.505
 1467TIP3    H2 4408   2.443   2.101   2.446
 1468TIP3   OH2 4409   1.690   3.650   2.841
 1468TIP3    H1 4410   1.730   3.595   2.774
 1468TIP3    H2 4411   1.601   3.667   2.807
 1469TIP3   OH2 4412   2.641   3.315   4.098
 1469TIP3    H1 4413   2.691   3.386   4.138
 1469TIP3    H2 4414   2.672   3.313   4.007
 1470TIP3   OH2 4415   2.593   4.893   0.459
 1470TIP3    H1 4416   2.604   4.803   0.429
 1470TIP3    H2 4417   2.661   4.904   0.525
 1471TIP3   OH2 4418   4.488   2.941   4.763
 1471TIP3    H1 4419   4.400   2.979   4.770
 1471TIP3    H2 4420   4.497   2.919   4.670
 1472TIP3   OH2 4421   5.897   5.690   1.191
 1472TIP3    H1 4422   5.992   5.697   1.196
 1472TIP3    H2 4423   5.867   5.696   1.281
 1473TIP3   OH2 4424   2.329   2.347   0.240
 1473TIP3    H1 4425   2.271   2.327   0.167
 1473TIP3    H2 4426   2.417   2.338   0.204
 1474TIP3   OH2 4427   1.588   1.242   1.485
 1474TIP3    H1 4428   1.675   1.215   1.516
 1474TIP3    H2 4429   1.527   1.198   1.544
 1475TIP3   OH2 4430   2.996   2.847   3.507
 1475TIP3    H1 4431   3.052   2.774   3.532
 1475TIP3    H2 4432   2.915   2.833   3.557
 1476TIP3   OH2 4433   4.747   1.670   1.557
 1476TIP3    H1 4434   4.712   1.759   1.558
 1476TIP3    H2 4435   4.672   1.615   1.579
 1477TIP3   OH2 4436   0.091   2.551   1.326
 1477TIP3    H1 4437   0.063   2.564   1.236
 1477TIP3    H2 4438   0.186   2.559   1.324
 1478TIP3   OH2 4439   2.231   2.844   1.039
 1478TIP3    H1 4440   2.233   2.920   0.981
 1478TIP3    H2 4441   2.193   2.775   0.986
 1479TIP3   OH2 4442   3.512   0.736   2.560
 1479TIP3    H1 4443   3.541   0.812   2.610
 1479TIP3    H2 4444   3.448   0.771   2.498
 1480TIP3   OH2 4445   4.053   3.079   2.618
 1480TIP3    H1 4446   4.140   3.082   2.577
 1480TIP3    H2 4447   4.037   3.169   2.647
 1481TIP3   OH2 4448   4.503   1.975   3.568
 1481TIP3    H1 4449   4.485   1.906   3.632
 1481TIP3    H2 4450   4.449   2.049   3.598
 1482TIP3   OH2 4451   3.348   2.186   4.180
 1482TIP3    H1 4452   3.394   2.221   4.257
 1482TIP3    H2 4453   3.411   2.126   4.140
 1483TIP3   OH2 4454   3.154   2.259   3.693
 1483TIP3    H1 4455   3.190   2.269   3.605
 1483TIP3    H2 4456   3.193   2.178   3.726
 1484TIP3   OH2 4457   0.698   5.567   2.163
 1484TIP3    H1 4458   0.685   5.605   2.250
 1484TIP3    H2 4459   0.685   5.640   2.103
 1485TIP3   OH2 4460   1.591   1.633   4.335
 1485TIP3    H1 4461   1.580   1.725   4.359
 1485TIP3    H2 4462   1.644   1.634   4.256
 1486TIP3   OH2 4463   0.826   0.287   4.866
 1486TIP3    H1 4464   0.802   0.376   4.840
 1486TIP3    H2 4465   0.743   0.240   4.869
 1487TIP3   OH2 4466   2.376   1.977   3.681
 1487TIP3    H1 4467   2.412   2.056   3.720
 1487TIP3    H2 4468   2.398   1.907   3.743
 1488TIP3   OH2 4469   4.983   2.861   5.017
 1488TIP3    H1 4470   5.028   2.838   4.936
 1488TIP3    H2 4471   4.929   2.938   4.994
 1489TIP3   OH2 4472   2.409   1.408   1.611
 1489TIP3    H1 4473   2.334   1.461   1.639
 1489TIP3    H2 4474   2.463   1.400   1.690
 1490TIP3   OH2 4475   5.333   0.853   3.689
 1490TIP3    H1 4476   5.287   0.828   3.609
 1490TIP3    H2 4477   5.315   0.946   3.699
 1491TIP3   OH2 4478   0.730   4.590   0.994
 1491TIP3    H1 4479   0.647   4.552   0.964
 1491TIP3    H2 4480   0.704   4.670   1.039
 1492TIP3   OH2 4481   3.541   5.073   3.710
 1492TIP3    H1 4482   3.600   5.125   3.655
 1492TIP3    H2 4483   3.545   4.985   3.673
 1493TIP3   OH2 4484   3.610   3.259   1.731
 1493TIP3    H1 4485   3.678   3.193   1.718
 1493TIP3    H2 4486   3.613   3.279   1.824
 1494TIP3   OH2 4487   4.860   3.553   0.310
 1494TIP3    H1 4488   4.888   3.532   0.399
 1494TIP3    H2 4489   4.886   3.645   0.298
 1495TIP3   OH2 4490   0.998   4.846   3.180
 1495TIP3    H1 4491   1.048   4.927   3.179
 1495TIP3    H2 4492   0.958   4.844   3.267
 1496TIP3   OH2 4493   6.080   4.811   0.036
 1496TIP3    H1 4494   6.151   4.768   0.084
 1496TIP3    H2 4495   6.021   4.739   0.012
 1497TIP3   OH2 4496   0.199   0.463   2.851
 1497TIP3    H1 4497   0.205   0.368   2.845
 1497TIP3    H2 4498   0.143   0.480   2.926
 1498TIP3   OH2 4499   1.542   3.094   3.052
 1498TIP3    H1 4500   1.597   3.172   3.061
 1498TIP3    H2 4501   1.581   3.030   3.111
 1499TIP3   OH2 4502   5.635   3.178   0.744
 1499TIP3    H1 4503   5.673   3.094   0.769
 1499TIP3    H2 4504   5.545   3.157   0.719
 1500TIP3   OH2 4505   4.608   3.994   4.341
 1500TIP3    H1 4506   4.549   3.921   4.358
 1500TIP3    H2 4507   4.671   3.991   4.412
 1501TIP3   OH2 4508   4.155   2.701   2.063
 1501TIP3    H1 4509   4.244   2.736   2.065
 1501TIP3    H2 4510   4.161   2.623   2.008
 1502TIP3   OH2 4511   5.787   4.580   4.236
 1502TIP3    H1 4512   5.831   4.663   4.254
 1502TIP3    H2 4513   5.854   4.527   4.192
 1503TIP3   OH2 4514   1.637   4.243   3.583
 1503TIP3    H1 4515   1.614   4.202   3.666
 1503TIP3    H2 4516   1.593   4.328   3.586
 1504TIP3   OH2 4517   1.459   0.465   0.095
 1504TIP3    H1 4518   1.366   0.459   0.072
 1504TIP3    H2 4519   1.503   0.475   0.010
 1505TIP3   OH2 4520   3.248   1.333   3.080
 1505TIP3    H1 4521   3.233   1.421   3.115
 1505TIP3    H2 4522   3.323   1.343   3.022
 1506TIP3   OH2 4523   3.698   5.893   1.507
 1506TIP3    H1 4524   3.784   5.875   1.545
 1506TIP3    H2 4525   3.651   5.810   1.513
 1507TIP3   OH2 4526   3.224   2.752   0.594
 1507TIP3    H1 4527   3.135   2.750   0.631
 1507TIP3    H2 4528   3.243   2.660   0.574
 1508TIP3   OH2 4529   1.363   0.258   1.171
 1508TIP3    H1 4530   1.368   0.181   1.114
 1508TIP3    H2 4531   1.406   0.327   1.121
 1509TIP3   OH2 4532   5.289   3.683   5.136
 1509TIP3    H1 4533   5.328   3.638   5.211
 1509TIP3    H2 4534   5.358   3.741   5.104
 1510TIP3   OH2 4535   5.232   5.723   0.508
 1510TIP3    H1 4536   5.313   5.754   0.469
 1510TIP3    H2 4537   5.221   5.777   0.586
 1511TIP3   OH2 4538   6.279   4.465   3.443
 1511TIP3    H1 4539   6.334   4.431   3.513
 1511TIP3    H2 4540   6.329   4.538   3.407
 1512TIP3   OH2 4541   3.531   3.808   2.886
 1512TIP3    H1 4542   3.610   3.827   2.836
 1512TIP3    H2 4543   3.509   3.717   2.863
 1513TIP3   OH2 4544   5.404   1.305   4.943
 1513TIP3    H1 4545   5.398   1.210   4.928
 1513TIP3    H2 4546   5.336   1.342   4.888
 1514TIP3   OH2 4547   3.899   2.766   1.256
 1514TIP3    H1 4548   3.887   2.708   1.180
 1514TIP3    H2 4549   3.843   2.728   1.324
 1515TIP3   OH2 4550   3.988   4.419   0.456
 1515TIP3    H1 4551   3.907   4.462   0.484
 1515TIP3    H2 4552   3.964   4.327   0.448
 1516TIP3   OH2 4553   4.060   2.583   2.313
 1516TIP3    H1 4554   4.118   2.623   2.248
 1516TIP3    H2 4555   4.118   2.526   2.364
 1517TIP3   OH2 4556   2.132   5.271   1.309
 1517TIP3    H1 4557   2.099   5.319   1.233
 1517TIP3    H2 4558   2.107   5.180   1.292
 1518TIP3   OH2 4559   1.542   0.913   0.849
 1518TIP3    H1 4560   1.528   0.951   0.935
 1518TIP3    H2 4561   1.483   0.837   0.846
 1519TIP3   OH2 4562   4.711   0.370   2.664
 1519TIP3    H1 4563   4.713   0.446   2.721
 1519TIP3    H2 4564   4.639   0.386   2.604
 1520TIP3   OH2 4565   2.849   4.484   4.813
 1520TIP3    H1 4566   2.893   4.565   4.786
 1520TIP3    H2 4567   2.918   4.432   4.855
 1521TIP3   OH2 4568   5.528   0.813   1.609
 1521TIP3    H1 4569   5.615   0.776   1.595
 1521TIP3    H2 4570   5.511   0.797   1.702
 1522TIP3   OH2 4571   0.629   2.862   3.749
 1522TIP3    H1 4572   0.627   2.798   3.678
 1522TIP3    H2 4573   0.669   2.940   3.709
 1523TIP3   OH2 4574   5.995   2.218   3.946
 1523TIP3    H1 4575   6.005   2.133   3.990
 1523TIP3    H2 4576   6.076   2.228   3.896
 1524TIP3   OH2 4577   1.260   2.885   0.048
 1524TIP3    H1 4578   1.218   2.817  -0.005
 1524TIP3    H2 4579   1.220   2.878   0.134
 1525TIP3   OH2 4580   4.069   2.093   3.742
 1525TIP3    H1 4581   4.098   2.020   3.798
 1525TIP3    H2 4582   4.029   2.051   3.667
 1526TIP3   OH2 4583   2.534   0.629   0.013
 1526TIP3    H1 4584   2.468   0.586   0.067
 1526TIP3    H2 4585   2.580   0.557  -0.031
 1527TIP3   OH2 4586   3.202   0.829   1.581
 1527TIP3    H1 4587   3.256   0.751   1.568
 1527TIP3    H2 4588   3.234   0.866   1.663
 1528TIP3   OH2 4589   1.458   2.693   1.655
 1528TIP3    H1 4590   1.415   2.775   1.630
 1528TIP3    H2 4591   1.412   2.666   1.735
 1529TIP3   OH2 4592   3.073   4.594   4.611
 1529TIP3    H1 4593   3.097   4.502   4.598
 1529TIP3    H2 4594   2.994   4.605   4.558
 1530TIP3   OH2 4595   4.023   1.170   0.092
 1530TIP3    H1 4596   3.935   1.160   0.128
 1530TIP3    H2 4597   4.040   1.089   0.044
 1531TIP3   OH2 4598   4.031   0.163   4.048
 1531TIP3    H1 4599   4.045   0.100   3.978
 1531TIP3    H2 4600   4.060   0.247   4.012
 1532TIP3   OH2 4601   6.341   0.898   4.300
 1532TIP3    H1 4602   6.324   0.992   4.292
 1532TIP3    H2 4603   6.254   0.858   4.304
 1533TIP3   OH2 4604   4.206   5.249   3.526
 1533TIP3    H1 4605   4.291   5.207   3.514
 1533TIP3    H2 4606   4.211   5.329   3.474
 1534TIP3   OH2 4607   0.787   0.373   3.527
 1534TIP3    H1 4608   0.776   0.292   3.577
 1534TIP3    H2 4609   0.806   0.344   3.438
 1535TIP3   OH2 4610   4.815   3.941   5.075
 1535TIP3    H1 4611   4.884   3.876   5.088
 1535TIP3    H2 4612   4.769   3.942   5.159
 1536TIP3   OH2 4613   6.242   1.210   1.522
 1536TIP3    H1 4614   6.161   1.203   1.572
 1536TIP3    H2 4615   6.299   1.144   1.559
 1537TIP3   OH2 4616   4.863   1.460   4.506
 1537TIP3    H1 4617   4.935   1.453   4.444
 1537TIP3    H2 4618   4.786   1.432   4.457
 1538TIP3   OH2 4619   0.392   1.387   1.047
 1538TIP3    H1 4620   0.437   1.402   0.964
 1538TIP3    H2 4621   0.459   1.350   1.105
 1539TIP3   OH2 4622   4.945   1.813   2.149
 1539TIP3    H1 4623   4.858   1.821   2.186
 1539TIP3    H2 4624   4.934   1.830   2.056
 1540TIP3   OH2 4625   4.970   3.464   1.093
 1540TIP3    H1 4626   4.910   3.536   1.072
 1540TIP3    H2 4627   5.057   3.503   1.084
 1541TIP3   OH2 4628   5.669   4.930   2.816
 1541TIP3    H1 4629   5.689   4.875   2.891
 1541TIP3    H2 4630   5.750   4.932   2.765
 1542TIP3   OH2 4631   1.156   0.352   0.304
 1542TIP3    H1 4632   1.107   0.434   0.293
 1542TIP3    H2 4633   1.183   0.353   0.396
 1543TIP3   OH2 4634   5.248   4.061   1.274
 1543TIP3    H1 4635   5.264   4.102   1.359
 1543TIP3    H2 4636   5.336   4.044   1.239
 1544TIP3   OH2 4637   0.444   5.114   2.333
 1544TIP3    H1 4638   0.460   5.025   2.300
 1544TIP3    H2 4639   0.514   5.167   2.294
 1545TIP3   OH2 4640   1.314   3.014   4.933
 1545TIP3    H1 4641   1.291   3.062   5.012
 1545TIP3    H2 4642   1.311   3.079   4.863
 1546TIP3   OH2 4643   2.289   3.728   1.056
 1546TIP3    H1 4644   2.377   3.726   1.019
 1546TIP3    H2 4645   2.238   3.782   0.995
 1547TIP3   OH2 4646   5.593   4.111   4.638
 1547TIP3    H1 4647   5.664   4.051   4.657
 1547TIP3    H2 4648   5.555   4.132   4.723
 1548TIP3   OH2 4649   0.311   4.507   2.087
 1548TIP3    H1 4650   0.307   4.517   2.182
 1548TIP3    H2 4651   0.405   4.498   2.067
 1549TIP3   OH2 4652   3.931   4.153   1.151
 1549TIP3    H1 4653   3.981   4.086   1.198
 1549TIP3    H2 4654   3.846   4.154   1.193
 1550TIP3   OH2 4655   3.824   4.240   3.513
 1550TIP3    H1 4656   3.914   4.258   3.484
 1550TIP3    H2 4657   3.775   4.228   3.433
 1551TIP3   OH2 4658   5.011   5.935   2.228
 1551TIP3    H1 4659   5.036   6.026   2.245
 1551TIP3    H2 4660   5.036   5.920   2.136
 1552TIP3   OH2 4661   2.994   3.378   0.033
 1552TIP3    H1 4662   2.980   3.458   0.084
 1552TIP3    H2 4663   2.906   3.344   0.017
 1553TIP3   OH2 4664   0.345   0.660   3.544
 1553TIP3    H1 4665   0.404   0.626   3.610
 1553TIP3    H2 4666   0.260   0.622   3.566
 1554TIP3   OH2 4667   4.797   3.469   0.871
 1554TIP3    H1 4668   4.845   3.417   0.935
 1554TIP3    H2 4669   4.846   3.552   0.866
 1555TIP3   OH2 4670   4.603   4.797   0.222
 1555TIP3    H1 4671   4.597   4.869   0.159
 1555TIP3    H2 4672   4.608   4.718   0.168
 1556TIP3   OH2 4673   1.960   0.751   4.411
 1556TIP3    H1 4674   1.983   0.736   4.503
 1556TIP3    H2 4675   1.895   0.821   4.413
 1557TIP3   OH2 4676   6.225   1.142   1.242
 1557TIP3    H1 4677   6.161   1.186   1.187
 1557TIP3    H2 4678   6.219   1.187   1.327
 1558TIP3   OH2 4679   2.816   5.119   4.720
 1558TIP3    H1 4680   2.794   5.206   4.754
 1558TIP3    H2 4681   2.911   5.120   4.712
 1559TIP3   OH2 4682   1.871   4.136   1.026
 1559TIP3    H1 4683   1.800   4.141   1.089
 1559TIP3    H2 4684   1.832   4.162   0.942
 1560TIP3   OH2 4685   4.274   1.756   3.972
 1560TIP3    H1 4686   4.282   1.850   3.983
 1560TIP3    H2 4687   4.310   1.719   4.053
 1561TIP3   OH2 4688   4.323   0.249   4.715
 1561TIP3    H1 4689   4.305   0.191   4.641
 1561TIP3    H2 4690   4.250   0.235   4.775
 1562TIP3   OH2 4691   0.281   4.793   1.984
 1562TIP3    H1 4692   0.185   4.785   1.986
 1562TIP3    H2 4693   0.312   4.702   1.987
 1563TIP3   OH2 4694   2.540   0.977   2.293
 1563TIP3    H1 4695   2.585   0.970   2.209
 1563TIP3    H2 4696   2.600   1.027   2.348
 1564TIP3   OH2 4697   4.906   0.343   3.324
 1564TIP3    H1 4698   4.907   0.336   3.419
 1564TIP3    H2 4699   4.887   0.436   3.307
 1565TIP3   OH2 4700   5.806   2.218   2.606
 1565TIP3    H1 4701   5.896   2.207   2.636
 1565TIP3    H2 4702   5.768   2.131   2.614
 1566TIP3   OH2 4703   0.846   3.209   3.613
 1566TIP3    H1 4704   0.818   3.185   3.524
 1566TIP3    H2 4705   0.906   3.138   3.639
 1567TIP3   OH2 4706   2.242   2.439   1.264
 1567TIP3    H1 4707   2.200   2.524   1.252
 1567TIP3    H2 4708   2.227   2.393   1.182
 1568TIP3   OH2 4709   3.789   5.559   0.106
 1568TIP3    H1 4710   3.846   5.563   0.183
 1568TIP3    H2 4711   3.848   5.573   0.032
 1569TIP3   OH2 4712   3.769   4.118   1.405
 1569TIP3    H1 4713   3.729   4.204   1.390
 1569TIP3    H2 4714   3.697   4.063   1.435
 1570TIP3   OH2 4715   0.757   3.163   3.284
 1570TIP3    H1 4716   0.680   3.107   3.291
 1570TIP3    H2 4717   0.831   3.103   3.290
 1571TIP3   OH2 4718   3.408   0.080   2.981
 1571TIP3    H1 4719   3.316   0.070   2.957
 1571TIP3    H2 4720   3.421   0.175   2.986
 1572TIP3   OH2 4721   0.609   4.716   1.908
 1572TIP3    H1 4722   0.694   4.697   1.868
 1572TIP3    H2 4723   0.547   4.707   1.836
 1573TIP3   OH2 4724   5.349   5.382   0.815
 1573TIP3    H1 4725   5.420   5.376   0.752
 1573TIP3    H2 4726   5.277   5.421   0.766
 1574TIP3   OH2 4727   4.691   5.806   1.501
 1574TIP3    H1 4728   4.773   5.848   1.473
 1574TIP3    H2 4729   4.718   5.738   1.562
 1575TIP3   OH2 4730   5.334   3.459   0.054
 1575TIP3    H1 4731   5.406   3.494   0.002
 1575TIP3    H2 4732   5.306   3.532   0.110
 1576TIP3   OH2 4733   1.981   1.950   1.303
 1576TIP3    H1 4734   1.980   1.885   1.232
 1576TIP3    H2 4735   1.952   1.900   1.380
 1577TIP3   OH2 4736   3.367   2.745   2.235
 1577TIP3    H1 4737   3.429   2.807   2.199
 1577TIP3    H2 4738   3.290   2.750   2.177
 1578TIP3   OH2 4739   2.946   2.771   2.371
 1578TIP3    H1 4740   3.005   2.768   2.296
 1578TIP3    H2 4741   2.860   2.751   2.335
 1579TIP3   OH2 4742   6.138   2.567   1.340
 1579TIP3    H1 4743   6.233   2.558   1.337
 1579TIP3    H2 4744   6.123   2.634   1.407
 1580TIP3   OH2 4745   5.799   3.707   0.216
 1580TIP3    H1 4746   5.809   3.795   0.179
 1580TIP3    H2 4747   5.795   3.649   0.140
 1581TIP3   OH2 4748   3.072   4.600   3.926
 1581TIP3    H1 4749   3.113   4.540   3.988
 1581TIP3    H2 4750   3.126   4.593   3.847
 1582TIP3   OH2 4751   0.043   1.441   1.772
 1582TIP3    H1 4752  -0.046   1.413   1.750
 1582TIP3    H2 4753   0.082   1.365   1.815
 1583TIP3   OH2 4754   5.900   1.192   0.494
 1583TIP3    H1 4755   5.938   1.261   0.440
 1583TIP3    H2 4756   5.809   1.185   0.466
 1584TIP3   OH2 4757   1.452   2.680   3.106
 1584TIP3    H1 4758   1.503   2.732   3.169
 1584TIP3    H2 4759   1.515   2.660   3.036
 1585TIP3   OH2 4760   5.549   2.456   1.903
 1585TIP3    H1 4761   5.464   2.446   1.946
 1585TIP3    H2 4762   5.534   2.430   1.812
 1586TIP3   OH2 4763   3.383   1.360   1.183
 1586TIP3    H1 4764   3.440   1.373   1.108
 1586TIP3    H2 4765   3.330   1.283   1.160
 1587TIP3   OH2 4766   5.643   1.121   1.824
 1587TIP3    H1 4767   5.569   1.060   1.817
 1587TIP3    H2 4768   5.718   1.065   1.843
 1588TIP3   OH2 4769   4.628   2.323   4.956
 1588TIP3    H1 4770   4.651   2.416   4.958
 1588TIP3    H2 4771   4.690   2.281   5.015
 1589TIP3   OH2 4772   4.209   2.366   5.035
 1589TIP3    H1 4773   4.254   2.427   5.093
 1589TIP3    H2 4774   4.146   2.321   5.092
 1590TIP3   OH2 4775   5.008   0.888   1.560
 1590TIP3    H1 4776   5.054   0.972   1.560
 1590TIP3    H2 4777   5.033   0.847   1.477
 1591TIP3   OH2 4778   5.363   0.346   2.636
 1591TIP3    H1 4779   5.340   0.253   2.644
 1591TIP3    H2 4780   5.458   0.345   2.624
 1592TIP3   OH2 4781   1.818   3.205   3.914
 1592TIP3    H1 4782   1.765   3.133   3.947
 1592TIP3    H2 4783   1.908   3.175   3.923
 1593TIP3   OH2 4784   1.948   2.134   1.083
 1593TIP3    H1 4785   1.933   2.067   1.016
 1593TIP3    H2 4786   1.952   2.085   1.165
 1594TIP3   OH2 4787   1.925   5.702   0.387
 1594TIP3    H1 4788   1.832   5.706   0.363
 1594TIP3    H2 4789   1.956   5.792   0.376
 1595TIP3   OH2 4790   2.080   5.178   0.560
 1595TIP3    H1 4791   2.049   5.253   0.611
 1595TIP3    H2 4792   2.156   5.212   0.513
 1596TIP3   OH2 4793   0.787   4.638   3.259
 1596TIP3    H1 4794   0.867   4.614   3.214
 1596TIP3    H2 4795   0.718   4.626   3.194
 1597TIP3   OH2 4796   1.041   2.089   0.573
 1597TIP3    H1 4797   1.030   2.150   0.500
 1597TIP3    H2 4798   1.094   2.138   0.637
 1598TIP3   OH2 4799   2.027   5.534   3.253
 1598TIP3    H1 4800   2.070   5.461   3.208
 1598TIP3    H2 4801   2.018   5.601   3.186
 1599TIP3   OH2 4802   3.900   3.898   4.369
 1599TIP3    H1 4803   3.948   3.822   4.338
 1599TIP3    H2 4804   3.967   3.961   4.395
 1600TIP3   OH2 4805   0.555   4.819   0.167
 1600TIP3    H1 4806   0.471   4.861   0.181
 1600TIP3    H2 4807   0.543   4.765   0.089
 1601TIP3   OH2 4808   5.494   4.204   3.380
 1601TIP3    H1 4809   5.445   4.134   3.424
 1601TIP3    H2 4810   5.584   4.174   3.380
 1602TIP3   OH2 4811   3.048   4.394   2.689
 1602TIP3    H1 4812   2.978   4.452   2.658
 1602TIP3    H2 4813   3.034   4.389   2.784
 1603TIP3   OH2 4814   6.201   0.743   0.773
 1603TIP3    H1 4815   6.229   0.726   0.683
 1603TIP3    H2 4816   6.258   0.686   0.826
 1604TIP3   OH2 4817   1.746   4.786   5.007
 1604TIP3    H1 4818   1.763   4.789   4.913
 1604TIP3    H2 4819   1.662   4.832   5.018
 1605TIP3   OH2 4820   4.565   2.929   1.786
 1605TIP3    H1 4821   4.474   2.907   1.804
 1605TIP3    H2 4822   4.575   2.914   1.692
 1606TIP3   OH2 4823   4.395   5.065   0.364
 1606TIP3    H1 4824   4.336   5.041   0.292
 1606TIP3    H2 4825   4.429   4.981   0.395
 1607TIP3   OH2 4826   0.035   3.856   1.510
 1607TIP3    H1 4827  -0.008   3.914   1.573
 1607TIP3    H2 4828  -0.037   3.808   1.469
 1608TIP3   OH2 4829   1.451   4.653   3.002
 1608TIP3    H1 4830   1.464   4.656   3.097
 1608TIP3    H2 4831   1.383   4.587   2.990
 1609TIP3   OH2 4832   4.317   5.203   4.925
 1609TIP3    H1 4833   4.391   5.142   4.915
 1609TIP3    H2 4834   4.322   5.260   4.849
 1610TIP3   OH2 4835   4.629   5.658   3.309
 1610TIP3    H1 4836   4.652   5.666   3.402
 1610TIP3    H2 4837   4.713   5.665   3.263
 1611TIP3   OH2 4838   5.999   0.129   0.250
 1611TIP3    H1 4839   5.945   0.112   0.327
 1611TIP3    H2 4840   6.086   0.098   0.273
 1612TIP3   OH2 4841   3.369   4.754   1.062
 1612TIP3    H1 4842   3.296   4.815   1.065
 1612TIP3    H2 4843   3.447   4.809   1.064
 1613TIP3   OH2 4844   6.149   2.881   3.681
 1613TIP3    H1 4845   6.124   2.802   3.634
 1613TIP3    H2 4846   6.209   2.927   3.623
 1614TIP3   OH2 4847   0.444   4.911   3.189
 1614TIP3    H1 4848   0.349   4.917   3.195
 1614TIP3    H2 4849   0.475   5.001   3.197
 1615TIP3   OH2 4850   6.081   0.983   2.912
 1615TIP3    H1 4851   6.122   0.979   2.825
 1615TIP3    H2 4852   6.142   1.034   2.965
 1616TIP3   OH2 4853   3.791   5.152   0.761
 1616TIP3    H1 4854   3.879   5.156   0.798
 1616TIP3    H2 4855   3.804   5.157   0.666
 1617TIP3   OH2 4856   3.149   0.563   1.777
 1617TIP3    H1 4857   3.217   0.619   1.815
 1617TIP3    H2 4858   3.197   0.487   1.744
 1618TIP3   OH2 4859   1.857   2.399   2.364
 1618TIP3    H1 4860   1.934   2.437   2.321
 1618TIP3    H2 4861   1.882   2.392   2.456
 1619TIP3   OH2 4862   5.771   5.991   2.330
 1619TIP3    H1 4863   5.792   6.008   2.239
 1619TIP3    H2 4864   5.815   5.909   2.351
 1620TIP3   OH2 4865   5.612   0.798   3.066
 1620TIP3    H1 4866   5.629   0.720   3.013
 1620TIP3    H2 4867   5.686   0.856   3.046
 1621TIP3   OH2 4868   2.138   0.462   3.429
 1621TIP3    H1 4869   2.116   0.555   3.421
 1621TIP3    H2 4870   2.135   0.428   3.340
 1622TIP3   OH2 4871   3.120   4.900   1.192
 1622TIP3    H1 4872   3.060   4.833   1.159
 1622TIP3    H2 4873   3.101   4.977   1.139
 1623TIP3   OH2 4874   5.508   0.922   3.410
 1623TIP3    H1 4875   5.528   0.832   3.438
 1623TIP3    H2 4876   5.587   0.972   3.430
 1624TIP3   OH2 4877   4.484   3.818   0.185
 1624TIP3    H1 4878   4.509   3.759   0.256
 1624TIP3    H2 4879   4.460   3.899   0.230
 1625TIP3   OH2 4880   6.027   2.297   4.380
 1625TIP3    H1 4881   6.035   2.207   4.348
 1625TIP3    H2 4882   6.077   2.349   4.316
 1626TIP3   OH2 4883   4.693   0.457   0.940
 1626TIP3    H1 4884   4.682   0.377   0.990
 1626TIP3    H2 4885   4.671   0.433   0.850
 1627TIP3   OH2 4886   6.200   2.260   3.779
 1627TIP3    H1 4887   6.293   2.283   3.773
 1627TIP3    H2 4888   6.175   2.238   3.690
 1628TIP3   OH2 4889   1.517   5.153   1.846
 1628TIP3    H1 4890   1.574   5.079   1.824
 1628TIP3    H2 4891   1.572   5.209   1.901
 1629TIP3   OH2 4892   0.511   5.638   1.746
 1629TIP3    H1 4893   0.480   5.630   1.836
 1629TIP3    H2 4894   0.587   5.580   1.742
 1630TIP3   OH2 4895   5.936   1.344   1.989
 1630TIP3    H1 4896   6.008   1.376   2.044
 1630TIP3    H2 4897   5.857   1.365   2.038
 1631TIP3   OH2 4898   6.081   1.957   3.162
 1631TIP3    H1 4899   6.094   1.997   3.076
 1631TIP3    H2 4900   6.146   1.887   3.166
 1632TIP3   OH2 4901   3.449   0.380   4.018
 1632TIP3    H1 4902   3.403   0.450   4.066
 1632TIP3    H2 4903   3.484   0.324   4.086
 1633TIP3   OH2 4904   2.051   4.581   5.000
 1633TIP3    H1 4905   1.990   4.563   4.928
 1633TIP3    H2 4906   2.003   4.553   5.079
 1634TIP3   OH2 4907   5.508   3.959   1.236
 1634TIP3    H1 4908   5.581   4.005   1.195
 1634TIP3    H2 4909   5.539   3.869   1.246
 1635TIP3   OH2 4910   0.504   1.314   3.504
 1635TIP3    H1 4911   0.581   1.369   3.489
 1635TIP3    H2 4912   0.430   1.373   3.494
 1636TIP3   OH2 4913   0.262   2.193   4.188
 1636TIP3    H1 4914   0.193   2.232   4.242
 1636TIP3    H2 4915   0.287   2.262   4.127
 1637TIP3   OH2 4916   4.348   3.413   4.105
 1637TIP3    H1 4917   4.276   3.367   4.149
 1637TIP3    H2 4918   4.342   3.387   4.014
 1638TIP3   OH2 4919   3.757   3.063   1.436
 1638TIP3    H1 4920   3.676   3.012   1.437
 1638TIP3    H2 4921   3.801   3.036   1.356
 1639TIP3   OH2 4922   4.993   2.004   1.486
 1639TIP3    H1 4923   5.005   2.067   1.415
 1639TIP3    H2 4924   4.969   1.922   1.442
 1640TIP3   OH2 4925   4.007   0.399   2.832
 1640TIP3    H1 4926   3.928   0.450   2.817
 1640TIP3    H2 4927   3.984   0.338   2.903
 1641TIP3   OH2 4928   4.043   4.504   5.052
 1641TIP3    H1 4929   4.054   4.432   4.990
 1641TIP3    H2 4930   4.032   4.582   4.996
 1642TIP3   OH2 4931   5.924   3.919   4.158
 1642TIP3    H1 4932   5.846   3.928   4.104
 1642TIP3    H2 4933   5.891   3.890   4.243
 1643TIP3   OH2 4934   4.406   4.760   4.072
 1643TIP3    H1 4935   4.436   4.670   4.061
 1643TIP3    H2 4936   4.375   4.786   3.986
 1644TIP3   OH2 4937   2.984   5.327   2.956
 1644TIP3    H1 4938   3.031   5.367   3.030
 1644TIP3    H2 4939   3.050   5.321   2.887
 1645TIP3   OH2 4940   6.355   3.878   3.171
 1645TIP3    H1 4941   6.270   3.837   3.190
 1645TIP3    H2 4942   6.363   3.947   3.236
 1646TIP3   OH2 4943   2.996   5.344   1.787
 1646TIP3    H1 4944   2.932   5.412   1.806
 1646TIP3    H2 4945   2.954   5.289   1.720
 1647TIP3   OH2 4946   0.600   2.214   5.154
 1647TIP3    H1 4947   0.651   2.136   5.132
 1647TIP3    H2 4948   0.630   2.281   5.092
 1648TIP3   OH2 4949   4.347   3.873   4.396
 1648TIP3    H1 4950   4.318   3.795   4.350
 1648TIP3    H2 4951   4.374   3.842   4.483
 1649TIP3   OH2 4952   4.805   3.866   1.951
 1649TIP3    H1 4953   4.815   3.774   1.975
 1649TIP3    H2 4954   4.777   3.864   1.859
 1650TIP3   OH2 4955   5.723   0.829   0.644
 1650TIP3    H1 4956   5.697   0.863   0.730
 1650TIP3    H2 4957   5.668   0.876   0.582
 1651TIP3   OH2 4958   2.336   2.693   3.569
 1651TIP3    H1 4959   2.294   2.772   3.535
 1651TIP3    H2 4960   2.404   2.672   3.505
 1652TIP3   OH2 4961   2.636   0.410   0.143
 1652TIP3    H1 4962   2.725   0.395   0.113
 1652TIP3    H2 4963   2.594   0.324   0.141
 1653TIP3   OH2 4964   3.747   3.577   4.527
 1653TIP3    H1 4965   3.660   3.618   4.531
 1653TIP3    H2 4966   3.739   3.500   4.583
 1654TIP3   OH2 4967   2.680   1.820   3.495
 1654TIP3    H1 4968   2.775   1.821   3.509
 1654TIP3    H2 4969   2.669   1.773   3.413
 1655TIP3   OH2 4970   5.213   1.650   4.563
 1655TIP3    H1 4971   5.274   1.606   4.622
 1655TIP3    H2 4972   5.196   1.734   4.605
 1656TIP3   OH2 4973   5.264   2.971   4.262
 1656TIP3    H1 4974   5.198   2.908   4.291
 1656TIP3    H2 4975   5.261   2.965   4.166
 1657TIP3   OH2 4976   2.057   4.174   4.936
 1657TIP3    H1 4977   2.022   4.157   5.024
 1657TIP3    H2 4978   2.108   4.095   4.916
 1658TIP3   OH2 4979   6.047   1.580   2.958
 1658TIP3    H1 4980   6.034   1.639   3.032
 1658TIP3    H2 4981   6.135   1.545   2.970
 1659TIP3   OH2 4982   0.248   0.497   2.184
 1659TIP3    H1 4983   0.186   0.570   2.188
 1659TIP3    H2 4984   0.333   0.537   2.200
 1660TIP3   OH2 4985   3.516   2.681   1.617
 1660TIP3    H1 4986   3.497   2.588   1.609
 1660TIP3    H2 4987   3.465   2.711   1.692
 1661TIP3   OH2 4988   5.474   1.700   0.795
 1661TIP3    H1 4989   5.533   1.640   0.750
 1661TIP3    H2 4990   5.388   1.658   0.790
 1662TIP3   OH2 4991   6.066   2.926   0.767
 1662TIP3    H1 4992   5.984   2.975   0.772
 1662TIP3    H2 4993   6.046   2.842   0.807
 1663TIP3   OH2 4994   4.713   2.591   3.111
 1663TIP3    H1 4995   4.658   2.591   3.032
 1663TIP3    H2 4996   4.691   2.509   3.155
 1664TIP3   OH2 4997   0.205   3.970   2.980
 1664TIP3    H1 4998   0.144   3.919   3.034
 1664TIP3    H2 4999   0.178   3.952   2.890
 1665TIP3   OH2 5000   1.806   1.986   0.144
 1665TIP3    H1 5001   1.769   1.906   0.180
 1665TIP3    H2 5002   1.897   1.986   0.174
 1666TIP3   OH2 5003   1.332   4.625   1.575
 1666TIP3    H1 5004   1.299   4.579   1.653
 1666TIP3    H2 5005   1.310   4.567   1.502
 1667TIP3   OH2 5006   5.695   4.796   1.668
 1667TIP3    H1 5007   5.782   4.775   1.633
 1667TIP3    H2 5008   5.680   4.887   1.641
 1668TIP3   OH2 5009   2.217   0.394   1.931
 1668TIP3    H1 5010   2.242   0.417   1.841
 1668TIP3    H2 5011   2.138   0.342   1.921
 1669TIP3   OH2 5012   5.787   5.196   1.215
 1669TIP3    H1 5013   5.854   5.238   1.162
 1669TIP3    H2 5014   5.803   5.227   1.304
 1670TIP3   OH2 5015   5.963   4.138   3.657
 1670TIP3    H1 5016   6.033   4.137   3.592
 1670TIP3    H2 5017   5.988   4.072   3.721
 1671TIP3   OH2 5018   2.576   3.256   5.170
 1671TIP3    H1 5019   2.610   3.342   5.196
 1671TIP3    H2 5020   2.630   3.230   5.096
 1672TIP3   OH2 5021   4.604   1.233   2.390
 1672TIP3    H1 5022   4.532   1.279   2.346
 1672TIP3    H2 5023   4.638   1.173   2.324
 1673TIP3   OH2 5024   5.829   1.389   0.670
 1673TIP3    H1 5025   5.834   1.343   0.753
 1673TIP3    H2 5026   5.848   1.322   0.604
 1674TIP3   OH2 5027   5.988   4.558   3.461
 1674TIP3    H1 5028   5.929   4.505   3.515
 1674TIP3    H2 5029   6.065   4.504   3.448
 1675TIP3   OH2 5030   5.437   5.838   0.871
 1675TIP3    H1 5031   5.379   5.889   0.814
 1675TIP3    H2 5032   5.405   5.749   0.865
 1676TIP3   OH2 5033   1.616   0.083   4.560
 1676TIP3    H1 5034   1.655   0.168   4.537
 1676TIP3    H2 5035   1.522   0.098   4.554
 1677TIP3   OH2 5036   4.913   3.271   1.315
 1677TIP3    H1 5037   4.956   3.293   1.232
 1677TIP3    H2 5038   4.974   3.301   1.382
 1678TIP3   OH2 5039   2.210   1.170   2.156
 1678TIP3    H1 5040   2.304   1.187   2.155
 1678TIP3    H2 5041   2.200   1.092   2.211
 1679TIP3   OH2 5042   2.787   5.594   0.943
 1679TIP3    H1 5043   2.733   5.636   1.010
 1679TIP3    H2 5044   2.831   5.522   0.989
 1680TIP3   OH2 5045   3.637   5.336   4.277
 1680TIP3    H1 5046   3.611   5.251   4.245
 1680TIP3    H2 5047   3.668   5.383   4.200
 1681TIP3   OH2 5048   5.290   0.436   1.601
 1681TIP3    H1 5049   5.299   0.530   1.585
 1681TIP3    H2 5050   5.306   0.395   1.516
 1682TIP3   OH2 5051   1.489   2.677   3.514
 1682TIP3    H1 5052   1.514   2.623   3.589
 1682TIP3    H2 5053   1.533   2.761   3.528
 1683TIP3   OH2 5054   1.530   4.990   4.498
 1683TIP3    H1 5055   1.619   4.954   4.487
 1683TIP3    H2 5056   1.531   5.072   4.449
 1684TIP3   OH2 5057   4.316   0.939   0.416
 1684TIP3    H1 5058   4.281   0.908   0.333
 1684TIP3    H2 5059   4.320   1.034   0.407
 1685TIP3   OH2 5060   0.945   5.605   0.680
 1685TIP3    H1 5061   0.944   5.638   0.590
 1685TIP3    H2 5062   0.854   5.611   0.709
 1686TIP3   OH2 5063   3.358   1.392   5.136
 1686TIP3    H1 5064   3.330   1.354   5.052
 1686TIP3    H2 5065   3.409   1.322   5.178
 1687TIP3   OH2 5066   2.043   4.769   4.449
 1687TIP3    H1 5067   2.138   4.784   4.445
 1687TIP3    H2 5068   2.032   4.711   4.525
 1688TIP3   OH2 5069   1.103   2.439   1.925
 1688TIP3    H1 5070   1.136   2.439   1.835
 1688TIP3    H2 5071   1.078   2.347   1.940
 1689TIP3   OH2 5072   0.338   5.189   0.215
 1689TIP3    H1 5073   0.352   5.143   0.298
 1689TIP3    H2 5074   0.244   5.178   0.198
 1690TIP3   OH2 5075   1.724   5.451   4.090
 1690TIP3    H1 5076   1.671   5.433   4.013
 1690TIP3    H2 5077   1.769   5.368   4.107
 1691TIP3   OH2 5078   5.865   4.248   1.770
 1691TIP3    H1 5079   5.854   4.154   1.756
 1691TIP3    H2 5080   5.800   4.288   1.713
 1692TIP3   OH2 5081   2.242   2.920   4.593
 1692TIP3    H1 5082   2.330   2.883   4.585
 1692TIP3    H2 5083   2.206   2.880   4.672
 1693TIP3   OH2 5084   3.531   5.623   1.465
 1693TIP3    H1 5085   3.575   5.541   1.486
 1693TIP3    H2 5086   3.580   5.659   1.392
 1694TIP3   OH2 5087   1.825   2.132   2.162
 1694TIP3    H1 5088   1.798   2.117   2.253
 1694TIP3    H2 5089   1.794   2.054   2.115
 1695TIP3   OH2 5090   0.948   0.825   1.581
 1695TIP3    H1 5091   0.905   0.900   1.621
 1695TIP3    H2 5092   0.895   0.803   1.505
 1696TIP3   OH2 5093   3.782   2.003   5.096
 1696TIP3    H1 5094   3.715   1.938   5.074
 1696TIP3    H2 5095   3.847   1.954   5.145
 1697TIP3   OH2 5096   1.065   5.254   4.030
 1697TIP3    H1 5097   0.998   5.254   3.962
 1697TIP3    H2 5098   1.075   5.161   4.054
 1698TIP3   OH2 5099   0.718   3.779   2.542
 1698TIP3    H1 5100   0.765   3.704   2.579
 1698TIP3    H2 5101   0.697   3.752   2.453
 1699TIP3   OH2 5102   5.452   1.654   0.449
 1699TIP3    H1 5103   5.524   1.716   0.436
 1699TIP3    H2 5104   5.491   1.582   0.498
 1700TIP3   OH2 5105   1.283   1.934   5.015
 1700TIP3    H1 5106   1.220   1.928   4.944
 1700TIP3    H2 5107   1.364   1.964   4.974
 1701TIP3   OH2 5108   4.168   5.615   3.930
 1701TIP3    H1 5109   4.202   5.610   3.840
 1701TIP3    H2 5110   4.074   5.603   3.921
 1702TIP3   OH2 5111   2.722   1.934   3.190
 1702TIP3    H1 5112   2.628   1.927   3.204
 1702TIP3    H2 5113   2.747   1.851   3.149
 1703TIP3   OH2 5114   2.424   4.801   1.280
 1703TIP3    H1 5115   2.376   4.721   1.302
 1703TIP3    H2 5116   2.362   4.853   1.229
 1704TIP3   OH2 5117   2.073   4.184   0.836
 1704TIP3    H1 5118   2.005   4.172   0.903
 1704TIP3    H2 5119   2.097   4.276   0.843
 1705TIP3   OH2 5120   4.271   0.168   1.508
 1705TIP3    H1 5121   4.313   0.123   1.436
 1705TIP3    H2 5122   4.301   0.122   1.586
 1706TIP3   OH2 5123   5.590   1.479   2.169
 1706TIP3    H1 5124   5.610   1.440   2.255
 1706TIP3    H2 5125   5.505   1.522   2.181
 1707TIP3   OH2 5126   2.418   0.222   1.886
 1707TIP3    H1 5127   2.361   0.274   1.942
 1707TIP3    H2 5128   2.488   0.282   1.861
 1708TIP3   OH2 5129   4.193   2.720   1.258
 1708TIP3    H1 5130   4.171   2.630   1.234
 1708TIP3    H2 5131   4.113   2.769   1.240
 1709TIP3   OH2 5132   5.569   5.028   3.830
 1709TIP3    H1 5133   5.562   5.123   3.829
 1709TIP3    H2 5134   5.656   5.011   3.867
 1710TIP3   OH2 5135   5.583   1.035   2.863
 1710TIP3    H1 5136   5.636   0.957   2.881
 1710TIP3    H2 5137   5.495   1.012   2.893
 1711TIP3   OH2 5138   4.946   3.992   1.278
 1711TIP3    H1 5139   4.872   4.052   1.290
 1711TIP3    H2 5140   5.023   4.046   1.298
 1712TIP3   OH2 5141   0.930   5.723   2.352
 1712TIP3    H1 5142   0.854   5.781   2.344
 1712TIP3    H2 5143   0.892   5.636   2.367
 1713TIP3   OH2 5144   2.271   0.126   2.551
 1713TIP3    H1 5145   2.269   0.078   2.634
 1713TIP3    H2 5146   2.182   0.162   2.543
 1714TIP3   OH2 5147   3.704   0.707   0.408
 1714TIP3    H1 5148   3.796   0.728   0.422
 1714TIP3    H2 5149   3.688   0.728   0.316
 1715TIP3   OH2 5150   2.641   2.003   0.570
 1715TIP3    H1 5151   2.722   1.953   0.583
 1715TIP3    H2 5152   2.657   2.087   0.613
 1716TIP3   OH2 5153   4.558   3.906   0.831
 1716TIP3    H1 5154   4.629   3.925   0.893
 1716TIP3    H2 5155   4.499   3.848   0.879
 1717TIP3   OH2 5156   3.629   4.336   0.856
 1717TIP3    H1 5157   3.538   4.361   0.870
 1717TIP3    H2 5158   3.625   4.263   0.794
 1718TIP3   OH2 5159   1.725   2.753   0.072
 1718TIP3    H1 5160   1.669   2.773  -0.002
 1718TIP3    H2 5161   1.809   2.727   0.033
 1719TIP3   OH2 5162   3.844   4.700   3.976
 1719TIP3    H1 5163   3.840   4.759   4.052
 1719TIP3    H2 5164   3.755   4.667   3.967
 1720TIP3   OH2 5165   0.811   4.406   4.074
 1720TIP3    H1 5166   0.901   4.410   4.040
 1720TIP3    H2 5167   0.802   4.316   4.105
 1721TIP3   OH2 5168   1.081   0.294   5.015
 1721TIP3    H1 5169   1.035   0.352   5.075
 1721TIP3    H2 5170   1.013   0.237   4.978
 1722TIP3   OH2 5171   0.361   5.146   3.959
 1722TIP3    H1 5172   0.283   5.197   3.984
 1722TIP3    H2 5173   0.327   5.074   3.906
 1723TIP3   OH2 5174   1.405   2.140   2.188
 1723TIP3    H1 5175   1.330   2.188   2.222
 1723TIP3    H2 5176   1.438   2.090   2.264
 1724TIP3   OH2 5177   1.763   4.195   1.308
 1724TIP3    H1 5178   1.761   4.289   1.325
 1724TIP3    H2 5179   1.729   4.155   1.388
 1725TIP3   OH2 5180   5.790   0.097   0.060
 1725TIP3    H1 5181   5.881   0.069   0.054
 1725TIP3    H2 5182   5.767   0.122  -0.030
 1726TIP3   OH2 5183   5.559   0.391   2.203
 1726TIP3    H1 5184   5.538   0.318   2.145
 1726TIP3    H2 5185   5.475   0.416   2.242
 1727TIP3   OH2 5186   5.282   4.156   2.467
 1727TIP3    H1 5187   5.255   4.209   2.542
 1727TIP3    H2 5188   5.224   4.080   2.469
 1728TIP3   OH2 5189   3.247   4.660   2.393
 1728TIP3    H1 5190   3.323   4.683   2.445
 1728TIP3    H2 5191   3.248   4.565   2.387
 1729TIP3   OH2 5192   2.093   3.311   4.005
 1729TIP3    H1 5193   2.028   3.339   4.070
 1729TIP3    H2 5194   2.096   3.382   3.942
 1730TIP3   OH2 5195   2.326   5.373   4.533
 1730TIP3    H1 5196   2.376   5.304   4.577
 1730TIP3    H2 5197   2.355   5.369   4.442
 1731TIP3   OH2 5198   5.898   3.561   0.626
 1731TIP3    H1 5199   5.850   3.482   0.602
 1731TIP3    H2 5200   5.835   3.633   0.611
 1732TIP3   OH2 5201   6.284   1.369   0.404
 1732TIP3    H1 5202   6.313   1.431   0.336
 1732TIP3    H2 5203   6.204   1.408   0.439
 1733TIP3   OH2 5204   0.232   3.917   2.264
 1733TIP3    H1 5205   0.302   3.895   2.326
 1733TIP3    H2 5206   0.212   3.835   2.220
 1734TIP3   OH2 5207   2.597   3.971   1.247
 1734TIP3    H1 5208   2.559   3.922   1.320
 1734TIP3    H2 5209   2.680   3.927   1.229
 1735TIP3   OH2 5210   2.988   1.757   3.479
 1735TIP3    H1 5211   3.019   1.793   3.562
 1735TIP3    H2 5212   2.979   1.834   3.422
 1736TIP3   OH2 5213   3.680   4.319   2.114
 1736TIP3    H1 5214   3.679   4.287   2.204
 1736TIP3    H2 5215   3.649   4.410   2.121
 1737TIP3   OH2 5216   5.327   0.283   1.357
 1737TIP3    H1 5217   5.235   0.266   1.338
 1737TIP3    H2 5218   5.366   0.305   1.272
 1738TIP3   OH2 5219   3.752   0.947   1.373
 1738TIP3    H1 5220   3.826   0.978   1.319
 1738TIP3    H2 5221   3.687   0.917   1.309
 1739TIP3   OH2 5222   4.319   5.748   1.006
 1739TIP3    H1 5223   4.269   5.816   1.050
 1739TIP3    H2 5224   4.277   5.738   0.921
 1740TIP3   OH2 5225   4.571   3.669   0.409
 1740TIP3    H1 5226   4.647   3.690   0.464
 1740TIP3    H2 5227   4.559   3.575   0.419
 1741TIP3   OH2 5228   4.408   2.383   3.445
 1741TIP3    H1 5229   4.364   2.456   3.401
 1741TIP3    H2 5230   4.456   2.423   3.517
 1742TIP3   OH2 5231   0.752   4.702   2.133
 1742TIP3    H1 5232   0.699   4.688   2.055
 1742TIP3    H2 5233   0.758   4.615   2.173
 1743TIP3   OH2 5234   5.304   5.715   3.358
 1743TIP3    H1 5235   5.315   5.703   3.263
 1743TIP3    H2 5236   5.211   5.702   3.373
 1744TIP3   OH2 5237   5.748   0.972   1.435
 1744TIP3    H1 5238   5.784   0.916   1.366
 1744TIP3    H2 5239   5.718   0.912   1.502
 1745TIP3   OH2 5240   3.257   4.387   4.043
 1745TIP3    H1 5241   3.316   4.324   4.083
 1745TIP3    H2 5242   3.170   4.360   4.072
 1746TIP3   OH2 5243   0.019   4.564   1.635
 1746TIP3    H1 5244   0.076   4.516   1.696
 1746TIP3    H2 5245   0.078   4.596   1.567
 1747TIP3   OH2 5246   5.503   2.961   1.440
 1747TIP3    H1 5247   5.419   2.996   1.412
 1747TIP3    H2 5248   5.519   2.887   1.381
 1748TIP3   OH2 5249   1.934   4.927   3.164
 1748TIP3    H1 5250   1.900   4.838   3.165
 1748TIP3    H2 5251   1.857   4.982   3.178
 1749TIP3   OH2 5252   4.410   5.627   2.336
 1749TIP3    H1 5253   4.496   5.603   2.371
 1749TIP3    H2 5254   4.381   5.699   2.393
 1750TIP3   OH2 5255   4.745   4.616   2.357
 1750TIP3    H1 5256   4.765   4.682   2.290
 1750TIP3    H2 5257   4.726   4.666   2.436
 1751TIP3   OH2 5258   5.511   5.420   0.615
 1751TIP3    H1 5259   5.498   5.515   0.620
 1751TIP3    H2 5260   5.567   5.408   0.539
 1752TIP3   OH2 5261   5.713   4.092   3.484
 1752TIP3    H1 5262   5.702   4.032   3.558
 1752TIP3    H2 5263   5.802   4.126   3.495
 1753TIP3   OH2 5264   6.251   0.262   0.152
 1753TIP3    H1 5265   6.303   0.297   0.079
 1753TIP3    H2 5266   6.302   0.286   0.230
 1754TIP3   OH2 5267   2.112   1.759   3.301
 1754TIP3    H1 5268   2.162   1.695   3.250
 1754TIP3    H2 5269   2.119   1.728   3.391
 1755TIP3   OH2 5270   1.016   5.539   2.744
 1755TIP3    H1 5271   1.025   5.632   2.720
 1755TIP3    H2 5272   0.936   5.535   2.796
 1756TIP3   OH2 5273   0.124   3.352   4.518
 1756TIP3    H1 5274   0.041   3.310   4.494
 1756TIP3    H2 5275   0.191   3.288   4.494
 1757TIP3   OH2 5276   1.003   2.751   2.573
 1757TIP3    H1 5277   1.002   2.698   2.653
 1757TIP3    H2 5278   1.094   2.782   2.567
 1758TIP3   OH2 5279   4.684   2.880   2.407
 1758TIP3    H1 5280   4.740   2.845   2.477
 1758TIP3    H2 5281   4.742   2.936   2.356
 1759TIP3   OH2 5282   5.474   1.427   1.748
 1759TIP3    H1 5283   5.490   1.405   1.656
 1759TIP3    H2 5284   5.456   1.342   1.789
 1760TIP3   OH2 5285   0.082   0.133   3.211
 1760TIP3    H1 5286   0.119   0.046   3.232
 1760TIP3    H2 5287   0.042   0.162   3.293
 1761TIP3   OH2 5288   4.326   3.070   4.320
 1761TIP3    H1 5289   4.382   3.047   4.246
 1761TIP3    H2 5290   4.286   3.153   4.295
 1762TIP3   OH2 5291   1.073   0.361   1.211
 1762TIP3    H1 5292   1.078   0.409   1.294
 1762TIP3    H2 5293   1.164   0.344   1.187
 1763TIP3   OH2 5294   3.482   2.972   4.461
 1763TIP3    H1 5295   3.511   3.011   4.379
 1763TIP3    H2 5296   3.411   3.029   4.490
 1764TIP3   OH2 5297   0.203   3.934   1.962
 1764TIP3    H1 5298   0.122   3.958   1.917
 1764TIP3    H2 5299   0.233   3.854   1.918
 1765TIP3   OH2 5300   4.263   1.881   0.635
 1765TIP3    H1 5301   4.292   1.966   0.603
 1765TIP3    H2 5302   4.290   1.819   0.567
 1766TIP3   OH2 5303   5.190   1.940   4.625
 1766TIP3    H1 5304   5.281   1.956   4.599
 1766TIP3    H2 5305   5.143   1.932   4.542
 1767TIP3   OH2 5306   1.956   0.821   4.695
 1767TIP3    H1 5307   2.014   0.879   4.745
 1767TIP3    H2 5308   1.875   0.820   4.745
 1768TIP3   OH2 5309   4.848   2.815   0.839
 1768TIP3    H1 5310   4.811   2.819   0.927
 1768TIP3    H2 5311   4.943   2.812   0.852
 1769TIP3   OH2 5312   2.256   4.361   5.030
 1769TIP3    H1 5313   2.222   4.424   4.967
 1769TIP3    H2 5314   2.220   4.277   5.000
 1770TIP3   OH2 5315   3.156   1.807   3.172
 1770TIP3    H1 5316   3.129   1.801   3.080
 1770TIP3    H2 5317   3.235   1.754   3.177
 1771TIP3   OH2 5318   3.472   3.548   2.797
 1771TIP3    H1 5319   3.446   3.467   2.841
 1771TIP3    H2 5320   3.395   3.571   2.744
 1772TIP3   OH2 5321   5.590   5.405   4.900
 1772TIP3    H1 5322   5.603   5.348   4.824
 1772TIP3    H2 5323   5.678   5.434   4.924
 1773TIP3   OH2 5324   3.943   2.143   4.765
 1773TIP3    H1 5325   4.027   2.162   4.722
 1773TIP3    H2 5326   3.904   2.229   4.780
 1774TIP3   OH2 5327   6.054   1.152   2.387
 1774TIP3    H1 5328   6.007   1.146   2.304
 1774TIP3    H2 5329   5.987   1.176   2.452
 1775TIP3   OH2 5330   1.581   4.100   3.830
 1775TIP3    H1 5331   1.532   4.123   3.908
 1775TIP3    H2 5332   1.670   4.129   3.848
 1776TIP3   OH2 5333   2.996   2.259   0.324
 1776TIP3    H1 5334   2.917   2.272   0.271
 1776TIP3    H2 5335   3.045   2.340   0.316
 1777TIP3   OH2 5336   1.990   3.545   1.516
 1777TIP3    H1 5337   1.960   3.600   1.443
 1777TIP3    H2 5338   2.048   3.481   1.475
 1778TIP3   OH2 5339   3.286   5.774   0.401
 1778TIP3    H1 5340   3.297   5.743   0.491
 1778TIP3    H2 5341   3.233   5.853   0.409
 1779TIP3   OH2 5342   1.828   0.878   3.434
 1779TIP3    H1 5343   1.750   0.928   3.459
 1779TIP3    H2 5344   1.858   0.838   3.516
 1780TIP3   OH2 5345   1.319   4.194   4.350
 1780TIP3    H1 5346   1.384   4.182   4.420
 1780TIP3    H2 5347   1.244   4.143   4.379
 1781TIP3   OH2 5348   6.092   5.351   3.484
 1781TIP3    H1 5349   6.128   5.264   3.464
 1781TIP3    H2 5350   6.152   5.412   3.442
 1782TIP3   OH2 5351   0.539   0.787   1.502
 1782TIP3    H1 5352   0.513   0.876   1.478
 1782TIP3    H2 5353   0.472   0.731   1.463
 1783TIP3   OH2 5354   1.211   4.140   5.159
 1783TIP3    H1 5355   1.119   4.111   5.154
 1783TIP3    H2 5356   1.252   4.103   5.081
 1784TIP3   OH2 5357   4.923   5.092   1.009
 1784TIP3    H1 5358   4.900   5.091   0.916
 1784TIP3    H2 5359   4.970   5.174   1.021
 1785TIP3   OH2 5360   6.193   3.878   3.675
 1785TIP3    H1 5361   6.149   3.903   3.756
 1785TIP3    H2 5362   6.199   3.783   3.678
 1786TIP3   OH2 5363   3.383   1.657   5.045
 1786TIP3    H1 5364   3.308   1.614   5.086
 1786TIP3    H2 5365   3.450   1.588   5.039
 1787TIP3   OH2 5366   5.731   4.365   2.016
 1787TIP3    H1 5367   5.666   4.365   1.945
 1787TIP3    H2 5368   5.715   4.447   2.063
 1788TIP3   OH2 5369   0.740   2.224   2.540
 1788TIP3    H1 5370   0.702   2.153   2.488
 1788TIP3    H2 5371   0.785   2.279   2.477
 1789TIP3   OH2 5372   3.467   4.282   3.821
 1789TIP3    H1 5373   3.413   4.286   3.900
 1789TIP3    H2 5374   3.405   4.264   3.750
 1790TIP3   OH2 5375   4.484   3.974   0.578
 1790TIP3    H1 5376   4.575   3.983   0.548
 1790TIP3    H2 5377   4.491   3.957   0.671
 1791TIP3   OH2 5378   2.083   4.882   1.376
 1791TIP3    H1 5379   2.015   4.926   1.427
 1791TIP3    H2 5380   2.160   4.883   1.434
 1792TIP3   OH2 5381   5.237   4.801   0.812
 1792TIP3    H1 5382   5.191   4.883   0.791
 1792TIP3    H2 5383   5.253   4.806   0.906
 1793TIP3   OH2 5384   3.677   5.314   0.986
 1793TIP3    H1 5385   3.677   5.257   0.909
 1793TIP3    H2 5386   3.650   5.399   0.952
 1794TIP3   OH2 5387   1.529   5.568   1.278
 1794TIP3    H1 5388   1.595   5.629   1.311
 1794TIP3    H2 5389   1.447   5.617   1.283
 1795TIP3   OH2 5390   3.903   4.334   0.965
 1795TIP3    H1 5391   3.809   4.341   0.950
 1795TIP3    H2 5392   3.912   4.266   1.032
 1796TIP3   OH2 5393   4.278   2.954   3.098
 1796TIP3    H1 5394   4.216   2.884   3.118
 1796TIP3    H2 5395   4.338   2.915   3.034
 1797TIP3   OH2 5396   0.060   4.346   4.313
 1797TIP3    H1 5397   0.126   4.284   4.345
 1797TIP3    H2 5398   0.108   4.427   4.298
 1798TIP3   OH2 5399   3.120   0.541   2.169
 1798TIP3    H1 5400   3.181   0.573   2.102
 1798TIP3    H2 5401   3.086   0.459   2.132
 1799TIP3   OH2 5402   5.877   3.956   2.610
 1799TIP3    H1 5403   5.906   3.921   2.694
 1799TIP3    H2 5404   5.790   3.992   2.628
 1800TIP3   OH2 5405   3.047   0.711   1.039
 1800TIP3    H1 5406   3.031   0.680   1.129
 1800TIP3    H2 5407   3.084   0.635   0.994
 1801TIP3   OH2 5408   4.705   5.476   4.050
 1801TIP3    H1 5409   4.717   5.459   4.144
 1801TIP3    H2 5410   4.792   5.463   4.012
 1802TIP3   OH2 5411   5.264   0.932   4.672
 1802TIP3    H1 5412   5.328   0.868   4.640
 1802TIP3    H2 5413   5.179   0.887   4.662
 1803TIP3   OH2 5414   0.945   0.844   1.128
 1803TIP3    H1 5415   0.980   0.904   1.063
 1803TIP3    H2 5416   0.877   0.894   1.173
 1804TIP3   OH2 5417   1.738   4.899  -0.011
 1804TIP3    H1 5418   1.780   4.958  -0.073
 1804TIP3    H2 5419   1.699   4.956   0.054
 1805TIP3   OH2 5420   1.930   2.413   0.070
 1805TIP3    H1 5421   1.849   2.394   0.022
 1805TIP3    H2 5422   1.923   2.361   0.150
 1806TIP3   OH2 5423   4.851   3.066   2.285
 1806TIP3    H1 5424   4.833   3.116   2.206
 1806TIP3    H2 5425   4.933   3.020   2.267
 1807TIP3   OH2 5426   0.658   2.612   1.689
 1807TIP3    H1 5427   0.751   2.599   1.668
 1807TIP3    H2 5428   0.659   2.648   1.778
 1808TIP3   OH2 5429   1.281   2.808   2.592
 1808TIP3    H1 5430   1.284   2.734   2.652
 1808TIP3    H2 5431   1.364   2.805   2.545
 1809TIP3   OH2 5432   2.271   4.635   3.227
 1809TIP3    H1 5433   2.211   4.573   3.186
 1809TIP3    H2 5434   2.335   4.580   3.272
 1810TIP3   OH2 5435   1.876   1.987   4.296
 1810TIP3    H1 5436   1.836   1.912   4.250
 1810TIP3    H2 5437   1.892   2.051   4.227
 1811TIP3   OH2 5438   1.048   0.970   2.773
 1811TIP3    H1 5439   1.030   1.061   2.748
 1811TIP3    H2 5440   1.136   0.953   2.740
 1812TIP3   OH2 5441   1.443   4.325   2.808
 1812TIP3    H1 5442   1.418   4.245   2.762
 1812TIP3    H2 5443   1.400   4.395   2.759
 1813TIP3   OH2 5444   2.285   1.058   2.734
 1813TIP3    H1 5445   2.282   1.029   2.643
 1813TIP3    H2 5446   2.216   1.007   2.777
 1814TIP3   OH2 5447   2.771   5.214   2.849
 1814TIP3    H1 5448   2.841   5.268   2.885
 1814TIP3    H2 5449   2.814   5.133   2.824
 1815TIP3   OH2 5450   1.078   5.765   3.805
 1815TIP3    H1 5451   1.153   5.817   3.778
 1815TIP3    H2 5452   1.102   5.674   3.785
 1816TIP3   OH2 5453   0.869   2.443   5.109
 1816TIP3    H1 5454   0.861   2.384   5.185
 1816TIP3    H2 5455   0.801   2.413   5.049
 1817TIP3   OH2 5456   2.008   1.280   3.728
 1817TIP3    H1 5457   2.088   1.231   3.749
 1817TIP3    H2 5458   1.951   1.216   3.685
 1818TIP3   OH2 5459   3.817   0.316   4.573
 1818TIP3    H1 5460   3.828   0.411   4.569
 1818TIP3    H2 5461   3.903   0.280   4.553
 1819TIP3   OH2 5462   1.647   1.498   5.139
 1819TIP3    H1 5463   1.727   1.462   5.102
 1819TIP3    H2 5464   1.657   1.593   5.131
 1820TIP3   OH2 5465   5.748   5.959   0.539
 1820TIP3    H1 5466   5.806   5.974   0.465
 1820TIP3    H2 5467   5.735   5.864   0.540
 1821TIP3   OH2 5468   5.630   0.883   3.730
 1821TIP3    H1 5469   5.708   0.886   3.675
 1821TIP3    H2 5470   5.559   0.859   3.671
 1822TIP3   OH2 5471   4.013   1.824   3.876
 1822TIP3    H1 5472   4.094   1.785   3.911
 1822TIP3    H2 5473   3.991   1.769   3.801
 1823TIP3   OH2 5474   1.136   2.991   3.592
 1823TIP3    H1 5475   1.076   2.945   3.651
 1823TIP3    H2 5476   1.216   3.002   3.645
 1824TIP3   OH2 5477   3.238   3.530   0.899
 1824TIP3    H1 5478   3.331   3.548   0.913
 1824TIP3    H2 5479   3.213   3.475   0.973
 1825TIP3   OH2 5480   1.617   3.130   2.358
 1825TIP3    H1 5481   1.555   3.085   2.414
 1825TIP3    H2 5482   1.569   3.145   2.276
 1826TIP3   OH2 5483   4.417   5.809   3.212
 1826TIP3    H1 5484   4.469   5.861   3.273
 1826TIP3    H2 5485   4.448   5.720   3.223
 1827TIP3   OH2 5486   0.956   1.649   4.060
 1827TIP3    H1 5487   0.930   1.740   4.049
 1827TIP3    H2 5488   0.963   1.638   4.155
 1828TIP3   OH2 5489   3.943   4.747   0.187
 1828TIP3    H1 5490   4.022   4.697   0.205
 1828TIP3    H2 5491   3.892   4.692   0.127
 1829TIP3   OH2 5492   3.977   5.633   0.607
 1829TIP3    H1 5493   3.892   5.598   0.582
 1829TIP3    H2 5494   4.040   5.579   0.559
 1830TIP3   OH2 5495   4.464   0.397   5.125
 1830TIP3    H1 5496   4.378   0.429   5.099
 1830TIP3    H2 5497   4.450   0.304   5.143
 1831TIP3   OH2 5498   6.342   0.671   1.216
 1831TIP3    H1 5499   6.331   0.748   1.271
 1831TIP3    H2 5500   6.267   0.616   1.235
 1832TIP3   OH2 5501   1.953   2.229   1.634
 1832TIP3    H1 5502   1.905   2.252   1.555
 1832TIP3    H2 5503   2.044   2.222   1.607
 1833TIP3   OH2 5504   3.019   3.832   2.837
 1833TIP3    H1 5505   3.023   3.888   2.914
 1833TIP3    H2 5506   3.017   3.894   2.763
 1834TIP3   OH2 5507   5.935   0.275   2.242
 1834TIP3    H1 5508   5.932   0.317   2.328
 1834TIP3    H2 5509   5.857   0.219   2.240
 1835TIP3   OH2 5510   0.851   0.275   3.226
 1835TIP3    H1 5511   0.818   0.292   3.138
 1835TIP3    H2 5512   0.924   0.336   3.237
 1836TIP3   OH2 5513   1.515   5.154   2.275
 1836TIP3    H1 5514   1.481   5.081   2.223
 1836TIP3    H2 5515   1.467   5.231   2.242
 1837TIP3   OH2 5516   3.862   3.173   0.917
 1837TIP3    H1 5517   3.948   3.215   0.911
 1837TIP3    H2 5518   3.804   3.232   0.870
 1838TIP3   OH2 5519   2.470   5.204   1.517
 1838TIP3    H1 5520   2.504   5.227   1.603
 1838TIP3    H2 5521   2.381   5.239   1.516
 1839TIP3   OH2 5522   3.354   4.311   0.266
 1839TIP3    H1 5523   3.407   4.391   0.264
 1839TIP3    H2 5524   3.372   4.268   0.182
 1840TIP3   OH2 5525   4.689   1.624   0.363
 1840TIP3    H1 5526   4.654   1.700   0.410
 1840TIP3    H2 5527   4.731   1.571   0.431
 1841TIP3   OH2 5528   5.634   2.643   4.606
 1841TIP3    H1 5529   5.615   2.550   4.606
 1841TIP3    H2 5530   5.702   2.654   4.539
 1842TIP3   OH2 5531   2.689   1.511   1.378
 1842TIP3    H1 5532   2.635   1.573   1.328
 1842TIP3    H2 5533   2.769   1.560   1.399
 1843TIP3   OH2 5534   1.052   4.349   4.832
 1843TIP3    H1 5535   1.056   4.259   4.801
 1843TIP3    H2 5536   1.135   4.361   4.879
 1844TIP3   OH2 5537   1.504   5.608   4.599
 1844TIP3    H1 5538   1.545   5.556   4.530
 1844TIP3    H2 5539   1.504   5.697   4.566
 1845TIP3   OH2 5540   2.092   5.920   1.985
 1845TIP3    H1 5541   2.084   5.854   1.915
 1845TIP3    H2 5542   2.168   5.893   2.035
 1846TIP3   OH2 5543   4.846   1.222   3.623
 1846TIP3    H1 5544   4.795   1.195   3.547
 1846TIP3    H2 5545   4.937   1.224   3.592
 1847TIP3   OH2 5546   4.506   3.284   1.650
 1847TIP3    H1 5547   4.583   3.273   1.594
 1847TIP3    H2 5548   4.439   3.229   1.610
 1848TIP3   OH2 5549   1.717   5.246   0.475
 1848TIP3    H1 5550   1.793   5.274   0.425
 1848TIP3    H2 5551   1.741   5.160   0.510
 1849TIP3   OH2 5552   0.534  -0.019   3.292
 1849TIP3    H1 5553   0.509   0.058   3.240
 1849TIP3    H2 5554   0.459  -0.032   3.351
 1850TIP3   OH2 5555   0.037   4.902   2.712
 1850TIP3    H1 5556   0.037   4.928   2.620
 1850TIP3    H2 5557  -0.014   4.821   2.714
 1851TIP3   OH2 5558   4.327   1.799   2.780
 1851TIP3    H1 5559   4.281   1.772   2.860
 1851TIP3    H2 5560   4.342   1.893   2.792
 1852TIP3   OH2 5561   3.361   5.901   4.355
 1852TIP3    H1 5562   3.436   5.944   4.314
 1852TIP3    H2 5563   3.318   5.970   4.404
 1853TIP3   OH2 5564   0.936   5.208   2.685
 1853TIP3    H1 5565   0.924   5.252   2.769
 1853TIP3    H2 5566   0.878   5.131   2.689
 1854TIP3   OH2 5567   2.651   4.753   1.587
 1854TIP3    H1 5568   2.745   4.736   1.589
 1854TIP3    H2 5569   2.635   4.793   1.501
 1855TIP3   OH2 5570   2.327   3.588   2.371
 1855TIP3    H1 5571   2.401   3.533   2.398
 1855TIP3    H2 5572   2.367   3.667   2.336
 1856TIP3   OH2 5573   3.855   0.038   0.122
 1856TIP3    H1 5574   3.827  -0.053   0.110
 1856TIP3    H2 5575   3.830   0.060   0.211
 1857TIP3   OH2 5576   4.182   1.142   3.599
 1857TIP3    H1 5577   4.151   1.213   3.654
 1857TIP3    H2 5578   4.110   1.079   3.597
 1858TIP3   OH2 5579   5.842   0.635   0.821
 1858TIP3    H1 5580   5.928   0.655   0.784
 1858TIP3    H2 5581   5.782   0.693   0.775
 1859TIP3   OH2 5582   6.371   2.835   4.155
 1859TIP3    H1 5583   6.310   2.830   4.082
 1859TIP3    H2 5584   6.318   2.864   4.230
 1860TIP3   OH2 5585   5.630   4.505   2.992
 1860TIP3    H1 5586   5.620   4.453   2.913
 1860TIP3    H2 5587   5.540   4.520   3.023
 1861TIP3   OH2 5588   1.905   1.472   5.032
 1861TIP3    H1 5589   1.946   1.468   4.946
 1861TIP3    H2 5590   1.951   1.543   5.078
 1862TIP3   OH2 5591   3.633   2.491   0.162
 1862TIP3    H1 5592   3.702   2.464   0.222
 1862TIP3    H2 5593   3.562   2.429   0.178
 1863TIP3   OH2 5594   1.780   5.468   0.120
 1863TIP3    H1 5595   1.790   5.535   0.187
 1863TIP3    H2 5596   1.773   5.516   0.037
 1864TIP3   OH2 5597   1.097   5.818   3.342
 1864TIP3    H1 5598   1.116   5.911   3.347
 1864TIP3    H2 5599   1.003   5.813   3.328
 1865TIP3   OH2 5600   1.153   2.226   0.303
 1865TIP3    H1 5601   1.119   2.163   0.240
 1865TIP3    H2 5602   1.231   2.262   0.262
 1866TIP3   OH2 5603   4.464   2.680   0.912
 1866TIP3    H1 5604   4.475   2.775   0.915
 1866TIP3    H2 5605   4.370   2.666   0.920
 1867TIP3   OH2 5606   0.353   5.516   4.123
 1867TIP3    H1 5607   0.356   5.585   4.190
 1867TIP3    H2 5608   0.382   5.560   4.043
 1868TIP3   OH2 5609   5.789   2.822   0.523
 1868TIP3    H1 5610   5.738   2.741   0.525
 1868TIP3    H2 5611   5.830   2.823   0.436
 1869TIP3   OH2 5612   4.169   5.760   4.485
 1869TIP3    H1 5613   4.132   5.786   4.401
 1869TIP3    H2 5614   4.173   5.841   4.536
 1870TIP3   OH2 5615   3.364   0.725   1.250
 1870TIP3    H1 5616   3.298   0.752   1.186
 1870TIP3    H2 5617   3.437   0.694   1.197
 1871TIP3   OH2 5618   1.190   5.115   2.605
 1871TIP3    H1 5619   1.217   5.191   2.552
 1871TIP3    H2 5620   1.095   5.121   2.608
 1872TIP3   OH2 5621   0.330   3.695   2.568
 1872TIP3    H1 5622   0.255   3.675   2.512
 1872TIP3    H2 5623   0.373   3.769   2.525
 1873TIP3   OH2 5624   2.570   3.358   3.122
 1873TIP3    H1 5625   2.607   3.410   3.194
 1873TIP3    H2 5626   2.605   3.398   3.043
 1874TIP3   OH2 5627   5.919   1.854   4.507
 1874TIP3    H1 5628   5.872   1.805   4.574
 1874TIP3    H2 5629   5.920   1.944   4.540
 1875TIP3   OH2 5630   1.449   3.352   0.046
 1875TIP3    H1 5631   1.530   3.357  -0.004
 1875TIP3    H2 5632   1.381   3.335  -0.020
 1876TIP3   OH2 5633   5.471   2.536   1.320
 1876TIP3    H1 5634   5.531   2.465   1.296
 1876TIP3    H2 5635   5.470   2.533   1.416
 1877TIP3   OH2 5636   5.011   1.589   5.038
 1877TIP3    H1 5637   5.097   1.549   5.052
 1877TIP3    H2 5638   4.949   1.524   5.073
 1878TIP3   OH2 5639   4.519   0.400   3.529
 1878TIP3    H1 5640   4.433   0.363   3.546
 1878TIP3    H2 5641   4.507   0.494   3.539
 1879TIP3   OH2 5642   4.001   2.323   4.541
 1879TIP3    H1 5643   4.047   2.337   4.624
 1879TIP3    H2 5644   4.063   2.351   4.474
 1880TIP3   OH2 5645   5.837   0.840   2.920
 1880TIP3    H1 5646   5.925   0.837   2.885
 1880TIP3    H2 5647   5.792   0.765   2.881
 1881TIP3   OH2 5648   0.713   3.397   4.129
 1881TIP3    H1 5649   0.808   3.408   4.135
 1881TIP3    H2 5650   0.689   3.433   4.044
 1882TIP3   OH2 5651   0.637   4.355   3.046
 1882TIP3    H1 5652   0.641   4.449   3.026
 1882TIP3    H2 5653   0.550   4.328   3.016
 1883TIP3   OH2 5654   5.650   5.938   4.284
 1883TIP3    H1 5655   5.702   6.018   4.275
 1883TIP3    H2 5656   5.565   5.968   4.316
 1884TIP3   OH2 5657   0.255   2.577   4.138
 1884TIP3    H1 5658   0.177   2.628   4.158
 1884TIP3    H2 5659   0.310   2.635   4.086
 1885TIP3   OH2 5660   2.708   0.516   2.445
 1885TIP3    H1 5661   2.650   0.591   2.462
 1885TIP3    H2 5662   2.653   0.439   2.464
 1886TIP3   OH2 5663   4.371   1.379   2.247
 1886TIP3    H1 5664   4.434   1.423   2.190
 1886TIP3    H2 5665   4.325   1.318   2.190
 1887TIP3   OH2 5666   6.271   5.069   1.380
 1887TIP3    H1 5667   6.284   5.161   1.401
 1887TIP3    H2 5668   6.340   5.049   1.317
 1888TIP3   OH2 5669   5.009   5.756   2.496
 1888TIP3    H1 5670   5.011   5.785   2.405
 1888TIP3    H2 5671   5.100   5.761   2.525
 1889TIP3   OH2 5672   1.801   0.983   3.754
 1889TIP3    H1 5673   1.861   0.916   3.721
 1889TIP3    H2 5674   1.831   1.001   3.843
 1890TIP3   OH2 5675   2.638   2.847   4.921
 1890TIP3    H1 5676   2.636   2.878   5.012
 1890TIP3    H2 5677   2.730   2.823   4.906
 1891TIP3   OH2 5678   2.485   5.473   0.490
 1891TIP3    H1 5679   2.494   5.526   0.411
 1891TIP3    H2 5680   2.395   5.440   0.487
 1892TIP3   OH2 5681   3.489   0.874   2.153
 1892TIP3    H1 5682   3.532   0.789   2.156
 1892TIP3    H2 5683   3.395   0.853   2.153
 1893TIP3   OH2 5684   6.139   4.539   0.518
 1893TIP3    H1 5685   6.146   4.503   0.606
 1893TIP3    H2 5686   6.056   4.504   0.485
 1894TIP3   OH2 5687   5.384  -0.034   3.822
 1894TIP3    H1 5688   5.300   0.013   3.821
 1894TIP3    H2 5689   5.373  -0.104   3.758
 1895TIP3   OH2 5690   5.244   5.198   1.757
 1895TIP3    H1 5691   5.220   5.107   1.743
 1895TIP3    H2 5692   5.179   5.248   1.707
 1896TIP3   OH2 5693   6.265   3.864   2.209
 1896TIP3    H1 5694   6.197   3.816   2.255
 1896TIP3    H2 5695   6.273   3.819   2.125
 1897TIP3   OH2 5696   0.914   4.523   1.543
 1897TIP3    H1 5697   0.943   4.436   1.570
 1897TIP3    H2 5698   0.980   4.551   1.479
 1898TIP3   OH2 5699   2.510   2.631   1.404
 1898TIP3    H1 5700   2.428   2.631   1.453
 1898TIP3    H2 5701   2.555   2.710   1.433
 1899TIP3   OH2 5702   6.222   1.448   3.318
 1899TIP3    H1 5703   6.294   1.421   3.375
 1899TIP3    H2 5704   6.260   1.450   3.231
 1900TIP3   OH2 5705   2.779   2.773   1.183
 1900TIP3    H1 5706   2.701   2.738   1.140
 1900TIP3    H2 5707   2.852   2.722   1.147
 1901TIP3   OH2 5708   4.514   4.708   3.025
 1901TIP3    H1 5709   4.536   4.733   2.935
 1901TIP3    H2 5710   4.467   4.625   3.016
 1902TIP3   OH2 5711   3.722   3.931   1.840
 1902TIP3    H1 5712   3.767   3.858   1.882
 1902TIP3    H2 5713   3.783   3.961   1.772
 1903TIP3   OH2 5714   4.971   3.695   0.805
 1903TIP3    H1 5715   5.015   3.638   0.742
 1903TIP3    H2 5716   5.021   3.777   0.801
 1904TIP3   OH2 5717   0.707   5.513   0.144
 1904TIP3    H1 5718   0.701   5.607   0.129
 1904TIP3    H2 5719   0.617   5.482   0.142
 1905TIP3   OH2 5720   4.028   1.334   5.063
 1905TIP3    H1 5721   4.075   1.412   5.035
 1905TIP3    H2 5722   4.014   1.284   4.983
 1906TIP3   OH2 5723   4.149   0.779   4.878
 1906TIP3    H1 5724   4.120   0.695   4.842
 1906TIP3    H2 5725   4.103   0.844   4.826
 1907TIP3   OH2 5726   1.721   0.343   4.481
 1907TIP3    H1 5727   1.813   0.352   4.507
 1907TIP3    H2 5728   1.690   0.434   4.473
 1908TIP3   OH2 5729   2.791   2.508   4.413
 1908TIP3    H1 5730   2.851   2.573   4.449
 1908TIP3    H2 5731   2.718   2.505   4.474
 1909TIP3   OH2 5732   4.196   2.390   4.336
 1909TIP3    H1 5733   4.179   2.483   4.323
 1909TIP3    H2 5734   4.185   2.351   4.249
 1910TIP3   OH2 5735   3.250   5.696   5.055
 1910TIP3    H1 5736   3.236   5.748   4.976
 1910TIP3    H2 5737   3.267   5.607   5.022
 1911TIP3   OH2 5738   1.799   5.366   3.680
 1911TIP3    H1 5739   1.793   5.458   3.704
 1911TIP3    H2 5740   1.708   5.338   3.666
 1912TIP3   OH2 5741   2.622   2.702   1.875
 1912TIP3    H1 5742   2.583   2.641   1.813
 1912TIP3    H2 5743   2.567   2.780   1.869
 1913TIP3   OH2 5744   3.345   1.530   1.387
 1913TIP3    H1 5745   3.353   1.617   1.347
 1913TIP3    H2 5746   3.336   1.471   1.312
 1914TIP3   OH2 5747   4.982   1.885   4.811
 1914TIP3    H1 5748   5.062   1.904   4.762
 1914TIP3    H2 5749   4.979   1.790   4.816
 1915TIP3   OH2 5750   4.194   5.294   4.478
 1915TIP3    H1 5751   4.109   5.304   4.436
 1915TIP3    H2 5752   4.247   5.365   4.443
 1916TIP3   OH2 5753   3.730   3.684   3.470
 1916TIP3    H1 5754   3.756   3.676   3.562
 1916TIP3    H2 5755   3.647   3.733   3.474
 1917TIP3   OH2 5756   4.188   2.277   4.741
 1917TIP3    H1 5757   4.218   2.310   4.825
 1917TIP3    H2 5758   4.255   2.305   4.679
 1918TIP3   OH2 5759   0.245   3.990   5.084
 1918TIP3    H1 5760   0.190   4.064   5.110
 1918TIP3    H2 5761   0.221   3.972   4.993
 1919TIP3   OH2 5762   5.216   2.246   0.893
 1919TIP3    H1 5763   5.157   2.298   0.947
 1919TIP3    H2 5764   5.297   2.241   0.943
 1920TIP3   OH2 5765   4.028   4.678   1.594
 1920TIP3    H1 5766   3.981   4.668   1.677
 1920TIP3    H2 5767   4.116   4.645   1.612
 1921TIP3   OH2 5768   5.136   4.475   4.793
 1921TIP3    H1 5769   5.161   4.383   4.777
 1921TIP3    H2 5770   5.110   4.477   4.885
 1922TIP3   OH2 5771   3.548   0.618   1.092
 1922TIP3    H1 5772   3.530   0.669   1.013
 1922TIP3    H2 5773   3.643   0.618   1.100
 1923TIP3   OH2 5774   0.242   0.165   4.137
 1923TIP3    H1 5775   0.319   0.180   4.192
 1923TIP3    H2 5776   0.168   0.163   4.198
 1924TIP3   OH2 5777   5.978   1.945   1.183
 1924TIP3    H1 5778   5.981   1.849   1.185
 1924TIP3    H2 5779   5.904   1.968   1.239
 1925TIP3   OH2 5780   0.325   1.951   4.694
 1925TIP3    H1 5781   0.368   2.013   4.635
 1925TIP3    H2 5782   0.271   1.897   4.637
 1926TIP3   OH2 5783   0.996   0.675   4.042
 1926TIP3    H1 5784   1.060   0.742   4.017
 1926TIP3    H2 5785   1.039   0.592   4.023
 1927TIP3   OH2 5786   0.674   3.845   0.761
 1927TIP3    H1 5787   0.723   3.765   0.778
 1927TIP3    H2 5788   0.593   3.835   0.812
 1928TIP3   OH2 5789   1.090   2.124   1.975
 1928TIP3    H1 5790   1.130   2.067   1.909
 1928TIP3    H2 5791   1.086   2.070   2.054
 1929TIP3   OH2 5792   3.086   3.443   4.655
 1929TIP3    H1 5793   3.153   3.504   4.623
 1929TIP3    H2 5794   3.004   3.491   4.645
 1930TIP3   OH2 5795   0.611   0.544   1.162
 1930TIP3    H1 5796   0.606   0.638   1.144
 1930TIP3    H2 5797   0.680   0.512   1.104
 1931TIP3   OH2 5798   2.601   0.432   1.852
 1931TIP3    H1 5799   2.558   0.511   1.885
 1931TIP3    H2 5800   2.665   0.410   1.920
 1932TIP3   OH2 5801   0.810   4.720   0.549
 1932TIP3    H1 5802   0.724   4.678   0.540
 1932TIP3    H2 5803   0.854   4.702   0.466
 1933TIP3   OH2 5804   2.714   4.050   1.566
 1933TIP3    H1 5805   2.752   4.120   1.619
 1933TIP3    H2 5806   2.674   4.095   1.491
 1934TIP3   OH2 5807   1.531   4.952   5.035
 1934TIP3    H1 5808   1.571   5.024   4.986
 1934TIP3    H2 5809   1.440   4.950   5.005
 1935TIP3   OH2 5810   3.872   4.999   0.054
 1935TIP3    H1 5811   3.800   5.031   0.109
 1935TIP3    H2 5812   3.869   4.904   0.064
 1936TIP3   OH2 5813   0.274   1.011   4.191
 1936TIP3    H1 5814   0.261   1.079   4.257
 1936TIP3    H2 5815   0.206   0.947   4.208
 1937TIP3   OH2 5816   5.667   5.086   2.001
 1937TIP3    H1 5817   5.689   5.015   2.061
 1937TIP3    H2 5818   5.642   5.159   2.058
 1938TIP3   OH2 5819   1.211   3.748   1.273
 1938TIP3    H1 5820   1.214   3.817   1.206
 1938TIP3    H2 5821   1.274   3.777   1.339
 1939TIP3   OH2 5822   2.670   5.491   0.174
 1939TIP3    H1 5823   2.578   5.465   0.167
 1939TIP3    H2 5824   2.670   5.585   0.154
 1940TIP3   OH2 5825   1.060   2.814   4.971
 1940TIP3    H1 5826   1.122   2.882   4.945
 1940TIP3    H2 5827   1.085   2.737   4.920
 1941TIP3   OH2 5828   1.113   4.700   2.983
 1941TIP3    H1 5829   1.084   4.697   3.074
 1941TIP3    H2 5830   1.177   4.630   2.976
 1942TIP3   OH2 5831   5.003   1.077   1.255
 1942TIP3    H1 5832   4.957   1.039   1.329
 1942TIP3    H2 5833   5.026   1.166   1.284
 1943TIP3   OH2 5834   4.592   4.181   2.758
 1943TIP3    H1 5835   4.613   4.107   2.701
 1943TIP3    H2 5836   4.663   4.183   2.822
 1944TIP3   OH2 5837   5.476   4.938   2.620
 1944TIP3    H1 5838   5.414   4.870   2.646
 1944TIP3    H2 5839   5.545   4.936   2.687
 1945TIP3   OH2 5840   5.379   0.714   4.222
 1945TIP3    H1 5841   5.308   0.779   4.213
 1945TIP3    H2 5842   5.418   0.710   4.135
 1946TIP3   OH2 5843   4.791   4.451   3.159
 1946TIP3    H1 5844   4.708   4.405   3.147
 1946TIP3    H2 5845   4.825   4.465   3.070
 1947TIP3   OH2 5846   4.139   0.644   2.884
 1947TIP3    H1 5847   4.176   0.646   2.796
 1947TIP3    H2 5848   4.149   0.553   2.912
 1948TIP3   OH2 5849   4.126   5.018   5.086
 1948TIP3    H1 5850   4.066   5.092   5.092
 1948TIP3    H2 5851   4.203   5.052   5.041
 1949TIP3   OH2 5852   1.680   3.585   0.476
 1949TIP3    H1 5853   1.611   3.626   0.423
 1949TIP3    H2 5854   1.641   3.576   0.563
 1950TIP3   OH2 5855   5.669   2.793   2.468
 1950TIP3    H1 5856   5.664   2.841   2.550
 1950TIP3    H2 5857   5.750   2.743   2.474
 1951TIP3   OH2 5858   3.908   5.732   2.971
 1951TIP3    H1 5859   3.871   5.820   2.970
 1951TIP3    H2 5860   3.991   5.740   2.924
 1952TIP3   OH2 5861   1.697   1.213   3.424
 1952TIP3    H1 5862   1.657   1.177   3.344
 1952TIP3    H2 5863   1.639   1.183   3.494
 1953TIP3   OH2 5864   4.063   3.232   2.974
 1953TIP3    H1 5865   4.056   3.322   2.941
 1953TIP3    H2 5866   4.106   3.240   3.059
 1954TIP3   OH2 5867   3.474   4.329   1.142
 1954TIP3    H1 5868   3.544   4.378   1.184
 1954TIP3    H2 5869   3.399   4.338   1.201
 1955TIP3   OH2 5870   1.245   5.728   1.239
 1955TIP3    H1 5871   1.159   5.768   1.252
 1955TIP3    H2 5872   1.307   5.791   1.274
 1956TIP3   OH2 5873   0.977   0.853   0.365
 1956TIP3    H1 5874   0.995   0.901   0.284
 1956TIP3    H2 5875   0.891   0.884   0.393
 1957TIP3   OH2 5876   3.911   5.932   2.041
 1957TIP3    H1 5877   3.841   5.954   2.102
 1957TIP3    H2 5878   3.971   5.878   2.093
 1958TIP3   OH2 5879   4.641   3.408   0.214
 1958TIP3    H1 5880   4.705   3.472   0.247
 1958TIP3    H2 5881   4.686   3.324   0.223
 1959TIP3   OH2 5882   2.678   1.819   1.413
 1959TIP3    H1 5883   2.619   1.870   1.358
 1959TIP3    H2 5884   2.748   1.792   1.354
 1960TIP3   OH2 5885   0.861   3.674   4.195
 1960TIP3    H1 5886   0.921   3.625   4.139
 1960TIP3    H2 5887   0.775   3.637   4.177
 1961TIP3   OH2 5888   0.505   1.014   0.594
 1961TIP3    H1 5889   0.475   1.067   0.667
 1961TIP3    H2 5890   0.438   0.947   0.584
 1962TIP3   OH2 5891   5.833   0.442   2.833
 1962TIP3    H1 5892   5.872   0.394   2.760
 1962TIP3    H2 5893   5.870   0.400   2.911
 1963TIP3   OH2 5894   1.314   1.574   1.953
 1963TIP3    H1 5895   1.253   1.577   1.879
 1963TIP3    H2 5896   1.333   1.481   1.963
 1964TIP3   OH2 5897   2.130   5.709   2.365
 1964TIP3    H1 5898   2.196   5.759   2.317
 1964TIP3    H2 5899   2.082   5.662   2.297
 1965TIP3   OH2 5900   4.396   5.625   4.252
 1965TIP3    H1 5901   4.468   5.675   4.291
 1965TIP3    H2 5902   4.360   5.573   4.324
 1966TIP3   OH2 5903   3.917   2.926   0.654
 1966TIP3    H1 5904   3.858   2.944   0.727
 1966TIP3    H2 5905   4.004   2.949   0.687
 1967TIP3   OH2 5906   4.698   1.996   4.105
 1967TIP3    H1 5907   4.621   2.027   4.152
 1967TIP3    H2 5908   4.755   2.073   4.099
 1968TIP3   OH2 5909   4.151   3.995   0.535
 1968TIP3    H1 5910   4.139   3.927   0.469
 1968TIP3    H2 5911   4.084   3.977   0.600
 1969TIP3   OH2 5912   4.492   1.244   0.545
 1969TIP3    H1 5913   4.454   1.230   0.458
 1969TIP3    H2 5914   4.442   1.187   0.602
 1970TIP3   OH2 5915   0.570   5.682   1.392
 1970TIP3    H1 5916   0.601   5.748   1.454
 1970TIP3    H2 5917   0.477   5.671   1.412
 1971TIP3   OH2 5918   0.095   0.839   2.675
 1971TIP3    H1 5919   0.097   0.934   2.687
 1971TIP3    H2 5920   0.002   0.819   2.660
 1972TIP3   OH2 5921   0.447   5.404   0.083
 1972TIP3    H1 5922   0.393   5.340   0.131
 1972TIP3    H2 5923   0.384   5.466   0.046
 1973TIP3   OH2 5924   1.411   2.456   3.330
 1973TIP3    H1 5925   1.450   2.526   3.383
 1973TIP3    H2 5926   1.337   2.426   3.381
 1974TIP3   OH2 5927   4.114   3.643   3.856
 1974TIP3    H1 5928   4.105   3.708   3.925
 1974TIP3    H2 5929   4.090   3.560   3.899
 1975TIP3   OH2 5930   1.091   0.864   0.796
 1975TIP3    H1 5931   0.996   0.856   0.788
 1975TIP3    H2 5932   1.104   0.911   0.879
 1976TIP3   OH2 5933   1.843   2.884   2.089
 1976TIP3    H1 5934   1.887   2.949   2.034
 1976TIP3    H2 5935   1.865   2.910   2.179
 1977TIP3   OH2 5936   1.203   3.613   2.973
 1977TIP3    H1 5937   1.232   3.521   2.976
 1977TIP3    H2 5938   1.188   3.630   2.880
 1978TIP3   OH2 5939   5.817   2.571   3.429
 1978TIP3    H1 5940   5.836   2.621   3.349
 1978TIP3    H2 5941   5.725   2.547   3.421
 1979TIP3   OH2 5942   4.507   5.191   1.056
 1979TIP3    H1 5943   4.581   5.155   1.105
 1979TIP3    H2 5944   4.504   5.283   1.082
 1980TIP3   OH2 5945   1.228   3.444   1.432
 1980TIP3    H1 5946   1.202   3.486   1.514
 1980TIP3    H2 5947   1.146   3.421   1.389
 1981TIP3   OH2 5948   5.691   5.058   5.150
 1981TIP3    H1 5949   5.753   5.124   5.118
 1981TIP3    H2 5950   5.708   4.981   5.096
 1982TIP3   OH2 5951   1.960   4.784   2.504
 1982TIP3    H1 5952   1.974   4.805   2.412
 1982TIP3    H2 5953   1.925   4.864   2.542
 1983TIP3   OH2 5954   4.393   3.519   4.699
 1983TIP3    H1 5955   4.326   3.492   4.762
 1983TIP3    H2 5956   4.443   3.440   4.681
 1984TIP3   OH2 5957   2.133   0.179   4.603
 1984TIP3    H1 5958   2.212   0.146   4.647
 1984TIP3    H2 5959   2.096   0.103   4.559
 1985TIP3   OH2 5960   1.156   1.544   0.513
 1985TIP3    H1 5961   1.132   1.494   0.592
 1985TIP3    H2 5962   1.247   1.519   0.496
 1986TIP3   OH2 5963   2.690   0.972   2.070
 1986TIP3    H1 5964   2.701   0.877   2.059
 1986TIP3    H2 5965   2.762   1.010   2.019
 1987TIP3   OH2 5966   5.083   5.212   1.289
 1987TIP3    H1 5967   5.170   5.242   1.316
 1987TIP3    H2 5968   5.097   5.122   1.259
 1988TIP3   OH2 5969   2.231   0.963   3.061
 1988TIP3    H1 5970   2.250   0.884   3.110
 1988TIP3    H2 5971   2.184   0.932   2.983
 1989TIP3   OH2 5972   4.610   5.963   0.754
 1989TIP3    H1 5973   4.531   5.923   0.717
 1989TIP3    H2 5974   4.678   5.896   0.742
 1990TIP3   OH2 5975   0.934   0.999   4.233
 1990TIP3    H1 5976   0.853   1.022   4.187
 1990TIP3    H2 5977   0.996   0.976   4.164
 1991TIP3   OH2 5978   6.200   5.155   2.258
 1991TIP3    H1 5979   6.292   5.163   2.232
 1991TIP3    H2 5980   6.196   5.191   2.346
 1992TIP3   OH2 5981   4.185   0.828   0.197
 1992TIP3    H1 5982   4.144   0.859   0.116
 1992TIP3    H2 5983   4.279   0.836   0.181
 1993TIP3   OH2 5984   3.219   2.833   2.887
 1993TIP3    H1 5985   3.124   2.848   2.887
 1993TIP3    H2 5986   3.228   2.740   2.868
 1994TIP3   OH2 5987   4.459   0.694   1.872
 1994TIP3    H1 5988   4.366   0.674   1.864
 1994TIP3    H2 5989   4.502   0.609   1.876
 1995TIP3   OH2 5990   3.970   5.571   2.640
 1995TIP3    H1 5991   4.061   5.540   2.635
 1995TIP3    H2 5992   3.918   5.498   2.607
 1996TIP3   OH2 5993   4.989   0.315   2.329
 1996TIP3    H1 5994   5.019   0.396   2.371
 1996TIP3    H2 5995   4.987   0.336   2.236
 1997TIP3   OH2 5996   2.285   5.118   2.021
 1997TIP3    H1 5997   2.364   5.161   2.053
 1997TIP3    H2 5998   2.259   5.171   1.945
 1998TIP3   OH2 5999   2.596   2.622   5.124
 1998TIP3    H1 6000   2.509   2.596   5.155
 1998TIP3    H2 6001   2.594   2.606   5.030
 1999TIP3   OH2 6002   3.668   4.214   4.314
 1999TIP3    H1 6003   3.746   4.208   4.258
 1999TIP3    H2 6004   3.675   4.139   4.373
 2000TIP3   OH2 6005   2.522   1.811   2.662
 2000TIP3    H1 6006   2.510   1.887   2.720
 2000TIP3    H2 6007   2.433   1.782   2.643
 2001TIP3   OH2 6008   2.228   1.366   4.895
 2001TIP3    H1 6009   2.145   1.397   4.859
 2001TIP3    H2 6010   2.293   1.425   4.858
 2002TIP3   OH2 6011   2.637   5.786   0.218
 2002TIP3    H1 6012   2.633   5.767   0.312
 2002TIP3    H2 6013   2.581   5.862   0.207
 2003TIP3   OH2 6014   4.796   2.970   0.377
 2003TIP3    H1 6015   4.776   2.921   0.457
 2003TIP3    H2 6016   4.835   2.905   0.319
 2004TIP3   OH2 6017   1.867   5.315   2.422
 2004TIP3    H1 6018   1.882   5.227   2.458
 2004TIP3    H2 6019   1.921   5.372   2.476
 2005TIP3   OH2 6020   3.744   5.248   3.013
 2005TIP3    H1 6021   3.686   5.219   2.943
 2005TIP3    H2 6022   3.814   5.295   2.968
 2006TIP3   OH2 6023   5.370   1.032   4.907
 2006TIP3    H1 6024   5.321   0.967   4.957
 2006TIP3    H2 6025   5.333   1.026   4.818
 2007TIP3   OH2 6026   1.463   2.023   0.513
 2007TIP3    H1 6027   1.390   2.039   0.573
 2007TIP3    H2 6028   1.509   1.949   0.551
 2008TIP3   OH2 6029   3.510   0.352   0.619
 2008TIP3    H1 6030   3.482   0.443   0.614
 2008TIP3    H2 6031   3.490   0.325   0.709
 2009TIP3   OH2 6032   1.274   0.410   1.746
 2009TIP3    H1 6033   1.222   0.358   1.685
 2009TIP3    H2 6034   1.363   0.405   1.712
 2010TIP3   OH2 6035   2.434   5.556   3.414
 2010TIP3    H1 6036   2.527   5.579   3.421
 2010TIP3    H2 6037   2.390   5.639   3.392
 2011TIP3   OH2 6038   2.932   0.485   1.602
 2011TIP3    H1 6039   3.009   0.510   1.654
 2011TIP3    H2 6040   2.932   0.390   1.604
 2012TIP3   OH2 6041   2.641   3.908   2.171
 2012TIP3    H1 6042   2.682   3.823   2.155
 2012TIP3    H2 6043   2.547   3.890   2.170
 2013TIP3   OH2 6044   1.884   5.653   1.540
 2013TIP3    H1 6045   1.950   5.633   1.607
 2013TIP3    H2 6046   1.889   5.580   1.479
 2014TIP3   OH2 6047   5.735   4.916   3.236
 2014TIP3    H1 6048   5.738   4.879   3.148
 2014TIP3    H2 6049   5.704   4.844   3.291
 2015TIP3   OH2 6050   2.539   1.612   0.408
 2015TIP3    H1 6051   2.459   1.663   0.393
 2015TIP3    H2 6052   2.607   1.661   0.362
 2016TIP3   OH2 6053   2.705   4.887   1.149
 2016TIP3    H1 6054   2.746   4.967   1.183
 2016TIP3    H2 6055   2.621   4.883   1.194
 2017TIP3   OH2 6056   1.669   4.397   2.341
 2017TIP3    H1 6057   1.574   4.380   2.337
 2017TIP3    H2 6058   1.680   4.476   2.288
 2018TIP3   OH2 6059   5.404   1.256   0.581
 2018TIP3    H1 6060   5.384   1.263   0.675
 2018TIP3    H2 6061   5.327   1.213   0.544
 2019TIP3   OH2 6062   2.541   4.375   3.594
 2019TIP3    H1 6063   2.493   4.397   3.674
 2019TIP3    H2 6064   2.556   4.281   3.599
 2020TIP3   OH2 6065   0.597   2.368   0.795
 2020TIP3    H1 6066   0.652   2.290   0.801
 2020TIP3    H2 6067   0.620   2.408   0.710
 2021TIP3   OH2 6068   4.710   4.714   1.752
 2021TIP3    H1 6069   4.641   4.781   1.754
 2021TIP3    H2 6070   4.792   4.763   1.750
 2022TIP3   OH2 6071   4.659   1.674   3.835
 2022TIP3    H1 6072   4.671   1.768   3.822
 2022TIP3    H2 6073   4.728   1.649   3.897
 2023TIP3   OH2 6074   3.625   1.049   0.028
 2023TIP3    H1 6075   3.557   1.067   0.093
 2023TIP3    H2 6076   3.648   1.135  -0.008
 2024TIP3   OH2 6077   0.124   0.129   2.002
 2024TIP3    H1 6078   0.198   0.152   1.946
 2024TIP3    H2 6079   0.077   0.211   2.016
 2025TIP3   OH2 6080   4.112   3.655   4.805
 2025TIP3    H1 6081   4.042   3.621   4.861
 2025TIP3    H2 6082   4.192   3.634   4.852
 2026TIP3   OH2 6083   1.056   2.536   0.355
 2026TIP3    H1 6084   1.026   2.536   0.264
 2026TIP3    H2 6085   1.030   2.622   0.388
 2027TIP3   OH2 6086   5.603   5.421   1.172
 2027TIP3    H1 6087   5.519   5.392   1.138
 2027TIP3    H2 6088   5.659   5.344   1.167
 2028TIP3   OH2 6089   3.661   0.099   5.152
 2028TIP3    H1 6090   3.694   0.186   5.131
 2028TIP3    H2 6091   3.575   0.095   5.111
 2029TIP3   OH2 6092   5.597   3.700   3.790
 2029TIP3    H1 6093   5.662   3.639   3.826
 2029TIP3    H2 6094   5.515   3.674   3.831
 2030TIP3   OH2 6095   2.999   3.105   4.817
 2030TIP3    H1 6096   3.016   3.020   4.857
 2030TIP3    H2 6097   3.077   3.157   4.837
 2031TIP3   OH2 6098   2.329   3.998   2.685
 2031TIP3    H1 6099   2.379   4.036   2.613
 2031TIP3    H2 6100   2.261   4.064   2.704
 2032TIP3   OH2 6101   4.287   3.604   3.016
 2032TIP3    H1 6102   4.354   3.547   3.054
 2032TIP3    H2 6103   4.242   3.641   3.092
 2033TIP3   OH2 6104   2.865   1.838   5.042
 2033TIP3    H1 6105   2.820   1.768   5.088
 2033TIP3    H2 6106   2.842   1.825   4.950
 2034TIP3   OH2 6107   5.300   4.850   0.036
 2034TIP3    H1 6108   5.278   4.764   0.001
 2034TIP3    H2 6109   5.257   4.912  -0.023
 2035TIP3   OH2 6110   0.819   0.948   3.233
 2035TIP3    H1 6111   0.803   0.882   3.301
 2035TIP3    H2 6112   0.737   0.950   3.183
 2036TIP3   OH2 6113   2.644   4.023   4.559
 2036TIP3    H1 6114   2.688   4.099   4.597
 2036TIP3    H2 6115   2.686   4.011   4.473
 2037TIP3   OH2 6116   4.314   4.075   2.030
 2037TIP3    H1 6117   4.220   4.063   2.048
 2037TIP3    H2 6118   4.323   4.168   2.011
 2038TIP3   OH2 6119   5.673   1.987   2.624
 2038TIP3    H1 6120   5.578   2.000   2.630
 2038TIP3    H2 6121   5.683   1.900   2.585
 2039TIP3   OH2 6122   2.165   2.757   3.810
 2039TIP3    H1 6123   2.156   2.825   3.744
 2039TIP3    H2 6124   2.223   2.692   3.770
 2040TIP3   OH2 6125   5.899   1.220   4.150
 2040TIP3    H1 6126   5.890   1.309   4.115
 2040TIP3    H2 6127   5.929   1.233   4.240
 2041TIP3   OH2 6128   6.029   0.528   2.174
 2041TIP3    H1 6129   6.081   0.536   2.254
 2041TIP3    H2 6130   5.976   0.450   2.187
 2042TIP3   OH2 6131   2.212   0.295   3.190
 2042TIP3    H1 6132   2.192   0.236   3.262
 2042TIP3    H2 6133   2.127   0.335   3.169
 2043TIP3   OH2 6134   1.311   0.687   3.467
 2043TIP3    H1 6135   1.289   0.714   3.378
 2043TIP3    H2 6136   1.230   0.699   3.516
 2044TIP3   OH2 6137   5.058   0.927   2.924
 2044TIP3    H1 6138   4.972   0.964   2.902
 2044TIP3    H2 6139   5.059   0.842   2.880
 2045TIP3   OH2 6140   1.424   5.596   2.547
 2045TIP3    H1 6141   1.487   5.629   2.610
 2045TIP3    H2 6142   1.399   5.673   2.496
 2046TIP3   OH2 6143   3.952   2.673   4.562
 2046TIP3    H1 6144   3.967   2.663   4.656
 2046TIP3    H2 6145   3.989   2.594   4.523
 2047TIP3   OH2 6146   3.324   4.340   2.171
 2047TIP3    H1 6147   3.318   4.365   2.079
 2047TIP3    H2 6148   3.249   4.383   2.212
 2048TIP3   OH2 6149   6.156   4.192   1.457
 2048TIP3    H1 6150   6.240   4.188   1.410
 2048TIP3    H2 6151   6.119   4.276   1.432
 2049TIP3   OH2 6152   5.571   0.199   0.586
 2049TIP3    H1 6153   5.585   0.105   0.596
 2049TIP3    H2 6154   5.483   0.207   0.549
 2050TIP3   OH2 6155   3.158   2.043   2.886
 2050TIP3    H1 6156   3.113   1.959   2.893
 2050TIP3    H2 6157   3.235   2.033   2.942
 2051TIP3   OH2 6158   3.095   0.931   3.212
 2051TIP3    H1 6159   3.044   0.950   3.291
 2051TIP3    H2 6160   3.177   0.978   3.224
 2052TIP3   OH2 6161   1.608   4.248   4.885
 2052TIP3    H1 6162   1.636   4.173   4.833
 2052TIP3    H2 6163   1.652   4.238   4.969
 2053TIP3   OH2 6164   2.956   4.335   4.087
 2053TIP3    H1 6165   3.006   4.254   4.097
 2053TIP3    H2 6166   2.914   4.347   4.173
 2054TIP3   OH2 6167   4.355   0.150   5.106
 2054TIP3    H1 6168   4.371   0.082   5.041
 2054TIP3    H2 6169   4.333   0.103   5.186
 2055TIP3   OH2 6170   0.575   5.545   3.106
 2055TIP3    H1 6171   0.594   5.498   3.187
 2055TIP3    H2 6172   0.508   5.492   3.063
 2056TIP3   OH2 6173   0.166   1.113   2.704
 2056TIP3    H1 6174   0.249   1.080   2.739
 2056TIP3    H2 6175   0.184   1.127   2.611
 2057TIP3   OH2 6176   3.328   4.804   3.937
 2057TIP3    H1 6177   3.330   4.739   4.008
 2057TIP3    H2 6178   3.296   4.755   3.862
 2058TIP3   OH2 6179   5.640   2.352   1.207
 2058TIP3    H1 6180   5.658   2.268   1.248
 2058TIP3    H2 6181   5.708   2.361   1.140
 2059TIP3   OH2 6182   0.534   4.669   2.671
 2059TIP3    H1 6183   0.542   4.697   2.580
 2059TIP3    H2 6184   0.491   4.583   2.666
 2060TIP3   OH2 6185   5.292   3.237   4.397
 2060TIP3    H1 6186   5.377   3.201   4.425
 2060TIP3    H2 6187   5.257   3.171   4.337
 2061TIP3   OH2 6188   2.620   3.410   3.524
 2061TIP3    H1 6189   2.537   3.439   3.484
 2061TIP3    H2 6190   2.660   3.490   3.556
 2062TIP3   OH2 6191   2.706   2.307   2.585
 2062TIP3    H1 6192   2.640   2.332   2.650
 2062TIP3    H2 6193   2.789   2.327   2.627
 2063TIP3   OH2 6194   1.847   4.066   3.447
 2063TIP3    H1 6195   1.808   4.129   3.507
 2063TIP3    H2 6196   1.862   3.988   3.500
 2064TIP3   OH2 6197   4.424   2.136   0.613
 2064TIP3    H1 6198   4.441   2.137   0.519
 2064TIP3    H2 6199   4.508   2.158   0.653
 2065TIP3   OH2 6200   2.601   3.453   2.846
 2065TIP3    H1 6201   2.618   3.538   2.806
 2065TIP3    H2 6202   2.681   3.402   2.830
 2066TIP3   OH2 6203   5.740   0.872   4.897
 2066TIP3    H1 6204   5.724   0.966   4.906
 2066TIP3    H2 6205   5.658   0.831   4.923
 2067TIP3   OH2 6206   4.324   5.531   4.536
 2067TIP3    H1 6207   4.303   5.616   4.496
 2067TIP3    H2 6208   4.331   5.549   4.629
 2068TIP3   OH2 6209   4.226   0.918   4.575
 2068TIP3    H1 6210   4.160   0.887   4.513
 2068TIP3    H2 6211   4.236   1.011   4.554
 2069TIP3   OH2 6212   2.500   1.053   1.360
 2069TIP3    H1 6213   2.538   1.132   1.323
 2069TIP3    H2 6214   2.550   1.037   1.440
 2070TIP3   OH2 6215   3.666   0.553   3.924
 2070TIP3    H1 6216   3.688   0.637   3.964
 2070TIP3    H2 6217   3.615   0.507   3.991
 2071TIP3   OH2 6218   4.839   3.341   2.974
 2071TIP3    H1 6219   4.808   3.425   2.939
 2071TIP3    H2 6220   4.807   3.276   2.911
 2072TIP3   OH2 6221   4.637   2.313   4.673
 2072TIP3    H1 6222   4.670   2.276   4.755
 2072TIP3    H2 6223   4.575   2.381   4.701
 2073TIP3   OH2 6224   4.205   3.948   0.870
 2073TIP3    H1 6225   4.262   4.003   0.924
 2073TIP3    H2 6226   4.165   4.009   0.807
 2074TIP3   OH2 6227   2.778   2.435   0.993
 2074TIP3    H1 6228   2.833   2.441   1.072
 2074TIP3    H2 6229   2.812   2.358   0.947
 2075TIP3   OH2 6230   2.717   4.651   1.848
 2075TIP3    H1 6231   2.802   4.619   1.878
 2075TIP3    H2 6232   2.736   4.737   1.810
 2076TIP3   OH2 6233   4.440   0.877   0.153
 2076TIP3    H1 6234   4.449   0.878   0.058
 2076TIP3    H2 6235   4.507   0.938   0.184
 2077TIP3   OH2 6236   4.798   2.416   1.464
 2077TIP3    H1 6237   4.888   2.425   1.435
 2077TIP3    H2 6238   4.752   2.491   1.426
 2078TIP3   OH2 6239   4.070   4.452   2.094
 2078TIP3    H1 6240   4.092   4.389   2.163
 2078TIP3    H2 6241   4.024   4.400   2.028
 2079TIP3   OH2 6242   4.347   3.304   1.276
 2079TIP3    H1 6243   4.351   3.242   1.203
 2079TIP3    H2 6244   4.318   3.386   1.236
 2080TIP3   OH2 6245   3.654   3.301   2.005
 2080TIP3    H1 6246   3.626   3.367   2.068
 2080TIP3    H2 6247   3.697   3.234   2.059
 2081TIP3   OH2 6248   5.992   3.334   2.111
 2081TIP3    H1 6249   5.970   3.425   2.132
 2081TIP3    H2 6250   5.912   3.285   2.129
 2082TIP3   OH2 6251   4.870   4.327   4.810
 2082TIP3    H1 6252   4.811   4.387   4.766
 2082TIP3    H2 6253   4.949   4.378   4.826
 2083TIP3   OH2 6254   4.959   4.301   1.779
 2083TIP3    H1 6255   4.900   4.246   1.830
 2083TIP3    H2 6256   5.045   4.289   1.820
 2084TIP3   OH2 6257   0.776   0.568   0.817
 2084TIP3    H1 6258   0.837   0.546   0.888
 2084TIP3    H2 6259   0.738   0.484   0.791
 2085TIP3   OH2 6260   0.302   2.357   1.442
 2085TIP3    H1 6261   0.326   2.449   1.425
 2085TIP3    H2 6262   0.352   2.333   1.519
 2086TIP3   OH2 6263   3.829   2.373   3.204
 2086TIP3    H1 6264   3.840   2.354   3.111
 2086TIP3    H2 6265   3.916   2.360   3.241
 2087TIP3   OH2 6266   0.092   1.332   0.667
 2087TIP3    H1 6267   0.098   1.359   0.575
 2087TIP3    H2 6268   0.071   1.413   0.714
 2088TIP3   OH2 6269   1.753   5.822   1.366
 2088TIP3    H1 6270   1.821   5.783   1.420
 2088TIP3    H2 6271   1.781   5.805   1.276
 2089TIP3   OH2 6272   6.232   2.755   2.120
 2089TIP3    H1 6273   6.255   2.700   2.044
 2089TIP3    H2 6274   6.312   2.803   2.139
 2090TIP3   OH2 6275   3.573   3.419   3.116
 2090TIP3    H1 6276   3.496   3.439   3.170
 2090TIP3    H2 6277   3.638   3.484   3.143
 2091TIP3   OH2 6278   4.104   5.107   3.187
 2091TIP3    H1 6279   4.182   5.148   3.150
 2091TIP3    H2 6280   4.033   5.135   3.129
 2092TIP3   OH2 6281   6.228   3.961   5.073
 2092TIP3    H1 6282   6.154   3.916   5.033
 2092TIP3    H2 6283   6.261   4.019   5.005
 2093TIP3   OH2 6284   1.907   0.481   1.477
 2093TIP3    H1 6285   1.884   0.571   1.496
 2093TIP3    H2 6286   1.827   0.442   1.443
 2094TIP3   OH2 6287   6.250   4.771   2.166
 2094TIP3    H1 6288   6.270   4.785   2.073
 2094TIP3    H2 6289   6.191   4.842   2.189
 2095TIP3   OH2 6290   5.129   4.419   3.728
 2095TIP3    H1 6291   5.083   4.476   3.790
 2095TIP3    H2 6292   5.121   4.331   3.765
 2096TIP3   OH2 6293   2.559   2.101   4.313
 2096TIP3    H1 6294   2.631   2.089   4.251
 2096TIP3    H2 6295   2.595   2.076   4.398
 2097TIP3   OH2 6296   4.310   1.623   1.553
 2097TIP3    H1 6297   4.374   1.582   1.611
 2097TIP3    H2 6298   4.303   1.563   1.478
 2098TIP3   OH2 6299   3.522   2.911   1.466
 2098TIP3    H1 6300   3.508   2.830   1.515
 2098TIP3    H2 6301   3.519   2.884   1.374
 2099TIP3   OH2 6302   0.069   5.624   1.167
 2099TIP3    H1 6303   0.161   5.598   1.173
 2099TIP3    H2 6304   0.058   5.651   1.076
 2100TIP3   OH2 6305   2.045   1.693   5.134
 2100TIP3    H1 6306   2.072   1.785   5.125
 2100TIP3    H2 6307   2.120   1.650   5.174
 2101TIP3   OH2 6308   2.412   3.231   3.427
 2101TIP3    H1 6309   2.323   3.216   3.461
 2101TIP3    H2 6310   2.399   3.287   3.350
 2102TIP3   OH2 6311   0.994   4.469   3.179
 2102TIP3    H1 6312   0.925   4.404   3.183
 2102TIP3    H2 6313   1.029   4.473   3.268
 2103TIP3   OH2 6314   3.091   2.812   3.976
 2103TIP3    H1 6315   3.026   2.754   3.937
 2103TIP3    H2 6316   3.042   2.890   4.002
 2104TIP3   OH2 6317   0.099   0.232   0.648
 2104TIP3    H1 6318   0.135   0.159   0.698
 2104TIP3    H2 6319   0.004   0.223   0.657
 2105TIP3   OH2 6320   1.151   5.692   4.149
 2105TIP3    H1 6321   1.137   5.720   4.059
 2105TIP3    H2 6322   1.240   5.721   4.170
 2106TIP3   OH2 6323   5.141   0.653   1.201
 2106TIP3    H1 6324   5.179   0.643   1.288
 2106TIP3    H2 6325   5.052   0.685   1.217
 2107TIP3   OH2 6326   0.530   3.636   1.074
 2107TIP3    H1 6327   0.466   3.566   1.079
 2107TIP3    H2 6328   0.502   3.689   0.999
 2108TIP3   OH2 6329   5.449   2.781   0.027
 2108TIP3    H1 6330   5.539   2.763   0.056
 2108TIP3    H2 6331   5.432   2.870   0.058
 2109TIP3   OH2 6332   5.461   1.942   1.156
 2109TIP3    H1 6333   5.509   1.974   1.080
 2109TIP3    H2 6334   5.503   1.859   1.179
 2110TIP3   OH2 6335   1.666   2.733   3.977
 2110TIP3    H1 6336   1.661   2.670   4.048
 2110TIP3    H2 6337   1.757   2.729   3.947
 2111TIP3   OH2 6338   2.955   5.176   3.752
 2111TIP3    H1 6339   2.893   5.234   3.707
 2111TIP3    H2 6340   3.029   5.168   3.691
 2112TIP3   OH2 6341   5.373   3.728   2.498
 2112TIP3    H1 6342   5.412   3.812   2.475
 2112TIP3    H2 6343   5.333   3.743   2.584
 2113TIP3   OH2 6344   2.218   3.018   4.268
 2113TIP3    H1 6345   2.261   2.993   4.186
 2113TIP3    H2 6346   2.272   3.090   4.302
 2114TIP3   OH2 6347   1.150   1.046   0.208
 2114TIP3    H1 6348   1.156   0.971   0.149
 2114TIP3    H2 6349   1.241   1.070   0.227
 2115TIP3   OH2 6350   0.396   5.560   2.323
 2115TIP3    H1 6351   0.417   5.507   2.245
 2115TIP3    H2 6352   0.339   5.629   2.291
 2116TIP3   OH2 6353   3.041   1.219   2.438
 2116TIP3    H1 6354   3.122   1.228   2.387
 2116TIP3    H2 6355   3.004   1.136   2.409
 2117TIP3   OH2 6356   1.060   1.643   0.013
 2117TIP3    H1 6357   1.090   1.715  -0.042
 2117TIP3    H2 6358   1.111   1.650   0.093
 2118TIP3   OH2 6359   5.777   0.726   1.574
 2118TIP3    H1 6360   5.811   0.637   1.571
 2118TIP3    H2 6361   5.847   0.777   1.616
 2119TIP3   OH2 6362   1.685   1.204   2.767
 2119TIP3    H1 6363   1.714   1.225   2.678
 2119TIP3    H2 6364   1.724   1.273   2.822
 2120TIP3   OH2 6365   4.603   3.185   1.888
 2120TIP3    H1 6366   4.541   3.243   1.844
 2120TIP3    H2 6367   4.582   3.098   1.855
 2121TIP3   OH2 6368   3.990   0.081   1.080
 2121TIP3    H1 6369   3.911   0.058   1.030
 2121TIP3    H2 6370   4.009   0.003   1.132
 2122TIP3   OH2 6371   2.064   3.616   0.268
 2122TIP3    H1 6372   2.060   3.521   0.284
 2122TIP3    H2 6373   2.137   3.646   0.323
 2123TIP3   OH2 6374   5.880   0.096   5.043
 2123TIP3    H1 6375   5.785   0.100   5.053
 2123TIP3    H2 6376   5.913   0.086   5.132
 2124TIP3   OH2 6377   4.419   2.937   0.975
 2124TIP3    H1 6378   4.357   2.958   1.046
 2124TIP3    H2 6379   4.418   3.015   0.919
 2125TIP3   OH2 6380   3.333   4.240   0.819
 2125TIP3    H1 6381   3.323   4.158   0.866
 2125TIP3    H2 6382   3.409   4.226   0.763
 2126TIP3   OH2 6383   3.522   2.429   4.642
 2126TIP3    H1 6384   3.503   2.359   4.579
 2126TIP3    H2 6385   3.492   2.509   4.598
 2127TIP3   OH2 6386   4.093   3.329   1.127
 2127TIP3    H1 6387   4.069   3.245   1.167
 2127TIP3    H2 6388   4.071   3.395   1.192
 2128TIP3   OH2 6389   4.152   0.719   2.348
 2128TIP3    H1 6390   4.233   0.687   2.309
 2128TIP3    H2 6391   4.104   0.758   2.275
 2129TIP3   OH2 6392   1.727   0.850   0.018
 2129TIP3    H1 6393   1.678   0.815   0.092
 2129TIP3    H2 6394   1.681   0.931  -0.006
 2130TIP3   OH2 6395   6.284   5.292   5.043
 2130TIP3    H1 6396   6.203   5.317   4.999
 2130TIP3    H2 6397   6.338   5.253   4.975
 2131TIP3   OH2 6398   0.729   4.147   1.359
 2131TIP3    H1 6399   0.637   4.156   1.381
 2131TIP3    H2 6400   0.757   4.235   1.332
 2132TIP3   OH2 6401   5.261   4.720   2.984
 2132TIP3    H1 6402   5.281   4.683   3.070
 2132TIP3    H2 6403   5.250   4.644   2.927
 2133TIP3   OH2 6404   3.443   5.829   2.189
 2133TIP3    H1 6405   3.360   5.828   2.141
 2133TIP3    H2 6406   3.485   5.746   2.165
 2134TIP3   OH2 6407   0.363   5.719   1.997
 2134TIP3    H1 6408   0.369   5.806   1.958
 2134TIP3    H2 6409   0.328   5.734   2.084
 2135TIP3   OH2 6410   2.088   0.823   4.161
 2135TIP3    H1 6411   2.040   0.864   4.233
 2135TIP3    H2 6412   2.067   0.730   4.169
 2136TIP3   OH2 6413   1.679   0.486   0.406
 2136TIP3    H1 6414   1.723   0.471   0.489
 2136TIP3    H2 6415   1.749   0.500   0.342
 2137TIP3   OH2 6416   4.524   0.099   3.775
 2137TIP3    H1 6417   4.520   0.016   3.728
 2137TIP3    H2 6418   4.444   0.145   3.749
 2138TIP3   OH2 6419   6.027   5.520   2.278
 2138TIP3    H1 6420   6.103   5.567   2.245
 2138TIP3    H2 6421   5.986   5.482   2.201
 2139TIP3   OH2 6422   3.749   2.919   4.600
 2139TIP3    H1 6423   3.736   2.869   4.519
 2139TIP3    H2 6424   3.672   2.976   4.605
 2140TIP3   OH2 6425   3.750   3.378   4.707
 2140TIP3    H1 6426   3.824   3.346   4.759
 2140TIP3    H2 6427   3.731   3.306   4.647
 2141TIP3   OH2 6428   0.723   0.741   1.976
 2141TIP3    H1 6429   0.698   0.798   1.903
 2141TIP3    H2 6430   0.786   0.793   2.026
 2142TIP3   OH2 6431   3.463   1.768   1.510
 2142TIP3    H1 6432   3.431   1.810   1.589
 2142TIP3    H2 6433   3.416   1.685   1.506
 2143TIP3   OH2 6434   0.245   0.877   1.729
 2143TIP3    H1 6435   0.340   0.876   1.745
 2143TIP3    H2 6436   0.207   0.899   1.814
 2144TIP3   OH2 6437   3.868   0.671   0.952
 2144TIP3    H1 6438   3.905   0.628   0.875
 2144TIP3    H2 6439   3.938   0.727   0.985
 2145TIP3   OH2 6440   3.115   5.270   2.048
 2145TIP3    H1 6441   3.055   5.295   1.977
 2145TIP3    H2 6442   3.095   5.331   2.119
 2146TIP3   OH2 6443   6.092   0.272   2.015
 2146TIP3    H1 6444   6.183   0.283   2.043
 2146TIP3    H2 6445   6.042   0.264   2.096
 2147TIP3   OH2 6446   3.695   2.435   4.853
 2147TIP3    H1 6447   3.636   2.427   4.778
 2147TIP3    H2 6448   3.726   2.525   4.850
 2148TIP3   OH2 6449   1.707   5.007   0.291
 2148TIP3    H1 6450   1.686   5.088   0.245
 2148TIP3    H2 6451   1.662   5.014   0.375
 2149TIP3   OH2 6452   6.326   0.879   1.423
 2149TIP3    H1 6453   6.340   0.802   1.479
 2149TIP3    H2 6454   6.395   0.940   1.448
 2150TIP3   OH2 6455   5.758   3.151   1.483
 2150TIP3    H1 6456   5.701   3.079   1.458
 2150TIP3    H2 6457   5.844   3.127   1.450
 2151TIP3   OH2 6458   6.005   5.085   4.672
 2151TIP3    H1 6459   6.019   4.997   4.707
 2151TIP3    H2 6460   5.920   5.080   4.627
 2152TIP3   OH2 6461   4.380   3.668   4.211
 2152TIP3    H1 6462   4.401   3.584   4.170
 2152TIP3    H2 6463   4.400   3.733   4.143
 2153TIP3   OH2 6464   2.857   4.756   4.781
 2153TIP3    H1 6465   2.943   4.797   4.768
 2153TIP3    H2 6466   2.818   4.805   4.854
 2154TIP3   OH2 6467   0.116   4.467   1.898
 2154TIP3    H1 6468   0.036   4.464   1.950
 2154TIP3    H2 6469   0.186   4.472   1.963
 2155TIP3   OH2 6470   1.951   5.725   3.083
 2155TIP3    H1 6471   1.856   5.741   3.085
 2155TIP3    H2 6472   1.977   5.749   2.994
 2156TIP3   OH2 6473   3.658   5.896   1.907
 2156TIP3    H1 6474   3.610   5.971   1.871
 2156TIP3    H2 6475   3.590   5.830   1.923
 2157TIP3   OH2 6476   5.016   3.767   5.129
 2157TIP3    H1 6477   5.111   3.763   5.129
 2157TIP3    H2 6478   4.988   3.676   5.117
 2158TIP3   OH2 6479   6.208   0.878   2.272
 2158TIP3    H1 6480   6.215   0.943   2.201
 2158TIP3    H2 6481   6.115   0.854   2.274
 2159TIP3   OH2 6482   5.691   2.427   4.392
 2159TIP3    H1 6483   5.691   2.349   4.447
 2159TIP3    H2 6484   5.604   2.429   4.352
 2160TIP3   OH2 6485   2.035   1.962   0.276
 2160TIP3    H1 6486   2.109   2.008   0.317
 2160TIP3    H2 6487   2.075   1.910   0.206
 2161TIP3   OH2 6488   3.797   2.715   1.850
 2161TIP3    H1 6489   3.802   2.718   1.945
 2161TIP3    H2 6490   3.720   2.768   1.829
 2162TIP3   OH2 6491   5.479   2.731   1.921
 2162TIP3    H1 6492   5.521   2.651   1.952
 2162TIP3    H2 6493   5.493   2.730   1.827
 2163TIP3   OH2 6494   4.408   1.096   3.733
 2163TIP3    H1 6495   4.327   1.107   3.682
 2163TIP3    H2 6496   4.383   1.037   3.804
 2164TIP3   OH2 6497   4.193   4.512   2.462
 2164TIP3    H1 6498   4.230   4.591   2.422
 2164TIP3    H2 6499   4.124   4.543   2.519
 2165TIP3   OH2 6500   1.167   3.544   2.486
 2165TIP3    H1 6501   1.225   3.480   2.444
 2165TIP3    H2 6502   1.115   3.581   2.415
 2166TIP3   OH2 6503   0.472   5.345   3.766
 2166TIP3    H1 6504   0.381   5.324   3.747
 2166TIP3    H2 6505   0.495   5.291   3.841
 2167TIP3   OH2 6506   4.551   2.991   3.439
 2167TIP3    H1 6507   4.505   3.072   3.462
 2167TIP3    H2 6508   4.614   3.018   3.372
 2168TIP3   OH2 6509   0.733   3.586   3.888
 2168TIP3    H1 6510   0.814   3.577   3.838
 2168TIP3    H2 6511   0.701   3.674   3.866
 2169TIP3   OH2 6512   3.479   2.457   1.919
 2169TIP3    H1 6513   3.511   2.410   1.995
 2169TIP3    H2 6514   3.540   2.435   1.849
 2170TIP3   OH2 6515   3.931   4.217   2.884
 2170TIP3    H1 6516   3.976   4.133   2.890
 2170TIP3    H2 6517   4.000   4.282   2.896
 2171TIP3   OH2 6518   0.757   5.509   1.289
 2171TIP3    H1 6519   0.804   5.559   1.222
 2171TIP3    H2 6520   0.692   5.570   1.323
 2172TIP3   OH2 6521   0.348   2.775   0.755
 2172TIP3    H1 6522   0.295   2.801   0.680
 2172TIP3    H2 6523   0.436   2.763   0.719
 2173TIP3   OH2 6524   3.707   0.710   2.273
 2173TIP3    H1 6525   3.800   0.688   2.265
 2173TIP3    H2 6526   3.705   0.784   2.334
 2174TIP3   OH2 6527   0.888   4.793   4.225
 2174TIP3    H1 6528   0.802   4.756   4.205
 2174TIP3    H2 6529   0.918   4.831   4.143
 2175TIP3   OH2 6530   4.302   1.789   4.914
 2175TIP3    H1 6531   4.333   1.778   4.824
 2175TIP3    H2 6532   4.224   1.844   4.905
 2176TIP3   OH2 6533   2.115   4.479   3.075
 2176TIP3    H1 6534   2.164   4.409   3.032
 2176TIP3    H2 6535   2.033   4.439   3.101
 2177TIP3   OH2 6536   4.866   3.685   4.316
 2177TIP3    H1 6537   4.802   3.663   4.248
 2177TIP3    H2 6538   4.884   3.778   4.302
 2178TIP3   OH2 6539   3.711   1.652   2.310
 2178TIP3    H1 6540   3.792   1.602   2.295
 2178TIP3    H2 6541   3.676   1.668   2.223
 2179TIP3   OH2 6542   2.730   0.691   0.777
 2179TIP3    H1 6543   2.794   0.628   0.810
 2179TIP3    H2 6544   2.745   0.692   0.682
 2180TIP3   OH2 6545   5.805   1.425   2.855
 2180TIP3    H1 6546   5.819   1.331   2.857
 2180TIP3    H2 6547   5.879   1.461   2.903
 2181TIP3   OH2 6548   0.516   3.653   2.938
 2181TIP3    H1 6549   0.549   3.598   2.868
 2181TIP3    H2 6550   0.578   3.726   2.942
 2182TIP3   OH2 6551   6.071   0.026   2.832
 2182TIP3    H1 6552   6.072   0.055   2.923
 2182TIP3    H2 6553   6.148  -0.031   2.825
 2183TIP3   OH2 6554   5.409   5.958   3.736
 2183TIP3    H1 6555   5.320   5.927   3.720
 2183TIP3    H2 6556   5.465   5.888   3.703
 2184TIP3   OH2 6557   3.112   3.750   4.624
 2184TIP3    H1 6558   3.094   3.836   4.588
 2184TIP3    H2 6559   3.208   3.743   4.621
 2185TIP3   OH2 6560   5.702   1.954   2.256
 2185TIP3    H1 6561   5.706   1.980   2.164
 2185TIP3    H2 6562   5.663   2.029   2.300
 2186TIP3   OH2 6563   1.238   2.545   4.824
 2186TIP3    H1 6564   1.236   2.556   4.729
 2186TIP3    H2 6565   1.147   2.561   4.851
 2187TIP3   OH2 6566   0.838   5.871   3.639
 2187TIP3    H1 6567   0.906   5.814   3.675
 2187TIP3    H2 6568   0.873   5.959   3.648
 2188TIP3   OH2 6569   6.167   3.991   2.650
 2188TIP3    H1 6570   6.144   3.940   2.728
 2188TIP3    H2 6571   6.083   4.014   2.610
 2189TIP3   OH2 6572   4.628   4.517   0.135
 2189TIP3    H1 6573   4.660   4.447   0.191
 2189TIP3    H2 6574   4.538   4.532   0.164
 2190TIP3   OH2 6575   2.447   2.341   0.875
 2190TIP3    H1 6576   2.412   2.311   0.959
 2190TIP3    H2 6577   2.413   2.278   0.811
 2191TIP3   OH2 6578   0.735   2.698   0.340
 2191TIP3    H1 6579   0.773   2.648   0.412
 2191TIP3    H2 6580   0.645   2.665   0.332
 2192TIP3   OH2 6581   6.265   1.402   0.035
 2192TIP3    H1 6582   6.275   1.319   0.081
 2192TIP3    H2 6583   6.342   1.407  -0.022
 2193TIP3   OH2 6584   4.275   0.550   3.685
 2193TIP3    H1 6585   4.214   0.542   3.759
 2193TIP3    H2 6586   4.234   0.499   3.615
 2194TIP3   OH2 6587  -0.018   2.978   2.594
 2194TIP3    H1 6588   0.009   2.894   2.632
 2194TIP3    H2 6589  -0.021   3.038   2.669
 2195TIP3   OH2 6590   1.959   2.957   0.260
 2195TIP3    H1 6591   1.944   2.934   0.352
 2195TIP3    H2 6592   2.037   2.908   0.236
 2196TIP3   OH2 6593   3.080   4.305   1.427
 2196TIP3    H1 6594   3.074   4.279   1.519
 2196TIP3    H2 6595   2.990   4.309   1.397
 2197TIP3   OH2 6596   1.342   0.084   4.573
 2197TIP3    H1 6597   1.316   0.050   4.659
 2197TIP3    H2 6598   1.265   0.069   4.518
 2198TIP3   OH2 6599   0.415   2.680   3.387
 2198TIP3    H1 6600   0.472   2.749   3.353
 2198TIP3    H2 6601   0.353   2.726   3.444
 2199TIP3   OH2 6602   5.421   3.986   2.829
 2199TIP3    H1 6603   5.332   3.956   2.812
 2199TIP3    H2 6604   5.415   4.036   2.910
 2200TIP3   OH2 6605  -0.001   4.944   4.707
 2200TIP3    H1 6606  -0.025   4.934   4.799
 2200TIP3    H2 6607   0.079   4.893   4.698
 2201TIP3   OH2 6608   0.558   3.833   4.111
 2201TIP3    H1 6609   0.473   3.864   4.079
 2201TIP3    H2 6610   0.622   3.876   4.054
 2202TIP3   OH2 6611   3.499   0.414   4.823
 2202TIP3    H1 6612   3.416   0.462   4.816
 2202TIP3    H2 6613   3.498   0.353   4.750
 2203TIP3   OH2 6614   4.967   4.677   0.906
 2203TIP3    H1 6615   4.942   4.699   0.816
 2203TIP3    H2 6616   4.930   4.747   0.959
 2204TIP3   OH2 6617   0.076   3.739   3.545
 2204TIP3    H1 6618   0.090   3.649   3.575
 2204TIP3    H2 6619   0.128   3.793   3.604
 2205TIP3   OH2 6620   2.329   2.682   1.613
 2205TIP3    H1 6621   2.329   2.696   1.708
 2205TIP3    H2 6622   2.237   2.675   1.589
 2206TIP3   OH2 6623   6.346   0.022   3.774
 2206TIP3    H1 6624   6.344   0.113   3.804
 2206TIP3    H2 6625   6.294  -0.025   3.838
 2207TIP3   OH2 6626   3.604   3.136   4.994
 2207TIP3    H1 6627   3.634   3.074   4.928
 2207TIP3    H2 6628   3.588   3.083   5.072
 2208TIP3   OH2 6629   4.091   4.704   4.859
 2208TIP3    H1 6630   4.163   4.760   4.886
 2208TIP3    H2 6631   4.061   4.741   4.776
 2209TIP3   OH2 6632   3.650   2.811   3.307
 2209TIP3    H1 6633   3.598   2.742   3.349
 2209TIP3    H2 6634   3.727   2.765   3.272
 2210TIP3   OH2 6635   6.071   4.214   0.243
 2210TIP3    H1 6636   6.006   4.275   0.209
 2210TIP3    H2 6637   6.097   4.162   0.167
 2211TIP3   OH2 6638   0.410   4.556   3.533
 2211TIP3    H1 6639   0.392   4.570   3.440
 2211TIP3    H2 6640   0.458   4.474   3.536
 2212TIP3   OH2 6641   1.880   4.267   2.455
 2212TIP3    H1 6642   1.800   4.295   2.410
 2212TIP3    H2 6643   1.884   4.322   2.533
 2213TIP3   OH2 6644   1.565   3.962   5.068
 2213TIP3    H1 6645   1.618   4.042   5.068
 2213TIP3    H2 6646   1.627   3.893   5.095
 2214TIP3   OH2 6647   5.961   3.653   1.161
 2214TIP3    H1 6648   6.016   3.650   1.082
 2214TIP3    H2 6649   6.023   3.670   1.232
 2215TIP3   OH2 6650   0.334   2.905   1.885
 2215TIP3    H1 6651   0.414   2.940   1.922
 2215TIP3    H2 6652   0.363   2.857   1.807
 2216TIP3   OH2 6653   2.418   4.421   1.919
 2216TIP3    H1 6654   2.419   4.465   2.004
 2216TIP3    H2 6655   2.445   4.331   1.939
 2217TIP3   OH2 6656   0.337   0.565   0.237
 2217TIP3    H1 6657   0.261   0.619   0.259
 2217TIP3    H2 6658   0.319   0.480   0.278
 2218TIP3   OH2 6659   0.300   2.376   1.028
 2218TIP3    H1 6660   0.375   2.425   0.994
 2218TIP3    H2 6661   0.232   2.443   1.040
 2219TIP3   OH2 6662   0.720   5.770   2.975
 2219TIP3    H1 6663   0.758   5.728   2.898
 2219TIP3    H2 6664   0.711   5.700   3.040
 2220TIP3   OH2 6665   4.421   5.963   2.961
 2220TIP3    H1 6666   4.377   5.881   2.981
 2220TIP3    H2 6667   4.515   5.944   2.969
 2221TIP3   OH2 6668   4.098   0.935   1.652
 2221TIP3    H1 6669   4.004   0.923   1.667
 2221TIP3    H2 6670   4.124   0.859   1.600
 2222TIP3   OH2 6671   0.308   3.991   4.021
 2222TIP3    H1 6672   0.237   3.969   4.081
 2222TIP3    H2 6673   0.300   4.086   4.009
 2223TIP3   OH2 6674   6.076   2.643   0.838
 2223TIP3    H1 6675   6.009   2.626   0.904
 2223TIP3    H2 6676   6.076   2.565   0.782
 2224TIP3   OH2 6677   4.727   5.559   0.913
 2224TIP3    H1 6678   4.793   5.534   0.978
 2224TIP3    H2 6679   4.733   5.491   0.846
 2225TIP3   OH2 6680   2.570   2.787   0.464
 2225TIP3    H1 6681   2.641   2.797   0.527
 2225TIP3    H2 6682   2.529   2.873   0.461
 2226TIP3   OH2 6683   0.476   0.892   2.512
 2226TIP3    H1 6684   0.413   0.821   2.519
 2226TIP3    H2 6685   0.526   0.888   2.593
 2227TIP3   OH2 6686   1.347   5.468   4.172
 2227TIP3    H1 6687   1.300   5.401   4.221
 2227TIP3    H2 6688   1.324   5.451   4.081
 2228TIP3   OH2 6689   4.570   3.746   4.959
 2228TIP3    H1 6690   4.633   3.743   4.888
 2228TIP3    H2 6691   4.609   3.692   5.028
 2229TIP3   OH2 6692   4.009   1.096   5.179
 2229TIP3    H1 6693   4.081   1.045   5.142
 2229TIP3    H2 6694   4.003   1.173   5.124
 2230TIP3   OH2 6695   3.087   1.684   5.054
 2230TIP3    H1 6696   3.131   1.723   4.978
 2230TIP3    H2 6697   2.998   1.718   5.051
 2231TIP3   OH2 6698   1.752   3.901   3.221
 2231TIP3    H1 6699   1.810   3.923   3.294
 2231TIP3    H2 6700   1.794   3.938   3.144
 2232TIP3   OH2 6701   4.526   4.299   1.195
 2232TIP3    H1 6702   4.536   4.283   1.101
 2232TIP3    H2 6703   4.440   4.339   1.203
 2233TIP3   OH2 6704   1.325   4.002   4.943
 2233TIP3    H1 6705   1.420   3.992   4.943
 2233TIP3    H2 6706   1.292   3.914   4.925
 2234TIP3   OH2 6707   1.721   5.209   0.096
 2234TIP3    H1 6708   1.807   5.173   0.076
 2234TIP3    H2 6709   1.734   5.304   0.098
 2235TIP3   OH2 6710   5.069   3.897   1.919
 2235TIP3    H1 6711   4.989   3.881   1.969
 2235TIP3    H2 6712   5.124   3.947   1.979
 2236TIP3   OH2 6713   2.727   5.173   4.218
 2236TIP3    H1 6714   2.733   5.150   4.125
 2236TIP3    H2 6715   2.792   5.119   4.261
 2237TIP3   OH2 6716   1.754   5.010   2.967
 2237TIP3    H1 6717   1.753   5.058   2.885
 2237TIP3    H2 6718   1.760   5.077   3.035
 2238TIP3   OH2 6719   0.276   5.807   1.060
 2238TIP3    H1 6720   0.358   5.821   1.108
 2238TIP3    H2 6721   0.239   5.895   1.052
 2239TIP3   OH2 6722   0.510   1.636   4.700
 2239TIP3    H1 6723   0.468   1.700   4.643
 2239TIP3    H2 6724   0.539   1.688   4.776
 2240TIP3   OH2 6725   2.540  -0.029   4.881
 2240TIP3    H1 6726   2.556   0.064   4.866
 2240TIP3    H2 6727   2.600  -0.053   4.952
 2241TIP3   OH2 6728   0.060   5.088   0.197
 2241TIP3    H1 6729   0.016   5.071   0.114
 2241TIP3    H2 6730   0.022   5.024   0.258
 2242TIP3   OH2 6731   5.463   2.746   2.965
 2242TIP3    H1 6732   5.398   2.715   3.028
 2242TIP3    H2 6733   5.441   2.702   2.883
 2243TIP3   OH2 6734   4.308   0.849   2.110
 2243TIP3    H1 6735   4.362   0.845   2.031
 2243TIP3    H2 6736   4.325   0.766   2.155
 2244TIP3   OH2 6737   2.237   3.435   0.403
 2244TIP3    H1 6738   2.205   3.401   0.486
 2244TIP3    H2 6739   2.224   3.363   0.341
 2245TIP3   OH2 6740   1.644   1.130   3.168
 2245TIP3    H1 6741   1.663   1.122   3.074
 2245TIP3    H2 6742   1.601   1.048   3.191
 2246TIP3   OH2 6743   0.683   1.221   4.577
 2246TIP3    H1 6744   0.610   1.263   4.624
 2246TIP3    H2 6745   0.754   1.285   4.583
 2247TIP3   OH2 6746   0.395   1.420   3.922
 2247TIP3    H1 6747   0.480   1.377   3.933
 2247TIP3    H2 6748   0.341   1.356   3.876
 2248TIP3   OH2 6749   0.613   4.158   2.369
 2248TIP3    H1 6750   0.624   4.144   2.275
 2248TIP3    H2 6751   0.693   4.125   2.408
 2249TIP3   OH2 6752   4.518   4.769   5.127
 2249TIP3    H1 6753   4.565   4.827   5.068
 2249TIP3    H2 6754   4.505   4.689   5.076
 2250TIP3   OH2 6755   0.792   3.582   1.175
 2250TIP3    H1 6756   0.709   3.621   1.145
 2250TIP3    H2 6757   0.828   3.648   1.235
 2251TIP3   OH2 6758   2.293   1.172   0.667
 2251TIP3    H1 6759   2.263   1.121   0.592
 2251TIP3    H2 6760   2.267   1.120   0.743
 2252TIP3   OH2 6761   3.085   2.906   3.223
 2252TIP3    H1 6762   3.042   2.932   3.304
 2252TIP3    H2 6763   3.164   2.961   3.218
 2253TIP3   OH2 6764   1.691   1.551   0.469
 2253TIP3    H1 6765   1.684   1.584   0.379
 2253TIP3    H2 6766   1.600   1.542   0.498
 2254TIP3   OH2 6767   2.849   2.248   3.739
 2254TIP3    H1 6768   2.939   2.255   3.707
 2254TIP3    H2 6769   2.856   2.204   3.823
 2255TIP3   OH2 6770   1.803   0.199   0.207
 2255TIP3    H1 6771   1.738   0.237   0.266
 2255TIP3    H2 6772   1.813   0.109   0.238
 2256TIP3   OH2 6773   5.879   2.626   4.439
 2256TIP3    H1 6774   5.836   2.545   4.411
 2256TIP3    H2 6775   5.961   2.627   4.390
 2257TIP3   OH2 6776   1.303   2.736   0.524
 2257TIP3    H1 6777   1.341   2.712   0.439
 2257TIP3    H2 6778   1.220   2.777   0.502
 2258TIP3   OH2 6779   4.459   2.181   0.096
 2258TIP3    H1 6780   4.544   2.200   0.134
 2258TIP3    H2 6781   4.465   2.211   0.006
 2259TIP3   OH2 6782   4.907   1.898   0.904
 2259TIP3    H1 6783   4.826   1.930   0.865
 2259TIP3    H2 6784   4.963   1.875   0.829
 2260TIP3   OH2 6785   4.827   2.668   1.663
 2260TIP3    H1 6786   4.805   2.616   1.585
 2260TIP3    H2 6787   4.780   2.625   1.734
 2261TIP3   OH2 6788   2.033   5.913   0.114
 2261TIP3    H1 6789   1.948   5.955   0.101
 2261TIP3    H2 6790   2.073   5.962   0.186
 2262TIP3   OH2 6791   3.188   2.679   4.986
 2262TIP3    H1 6792   3.135   2.599   4.979
 2262TIP3    H2 6793   3.136   2.738   5.041
 2263TIP3   OH2 6794   3.471   1.878   2.153
 2263TIP3    H1 6795   3.396   1.838   2.196
 2263TIP3    H2 6796   3.517   1.804   2.112
 2264TIP3   OH2 6797   3.995   3.391   4.029
 2264TIP3    H1 6798   3.993   3.299   4.058
 2264TIP3    H2 6799   3.950   3.439   4.098
 2265TIP3   OH2 6800   2.017   0.480   3.162
 2265TIP3    H1 6801   1.943   0.522   3.207
 2265TIP3    H2 6802   2.031   0.534   3.084
 2266TIP3   OH2 6803   5.005   5.148   2.086
 2266TIP3    H1 6804   4.925   5.099   2.067
 2266TIP3    H2 6805   5.075   5.095   2.050
 2267TIP3   OH2 6806   2.832   0.057   4.135
 2267TIP3    H1 6807   2.925   0.054   4.160
 2267TIP3    H2 6808   2.805  -0.035   4.134
 2268TIP3   OH2 6809   4.438   1.954   5.125
 2268TIP3    H1 6810   4.430   2.047   5.104
 2268TIP3    H2 6811   4.399   1.910   5.049
 2269TIP3   OH2 6812   0.993   1.513   0.901
 2269TIP3    H1 6813   0.897   1.518   0.902
 2269TIP3    H2 6814   1.013   1.464   0.821
 2270TIP3   OH2 6815   1.517   0.936   0.557
 2270TIP3    H1 6816   1.438   0.884   0.544
 2270TIP3    H2 6817   1.529   0.939   0.652
 2271TIP3   OH2 6818   2.279   0.178   0.092
 2271TIP3    H1 6819   2.233   0.095   0.096
 2271TIP3    H2 6820   2.298   0.200   0.183
 2272TIP3   OH2 6821   2.753   2.122   2.958
 2272TIP3    H1 6822   2.763   2.087   3.046
 2272TIP3    H2 6823   2.801   2.205   2.959
 2273TIP3   OH2 6824   0.251   2.537   2.732
 2273TIP3    H1 6825   0.329   2.489   2.761
 2273TIP3    H2 6826   0.234   2.503   2.644
 2274TIP3   OH2 6827   4.408   0.102   4.462
 2274TIP3    H1 6828   4.426   0.162   4.389
 2274TIP3    H2 6829   4.325   0.061   4.439
 2275TIP3   OH2 6830   2.628   3.731   3.044
 2275TIP3    H1 6831   2.625   3.706   3.137
 2275TIP3    H2 6832   2.720   3.720   3.020
 2276TIP3   OH2 6833   4.739   1.039   4.174
 2276TIP3    H1 6834   4.798   0.964   4.163
 2276TIP3    H2 6835   4.704   1.055   4.087
 2277TIP3   OH2 6836   4.186   3.716   2.436
 2277TIP3    H1 6837   4.210   3.645   2.495
 2277TIP3    H2 6838   4.241   3.790   2.463
 2278TIP3   OH2 6839   2.031   3.784   4.191
 2278TIP3    H1 6840   2.017   3.831   4.109
 2278TIP3    H2 6841   2.111   3.822   4.227
 2279TIP3   OH2 6842   5.114   1.556   0.241
 2279TIP3    H1 6843   5.035   1.576   0.292
 2279TIP3    H2 6844   5.083   1.548   0.151
 2280TIP3   OH2 6845   4.538   1.951   2.574
 2280TIP3    H1 6846   4.537   1.994   2.660
 2280TIP3    H2 6847   4.446   1.942   2.551
 2281TIP3   OH2 6848   0.510   4.619   4.703
 2281TIP3    H1 6849   0.509   4.689   4.637
 2281TIP3    H2 6850   0.536   4.541   4.654
 2282TIP3   OH2 6851   1.327   2.518   1.024
 2282TIP3    H1 6852   1.286   2.573   0.957
 2282TIP3    H2 6853   1.388   2.576   1.068
 2283TIP3   OH2 6854   1.948   0.644   1.101
 2283TIP3    H1 6855   1.908   0.557   1.102
 2283TIP3    H2 6856   2.019   0.638   1.038
 2284TIP3   OH2 6857   4.042   3.353   2.398
 2284TIP3    H1 6858   4.004   3.440   2.386
 2284TIP3    H2 6859   4.019   3.330   2.488
 2285TIP3   OH2 6860   2.553   2.369   2.819
 2285TIP3    H1 6861   2.533   2.462   2.821
 2285TIP3    H2 6862   2.644   2.363   2.847
 2286TIP3   OH2 6863   5.066   0.427   3.737
 2286TIP3    H1 6864   5.094   0.359   3.798
 2286TIP3    H2 6865   5.092   0.509   3.779
 2287TIP3   OH2 6866   6.037   2.647   3.617
 2287TIP3    H1 6867   6.035   2.588   3.692
 2287TIP3    H2 6868   5.963   2.619   3.563
 2288TIP3   OH2 6869   3.307   2.105   0.538
 2288TIP3    H1 6870   3.228   2.099   0.484
 2288TIP3    H2 6871   3.276   2.093   0.628
 2289TIP3   OH2 6872   1.527   3.978   0.817
 2289TIP3    H1 6873   1.516   3.884   0.833
 2289TIP3    H2 6874   1.524   3.987   0.722
 2290TIP3   OH2 6875   6.122   3.232   3.987
 2290TIP3    H1 6876   6.211   3.266   3.985
 2290TIP3    H2 6877   6.094   3.232   3.895
 2291TIP3   OH2 6878   0.196   4.946   0.619
 2291TIP3    H1 6879   0.133   5.009   0.584
 2291TIP3    H2 6880   0.145   4.891   0.678
 2292TIP3   OH2 6881   4.134   0.391   1.523
 2292TIP3    H1 6882   4.147   0.408   1.429
 2292TIP3    H2 6883   4.193   0.317   1.541
 2293TIP3   OH2 6884   3.438   5.624   3.391
 2293TIP3    H1 6885   3.350   5.620   3.428
 2293TIP3    H2 6886   3.476   5.703   3.429
 2294TIP3   OH2 6887   0.939   2.271   1.424
 2294TIP3    H1 6888   0.935   2.367   1.420
 2294TIP3    H2 6889   1.030   2.251   1.442
 2295TIP3   OH2 6890   5.682   2.968   4.672
 2295TIP3    H1 6891   5.769   2.951   4.636
 2295TIP3    H2 6892   5.649   2.881   4.695
 2296TIP3   OH2 6893   0.128   5.629   3.117
 2296TIP3    H1 6894   0.065   5.700   3.107
 2296TIP3    H2 6895   0.105   5.589   3.201
 2297TIP3   OH2 6896   0.355   4.216   2.273
 2297TIP3    H1 6897   0.338   4.307   2.295
 2297TIP3    H2 6898   0.440   4.197   2.314
 2298TIP3   OH2 6899   5.344   5.333   0.293
 2298TIP3    H1 6900   5.394   5.272   0.346
 2298TIP3    H2 6901   5.331   5.289   0.209
 2299TIP3   OH2 6902   2.971   4.028   3.285
 2299TIP3    H1 6903   3.041   3.983   3.333
 2299TIP3    H2 6904   2.992   4.121   3.295
 2300TIP3   OH2 6905   2.468   3.530   1.187
 2300TIP3    H1 6906   2.485   3.615   1.229
 2300TIP3    H2 6907   2.444   3.472   1.259
 2301TIP3   OH2 6908   6.275   4.868   4.969
 2301TIP3    H1 6909   6.363   4.892   4.995
 2301TIP3    H2 6910   6.219   4.902   5.039
 2302TIP3   OH2 6911   3.038   2.411   4.169
 2302TIP3    H1 6912   2.951   2.422   4.205
 2302TIP3    H2 6913   3.025   2.360   4.089
 2303TIP3   OH2 6914   0.198   3.374   2.947
 2303TIP3    H1 6915   0.281   3.332   2.970
 2303TIP3    H2 6916   0.201   3.382   2.852
 2304TIP3   OH2 6917   1.032   0.122   0.481
 2304TIP3    H1 6918   1.101   0.176   0.519
 2304TIP3    H2 6919   1.038   0.139   0.387
 2305TIP3   OH2 6920   3.014   1.385   4.417
 2305TIP3    H1 6921   3.058   1.336   4.347
 2305TIP3    H2 6922   2.930   1.410   4.379
 2306TIP3   OH2 6923   5.647   1.356   4.776
 2306TIP3    H1 6924   5.700   1.414   4.832
 2306TIP3    H2 6925   5.557   1.374   4.802
 2307TIP3   OH2 6926   5.242   1.105   3.772
 2307TIP3    H1 6927   5.180   1.112   3.699
 2307TIP3    H2 6928   5.186   1.095   3.849
 2308TIP3   OH2 6929   4.469   5.397   4.780
 2308TIP3    H1 6930   4.544   5.375   4.835
 2308TIP3    H2 6931   4.453   5.489   4.799
 2309TIP3   OH2 6932   4.322   4.592   0.561
 2309TIP3    H1 6933   4.387   4.533   0.522
 2309TIP3    H2 6934   4.282   4.540   0.631
 2310TIP3   OH2 6935   2.245   1.561   2.102
 2310TIP3    H1 6936   2.212   1.644   2.068
 2310TIP3    H2 6937   2.169   1.522   2.146
 2311TIP3   OH2 6938   1.134   3.210   2.828
 2311TIP3    H1 6939   1.172   3.253   2.905
 2311TIP3    H2 6940   1.195   3.139   2.808
 2312TIP3   OH2 6941   1.439   3.727   4.117
 2312TIP3    H1 6942   1.471   3.702   4.203
 2312TIP3    H2 6943   1.485   3.808   4.096
 2313TIP3   OH2 6944   0.630   2.397   2.185
 2313TIP3    H1 6945   0.645   2.305   2.161
 2313TIP3    H2 6946   0.716   2.438   2.174
 2314TIP3   OH2 6947   5.869   1.679   0.831
 2314TIP3    H1 6948   5.823   1.743   0.886
 2314TIP3    H2 6949   5.842   1.594   0.866
 2315TIP3   OH2 6950   4.513   5.689   2.758
 2315TIP3    H1 6951   4.488   5.766   2.706
 2315TIP3    H2 6952   4.579   5.722   2.819
 2316TIP3   OH2 6953   5.976   1.202   3.375
 2316TIP3    H1 6954   6.014   1.220   3.460
 2316TIP3    H2 6955   5.991   1.281   3.323
 2317TIP3   OH2 6956   0.472   5.251   1.769
 2317TIP3    H1 6957   0.415   5.225   1.842
 2317TIP3    H2 6958   0.413   5.293   1.707
 2318TIP3   OH2 6959   3.600   2.558   1.017
 2318TIP3    H1 6960   3.550   2.587   0.940
 2318TIP3    H2 6961   3.536   2.511   1.071
 2319TIP3   OH2 6962   2.978   1.320   0.599
 2319TIP3    H1 6963   2.973   1.251   0.665
 2319TIP3    H2 6964   3.060   1.304   0.553
 2320TIP3   OH2 6965   0.431   1.897   5.145
 2320TIP3    H1 6966   0.477   1.904   5.228
 2320TIP3    H2 6967   0.338   1.905   5.168
 2321TIP3   OH2 6968   0.358   4.451   2.743
 2321TIP3    H1 6969   0.310   4.401   2.676
 2321TIP3    H2 6970   0.377   4.387   2.811
 2322TIP3   OH2 6971   5.103   1.461   4.386
 2322TIP3    H1 6972   5.142   1.384   4.426
 2322TIP3    H2 6973   5.136   1.535   4.437
 2323TIP3   OH2 6974   0.466   0.400   2.905
 2323TIP3    H1 6975   0.377   0.432   2.891
 2323TIP3    H2 6976   0.519   0.445   2.840
 2324TIP3   OH2 6977   0.581   4.416   2.044
 2324TIP3    H1 6978   0.616   4.448   2.127
 2324TIP3    H2 6979   0.657   4.387   1.995
 2325TIP3   OH2 6980   4.053   0.616   0.762
 2325TIP3    H1 6981   4.054   0.603   0.668
 2325TIP3    H2 6982   4.118   0.684   0.778
 2326TIP3   OH2 6983   0.276   2.670   3.035
 2326TIP3    H1 6984   0.308   2.731   2.969
 2326TIP3    H2 6985   0.312   2.702   3.118
 2327TIP3   OH2 6986   5.271   4.782   1.074
 2327TIP3    H1 6987   5.360   4.748   1.086
 2327TIP3    H2 6988   5.216   4.716   1.116
 2328TIP3   OH2 6989   1.554   0.768   3.038
 2328TIP3    H1 6990   1.607   0.836   2.996
 2328TIP3    H2 6991   1.531   0.805   3.123
 2329TIP3   OH2 6992   1.884   0.114   1.257
 2329TIP3    H1 6993   1.822   0.169   1.304
 2329TIP3    H2 6994   1.829   0.062   1.197
 2330TIP3   OH2 6995   3.734   0.559   2.568
 2330TIP3    H1 6996   3.673   0.622   2.529
 2330TIP3    H2 6997   3.795   0.538   2.498
 2331TIP3   OH2 6998   2.717   4.183   0.725
 2331TIP3    H1 6999   2.794   4.127   0.739
 2331TIP3    H2 7000   2.667   4.138   0.656
 2332TIP3   OH2 7001   2.030   3.578   4.391
 2332TIP3    H1 7002   1.994   3.611   4.473
 2332TIP3    H2 7003   2.032   3.655   4.334
 2333TIP3   OH2 7004   2.813   0.592   2.900
 2333TIP3    H1 7005   2.721   0.576   2.876
 2333TIP3    H2 7006   2.844   0.508   2.935
 2334TIP3   OH2 7007   0.787   0.992   4.705
 2334TIP3    H1 7008   0.792   1.001   4.800
 2334TIP3    H2 7009   0.726   1.061   4.678
 2335TIP3   OH2 7010   2.614   1.149   1.806
 2335TIP3    H1 7011   2.591   1.172   1.716
 2335TIP3    H2 7012   2.701   1.109   1.799
 2336TIP3   OH2 7013   5.844   3.935   1.703
 2336TIP3    H1 7014   5.827   3.844   1.682
 2336TIP3    H2 7015   5.939   3.943   1.701
 2337TIP3   OH2 7016   1.885   2.546   4.671
 2337TIP3    H1 7017   1.948   2.587   4.730
 2337TIP3    H2 7018   1.864   2.462   4.714
 2338TIP3   OH2 7019   1.425   3.408   2.696
 2338TIP3    H1 7020   1.409   3.361   2.614
 2338TIP3    H2 7021   1.359   3.477   2.696
 2339TIP3   OH2 7022   0.341   2.246   2.189
 2339TIP3    H1 7023   0.434   2.226   2.182
 2339TIP3    H2 7024   0.297   2.168   2.157
 2340TIP3   OH2 7025   2.496   0.737   3.437
 2340TIP3    H1 7026   2.414   0.780   3.461
 2340TIP3    H2 7027   2.509   0.670   3.504
 2341TIP3   OH2 7028   4.877   2.827   3.841
 2341TIP3    H1 7029   4.833   2.749   3.806
 2341TIP3    H2 7030   4.830   2.901   3.801
 2342TIP3   OH2 7031   5.560   0.938   0.460
 2342TIP3    H1 7032   5.555   1.033   0.450
 2342TIP3    H2 7033   5.491   0.904   0.403
 2343TIP3   OH2 7034   4.007   3.624   4.544
 2343TIP3    H1 7035   3.917   3.590   4.549
 2343TIP3    H2 7036   4.030   3.642   4.635
 2344TIP3   OH2 7037   3.266   1.040   0.555
 2344TIP3    H1 7038   3.316   1.028   0.636
 2344TIP3    H2 7039   3.312   1.109   0.509
 2345TIP3   OH2 7040   0.866   2.959   1.479
 2345TIP3    H1 7041   0.829   2.950   1.567
 2345TIP3    H2 7042   0.822   2.892   1.427
 2346TIP3   OH2 7043   3.888   5.469   2.903
 2346TIP3    H1 7044   3.912   5.510   2.820
 2346TIP3    H2 7045   3.871   5.542   2.962
 2347TIP3   OH2 7046   4.466   4.801   2.147
 2347TIP3    H1 7047   4.533   4.742   2.113
 2347TIP3    H2 7048   4.403   4.810   2.076
 2348TIP3   OH2 7049   6.219   4.614   4.601
 2348TIP3    H1 7050   6.254   4.621   4.689
 2348TIP3    H2 7051   6.155   4.686   4.595
 2349TIP3   OH2 7052   3.829   1.043   3.342
 2349TIP3    H1 7053   3.881   0.963   3.332
 2349TIP3    H2 7054   3.877   1.095   3.406
 2350TIP3   OH2 7055   3.828   0.327   5.094
 2350TIP3    H1 7056   3.803   0.310   5.003
 2350TIP3    H2 7057   3.909   0.276   5.106
 2351TIP3   OH2 7058   4.735   0.581   2.832
 2351TIP3    H1 7059   4.795   0.653   2.850
 2351TIP3    H2 7060   4.735   0.529   2.912
 2352TIP3   OH2 7061   0.458   1.992   3.469
 2352TIP3    H1 7062   0.455   2.041   3.551
 2352TIP3    H2 7063   0.396   2.038   3.412
 2353TIP3   OH2 7064   2.994   5.418   3.968
 2353TIP3    H1 7065   3.058   5.361   4.010
 2353TIP3    H2 7066   2.942   5.360   3.912
 2354TIP3   OH2 7067   0.071   3.932   4.809
 2354TIP3    H1 7068   0.008   4.001   4.789
 2354TIP3    H2 7069   0.049   3.861   4.749
 2355TIP3   OH2 7070   5.779   3.505   4.056
 2355TIP3    H1 7071   5.834   3.428   4.067
 2355TIP3    H2 7072   5.698   3.484   4.103
 2356TIP3   OH2 7073   3.584   1.250   1.329
 2356TIP3    H1 7074   3.588   1.170   1.276
 2356TIP3    H2 7075   3.508   1.298   1.293
 2357TIP3   OH2 7076   0.648   4.407   3.401
 2357TIP3    H1 7077   0.613   4.344   3.337
 2357TIP3    H2 7078   0.672   4.483   3.348
 2358TIP3   OH2 7079   5.519   0.951   2.307
 2358TIP3    H1 7080   5.567   0.971   2.388
 2358TIP3    H2 7081   5.428   0.946   2.334
 2359TIP3   OH2 7082   1.097   3.669   0.918
 2359TIP3    H1 7083   1.078   3.757   0.951
 2359TIP3    H2 7084   1.115   3.617   0.996
 2360TIP3   OH2 7085   5.577   3.481   4.863
 2360TIP3    H1 7086   5.598   3.532   4.941
 2360TIP3    H2 7087   5.637   3.514   4.796
 2361TIP3   OH2 7088   5.780   2.162   1.650
 2361TIP3    H1 7089   5.785   2.198   1.738
 2361TIP3    H2 7090   5.815   2.073   1.659
 2362TIP3   OH2 7091   4.754   4.459   1.707
 2362TIP3    H1 7092   4.836   4.418   1.735
 2362TIP3    H2 7093   4.763   4.550   1.734
 2363TIP3   OH2 7094   4.540   4.614   4.480
 2363TIP3    H1 7095   4.608   4.631   4.415
 2363TIP3    H2 7096   4.491   4.540   4.445
 2364TIP3   OH2 7097   2.110   4.191   2.361
 2364TIP3    H1 7098   2.024   4.231   2.372
 2364TIP3    H2 7099   2.125   4.190   2.267
 2365TIP3   OH2 7100   1.949   3.060   1.896
 2365TIP3    H1 7101   1.890   3.134   1.882
 2365TIP3    H2 7102   2.036   3.100   1.905
 2366TIP3   OH2 7103   1.499   5.351   1.462
 2366TIP3    H1 7104   1.448   5.281   1.503
 2366TIP3    H2 7105   1.444   5.429   1.470
 2367TIP3   OH2 7106   5.986   2.192   0.012
 2367TIP3    H1 7107   6.019   2.108   0.043
 2367TIP3    H2 7108   6.005   2.252   0.084
 2368TIP3   OH2 7109   2.457   0.326   3.070
 2368TIP3    H1 7110   2.366   0.341   3.097
 2368TIP3    H2 7111   2.508   0.336   3.150
 2369TIP3   OH2 7112   4.310   5.218   2.832
 2369TIP3    H1 7113   4.217   5.216   2.854
 2369TIP3    H2 7114   4.340   5.128   2.844
 2370TIP3   OH2 7115   3.117   5.196   4.063
 2370TIP3    H1 7116   3.085   5.106   4.072
 2370TIP3    H2 7117   3.176   5.193   3.988
 2371TIP3   OH2 7118   5.501   4.147   0.563
 2371TIP3    H1 7119   5.585   4.126   0.521
 2371TIP3    H2 7120   5.504   4.103   0.647
 2372TIP3   OH2 7121   5.066   2.764   1.691
 2372TIP3    H1 7122   4.972   2.747   1.693
 2372TIP3    H2 7123   5.086   2.801   1.777
 2373TIP3   OH2 7124   1.209   0.755   4.597
 2373TIP3    H1 7125   1.131   0.794   4.560
 2373TIP3    H2 7126   1.278   0.820   4.584
 2374TIP3   OH2 7127   3.456   4.201   4.115
 2374TIP3    H1 7128   3.404   4.125   4.142
 2374TIP3    H2 7129   3.539   4.190   4.162
 2375TIP3   OH2 7130   0.757   5.792   1.568
 2375TIP3    H1 7131   0.760   5.815   1.660
 2375TIP3    H2 7132   0.847   5.773   1.545
 2376TIP3   OH2 7133   1.638   5.436   3.039
 2376TIP3    H1 7134   1.681   5.442   3.124
 2376TIP3    H2 7135   1.572   5.505   3.041
 2377TIP3   OH2 7136   2.344   0.810   0.659
 2377TIP3    H1 7137   2.260   0.829   0.701
 2377TIP3    H2 7138   2.322   0.749   0.589
 2378TIP3   OH2 7139   4.841   5.688   0.189
 2378TIP3    H1 7140   4.816   5.677   0.097
 2378TIP3    H2 7141   4.844   5.783   0.202
 2379TIP3   OH2 7142   6.165   5.604   2.884
 2379TIP3    H1 7143   6.156   5.676   2.947
 2379TIP3    H2 7144   6.106   5.536   2.917
 2380TIP3   OH2 7145   4.178   5.307   3.793
 2380TIP3    H1 7146   4.207   5.307   3.702
 2380TIP3    H2 7147   4.210   5.224   3.829
 2381TIP3   OH2 7148   3.464   1.420   2.946
 2381TIP3    H1 7149   3.486   1.340   2.899
 2381TIP3    H2 7150   3.541   1.475   2.938
 2382TIP3   OH2 7151   3.717   1.649   5.102
 2382TIP3    H1 7152   3.687   1.614   5.186
 2382TIP3    H2 7153   3.717   1.573   5.043
 2383TIP3   OH2 7154   0.563   1.999   1.544
 2383TIP3    H1 7155   0.555   1.919   1.492
 2383TIP3    H2 7156   0.475   2.036   1.544
 2384TIP3   OH2 7157   1.114   1.298   3.736
 2384TIP3    H1 7158   1.143   1.338   3.818
 2384TIP3    H2 7159   1.173   1.334   3.670
 2385TIP3   OH2 7160   5.052   2.518   1.424
 2385TIP3    H1 7161   5.087   2.442   1.378
 2385TIP3    H2 7162   5.106   2.591   1.394
 2386TIP3   OH2 7163   2.359   3.247   4.198
 2386TIP3    H1 7164   2.290   3.268   4.135
 2386TIP3    H2 7165   2.439   3.249   4.147
 2387TIP3   OH2 7166   3.499   5.050   5.006
 2387TIP3    H1 7167   3.538   5.074   5.090
 2387TIP3    H2 7168   3.573   5.030   4.949
 2388TIP3   OH2 7169   4.392   4.305   5.149
 2388TIP3    H1 7170   4.396   4.383   5.203
 2388TIP3    H2 7171   4.476   4.303   5.104
 2389TIP3   OH2 7172   0.581   2.039   0.326
 2389TIP3    H1 7173   0.505   1.984   0.347
 2389TIP3    H2 7174   0.627   2.048   0.410
 2390TIP3   OH2 7175   6.376   4.094   3.692
 2390TIP3    H1 7176   6.348   4.161   3.754
 2390TIP3    H2 7177   6.307   4.028   3.693
 2391TIP3   OH2 7178   4.555   1.587   3.254
 2391TIP3    H1 7179   4.588   1.673   3.228
 2391TIP3    H2 7180   4.515   1.551   3.175
 2392TIP3   OH2 7181   5.126   1.408   3.858
 2392TIP3    H1 7182   5.137   1.442   3.946
 2392TIP3    H2 7183   5.031   1.407   3.844
 2393TIP3   OH2 7184   2.340   2.600   2.424
 2393TIP3    H1 7185   2.413   2.593   2.486
 2393TIP3    H2 7186   2.316   2.509   2.405
 2394TIP3   OH2 7187   3.584   4.182   1.897
 2394TIP3    H1 7188   3.632   4.100   1.884
 2394TIP3    H2 7189   3.602   4.206   1.988
 2395TIP3   OH2 7190   4.362   5.470   0.661
 2395TIP3    H1 7191   4.351   5.376   0.674
 2395TIP3    H2 7192   4.453   5.488   0.685
 2396TIP3   OH2 7193   4.996   3.324   4.727
 2396TIP3    H1 7194   5.078   3.359   4.761
 2396TIP3    H2 7195   4.971   3.385   4.657
 2397TIP3   OH2 7196   5.990   3.920   1.076
 2397TIP3    H1 7197   5.914   3.959   1.120
 2397TIP3    H2 7198   5.974   3.936   0.983
 2398TIP3   OH2 7199   5.953   1.028   2.163
 2398TIP3    H1 7200   5.875   1.055   2.114
 2398TIP3    H2 7201   6.026   1.045   2.103
 2399TIP3   OH2 7202   4.722   5.038   4.651
 2399TIP3    H1 7203   4.741   5.009   4.562
 2399TIP3    H2 7204   4.637   5.081   4.645
 2400TIP3   OH2 7205   4.883   1.670   2.614
 2400TIP3    H1 7206   4.864   1.752   2.568
 2400TIP3    H2 7207   4.928   1.617   2.549
 2401TIP3   OH2 7208   6.084   2.907   3.019
 2401TIP3    H1 7209   6.034   2.837   3.061
 2401TIP3    H2 7210   6.153   2.929   3.082
 2402TIP3   OH2 7211   3.861   2.119   0.189
 2402TIP3    H1 7212   3.841   2.182   0.119
 2402TIP3    H2 7213   3.811   2.150   0.264
 2403TIP3   OH2 7214   3.322   5.753   0.125
 2403TIP3    H1 7215   3.326   5.728   0.217
 2403TIP3    H2 7216   3.409   5.731   0.091
 2404TIP3   OH2 7217   1.746   4.476   1.402
 2404TIP3    H1 7218   1.699   4.521   1.471
 2404TIP3    H2 7219   1.746   4.537   1.328
 2405TIP3   OH2 7220   3.297   0.168   0.327
 2405TIP3    H1 7221   3.274   0.174   0.419
 2405TIP3    H2 7222   3.365   0.101   0.323
 2406TIP3   OH2 7223   1.750   5.454   2.229
 2406TIP3    H1 7224   1.759   5.376   2.173
 2406TIP3    H2 7225   1.772   5.424   2.317
 2407TIP3   OH2 7226   3.757   0.767   4.215
 2407TIP3    H1 7227   3.782   0.782   4.124
 2407TIP3    H2 7228   3.665   0.792   4.219
 2408TIP3   OH2 7229   0.980   2.788   0.478
 2408TIP3    H1 7230   0.990   2.861   0.539
 2408TIP3    H2 7231   0.886   2.770   0.477
 2409TIP3   OH2 7232   4.417   0.291   1.990
 2409TIP3    H1 7233   4.450   0.282   2.079
 2409TIP3    H2 7234   4.323   0.272   1.997
 2410TIP3   OH2 7235   5.616   0.175   2.763
 2410TIP3    H1 7236   5.622   0.269   2.748
 2410TIP3    H2 7237   5.606   0.167   2.858
 2411TIP3   OH2 7238   1.834   4.638   3.402
 2411TIP3    H1 7239   1.793   4.706   3.348
 2411TIP3    H2 7240   1.798   4.556   3.368
 2412TIP3   OH2 7241   2.561   1.424   4.152
 2412TIP3    H1 7242   2.571   1.328   4.155
 2412TIP3    H2 7243   2.543   1.449   4.242
 2413TIP3   OH2 7244   5.798   3.254   4.378
 2413TIP3    H1 7245   5.836   3.314   4.314
 2413TIP3    H2 7246   5.847   3.172   4.368
 2414TIP3   OH2 7247   5.048   5.001   4.280
 2414TIP3    H1 7248   5.096   5.067   4.231
 2414TIP3    H2 7249   5.078   5.011   4.370
 2415TIP3   OH2 7250   0.593   5.241   2.766
 2415TIP3    H1 7251   0.538   5.233   2.688
 2415TIP3    H2 7252   0.643   5.159   2.769
 2416TIP3   OH2 7253   4.865   0.611   3.312
 2416TIP3    H1 7254   4.773   0.622   3.289
 2416TIP3    H2 7255   4.865   0.599   3.407
 2417TIP3   OH2 7256   1.712   4.145   3.039
 2417TIP3    H1 7257   1.652   4.208   3.078
 2417TIP3    H2 7258   1.790   4.148   3.096
 2418TIP3   OH2 7259   3.246   0.644   3.209
 2418TIP3    H1 7260   3.212   0.732   3.227
 2418TIP3    H2 7261   3.333   0.660   3.171
 2419TIP3   OH2 7262   2.085   0.592   3.796
 2419TIP3    H1 7263   2.142   0.517   3.810
 2419TIP3    H2 7264   2.044   0.607   3.881
 2420TIP3   OH2 7265   4.404   0.321   3.022
 2420TIP3    H1 7266   4.497   0.342   3.010
 2420TIP3    H2 7267   4.361   0.363   2.948
 2421TIP3   OH2 7268   2.999   0.391   4.644
 2421TIP3    H1 7269   2.913   0.392   4.602
 2421TIP3    H2 7270   2.981   0.375   4.737
 2422TIP3   OH2 7271   5.693   3.940   4.006
 2422TIP3    H1 7272   5.615   3.887   3.989
 2422TIP3    H2 7273   5.668   4.028   3.978
 2423TIP3   OH2 7274   5.474   1.406   0.270
 2423TIP3    H1 7275   5.400   1.345   0.264
 2423TIP3    H2 7276   5.436   1.486   0.304
 2424TIP3   OH2 7277   5.965   3.139   3.416
 2424TIP3    H1 7278   5.986   3.050   3.387
 2424TIP3    H2 7279   6.050   3.180   3.430
 2425TIP3   OH2 7280   0.869   4.453   4.374
 2425TIP3    H1 7281   0.894   4.361   4.361
 2425TIP3    H2 7282   0.860   4.488   4.285
 2426TIP3   OH2 7283   1.866   3.513   2.671
 2426TIP3    H1 7284   1.948   3.489   2.715
 2426TIP3    H2 7285   1.837   3.431   2.630
 2427TIP3   OH2 7286   5.814   3.519   2.209
 2427TIP3    H1 7287   5.868   3.586   2.167
 2427TIP3    H2 7288   5.724   3.544   2.189
 2428TIP3   OH2 7289   2.051   5.940   4.462
 2428TIP3    H1 7290   2.065   5.873   4.529
 2428TIP3    H2 7291   2.005   5.895   4.391
 2429TIP3   OH2 7292   1.346   1.015   4.404
 2429TIP3    H1 7293   1.378   0.974   4.484
 2429TIP3    H2 7294   1.395   0.972   4.334
 2430TIP3   OH2 7295   0.977   0.609   0.252
 2430TIP3    H1 7296   0.984   0.679   0.316
 2430TIP3    H2 7297   0.909   0.637   0.192
 2431TIP3   OH2 7298   3.201   2.316   3.410
 2431TIP3    H1 7299   3.282   2.267   3.395
 2431TIP3    H2 7300   3.231   2.404   3.435
 2432TIP3   OH2 7301   4.283   4.365   1.056
 2432TIP3    H1 7302   4.277   4.383   0.963
 2432TIP3    H2 7303   4.205   4.404   1.094
 2433TIP3   OH2 7304   2.440   3.355   4.439
 2433TIP3    H1 7305   2.419   3.296   4.367
 2433TIP3    H2 7306   2.404   3.440   4.412
 2434TIP3   OH2 7307   2.256   2.351   1.710
 2434TIP3    H1 7308   2.304   2.322   1.787
 2434TIP3    H2 7309   2.202   2.424   1.742
 2435TIP3   OH2 7310   5.106   0.436   1.813
 2435TIP3    H1 7311   5.179   0.429   1.752
 2435TIP3    H2 7312   5.030   0.452   1.757
 2436TIP3   OH2 7313   2.863   4.590   2.720
 2436TIP3    H1 7314   2.806   4.658   2.755
 2436TIP3    H2 7315   2.804   4.524   2.685
 2437TIP3   OH2 7316   3.184   2.994   4.261
 2437TIP3    H1 7317   3.129   3.051   4.207
 2437TIP3    H2 7318   3.135   2.913   4.268
 2438TIP3   OH2 7319   5.567   0.320   0.053
 2438TIP3    H1 7320   5.526   0.234   0.039
 2438TIP3    H2 7321   5.599   0.317   0.144
 2439TIP3   OH2 7322   1.131   1.536   4.414
 2439TIP3    H1 7323   1.190   1.585   4.357
 2439TIP3    H2 7324   1.104   1.461   4.360
 2440TIP3   OH2 7325   1.604   5.462   2.767
 2440TIP3    H1 7326   1.693   5.473   2.734
 2440TIP3    H2 7327   1.609   5.487   2.859
 2441TIP3   OH2 7328   0.632   0.064   4.468
 2441TIP3    H1 7329   0.580   0.016   4.533
 2441TIP3    H2 7330   0.650   0.148   4.509
 2442TIP3   OH2 7331   2.897   4.847   2.991
 2442TIP3    H1 7332   2.968   4.907   3.014
 2442TIP3    H2 7333   2.940   4.762   2.977
 2443TIP3   OH2 7334   0.183   4.737   4.688
 2443TIP3    H1 7335   0.133   4.656   4.677
 2443TIP3    H2 7336   0.240   4.740   4.612
 2444TIP3   OH2 7337   0.493   4.186   3.813
 2444TIP3    H1 7338   0.412   4.198   3.863
 2444TIP3    H2 7339   0.467   4.196   3.722
 2445TIP3   OH2 7340   3.339   1.022   1.744
 2445TIP3    H1 7341   3.412   1.011   1.805
 2445TIP3    H2 7342   3.374   1.078   1.674
 2446TIP3   OH2 7343   3.092   2.763   2.151
 2446TIP3    H1 7344   3.040   2.809   2.084
 2446TIP3    H2 7345   3.097   2.673   2.120
 2447TIP3   OH2 7346   2.597   0.167   3.578
 2447TIP3    H1 7347   2.634   0.099   3.522
 2447TIP3    H2 7348   2.673   0.214   3.613
 2448TIP3   OH2 7349   0.282   4.593   0.320
 2448TIP3    H1 7350   0.302   4.686   0.329
 2448TIP3    H2 7351   0.186   4.589   0.322
 2449TIP3   OH2 7352   5.864   3.933   0.053
 2449TIP3    H1 7353   5.950   3.969   0.078
 2449TIP3    H2 7354   5.801   3.997   0.085
 2450TIP3   OH2 7355   1.818   5.384   4.891
 2450TIP3    H1 7356   1.798   5.441   4.965
 2450TIP3    H2 7357   1.849   5.303   4.930
 2451TIP3   OH2 7358   3.911   3.129   4.080
 2451TIP3    H1 7359   3.853   3.158   4.010
 2451TIP3    H2 7360   3.967   3.063   4.039
 2452TIP3   OH2 7361   1.632   1.496   0.879
 2452TIP3    H1 7362   1.684   1.563   0.923
 2452TIP3    H2 7363   1.543   1.510   0.913
 2453TIP3   OH2 7364   3.539   1.423   3.742
 2453TIP3    H1 7365   3.487   1.345   3.723
 2453TIP3    H2 7366   3.498   1.492   3.690
 2454TIP3   OH2 7367   0.313   0.332   3.763
 2454TIP3    H1 7368   0.314   0.240   3.790
 2454TIP3    H2 7369   0.399   0.365   3.790
 2455TIP3   OH2 7370   0.194   1.769   1.255
 2455TIP3    H1 7371   0.113   1.755   1.304
 2455TIP3    H2 7372   0.219   1.681   1.225
 2456TIP3   OH2 7373   2.887   4.768   4.021
 2456TIP3    H1 7374   2.955   4.708   3.989
 2456TIP3    H2 7375   2.817   4.710   4.051
 2457TIP3   OH2 7376   2.143   2.139   1.468
 2457TIP3    H1 7377   2.147   2.203   1.397
 2457TIP3    H2 7378   2.099   2.063   1.429
 2458TIP3   OH2 7379   4.217   5.791   3.401
 2458TIP3    H1 7380   4.295   5.841   3.375
 2458TIP3    H2 7381   4.147   5.825   3.345
 2459TIP3   OH2 7382   2.483   3.098   2.350
 2459TIP3    H1 7383   2.399   3.067   2.385
 2459TIP3    H2 7384   2.497   3.043   2.272
 2460TIP3   OH2 7385   6.056   1.211   0.894
 2460TIP3    H1 7386   5.994   1.179   0.828
 2460TIP3    H2 7387   6.142   1.191   0.857
 2461TIP3   OH2 7388   2.579   0.704   3.182
 2461TIP3    H1 7389   2.495   0.674   3.147
 2461TIP3    H2 7390   2.562   0.718   3.275
 2462TIP3   OH2 7391   4.594   2.207   3.404
 2462TIP3    H1 7392   4.598   2.148   3.479
 2462TIP3    H2 7393   4.527   2.271   3.428
 2463TIP3   OH2 7394   1.803   3.807   2.356
 2463TIP3    H1 7395   1.769   3.733   2.307
 2463TIP3    H2 7396   1.851   3.859   2.291
 2464TIP3   OH2 7397   4.416   1.165   1.253
 2464TIP3    H1 7398   4.462   1.104   1.195
 2464TIP3    H2 7399   4.343   1.115   1.288
 2465TIP3   OH2 7400   4.076   3.735   4.196
 2465TIP3    H1 7401   4.081   3.795   4.122
 2465TIP3    H2 7402   4.161   3.691   4.197
 2466TIP3   OH2 7403   3.541   2.396   3.178
 2466TIP3    H1 7404   3.484   2.351   3.241
 2466TIP3    H2 7405   3.629   2.383   3.212
 2467TIP3   OH2 7406   5.847   5.246   0.738
 2467TIP3    H1 7407   5.776   5.183   0.751
 2467TIP3    H2 7408   5.804   5.321   0.696
 2468TIP3   OH2 7409   3.011   0.694   5.005
 2468TIP3    H1 7410   2.916   0.703   4.992
 2468TIP3    H2 7411   3.048   0.765   4.952
 2469TIP3   OH2 7412   1.065   1.971   1.395
 2469TIP3    H1 7413   1.065   1.884   1.356
 2469TIP3    H2 7414   1.005   1.964   1.469
 2470TIP3   OH2 7415   4.434   1.610   1.086
 2470TIP3    H1 7416   4.496   1.600   1.013
 2470TIP3    H2 7417   4.360   1.657   1.048
 2471TIP3   OH2 7418   5.136   0.885   1.077
 2471TIP3    H1 7419   5.142   0.798   1.116
 2471TIP3    H2 7420   5.126   0.944   1.151
 2472TIP3   OH2 7421   3.061   0.405   1.183
 2472TIP3    H1 7422   3.153   0.429   1.197
 2472TIP3    H2 7423   3.013   0.460   1.244
 2473TIP3   OH2 7424   5.929   5.806   4.001
 2473TIP3    H1 7425   5.843   5.801   4.043
 2473TIP3    H2 7426   5.957   5.715   3.992
 2474TIP3   OH2 7427   2.693   5.548   2.039
 2474TIP3    H1 7428   2.705   5.549   1.944
 2474TIP3    H2 7429   2.600   5.529   2.051
 2475TIP3   OH2 7430   4.266   1.185   4.469
 2475TIP3    H1 7431   4.232   1.266   4.430
 2475TIP3    H2 7432   4.333   1.156   4.407
 2476TIP3   OH2 7433   4.155   5.414   0.481
 2476TIP3    H1 7434   4.149   5.319   0.477
 2476TIP3    H2 7435   4.240   5.431   0.522
 2477TIP3   OH2 7436   3.095   2.668   3.676
 2477TIP3    H1 7437   3.190   2.663   3.666
 2477TIP3    H2 7438   3.074   2.600   3.741
 2478TIP3   OH2 7439   5.761   1.267   3.184
 2478TIP3    H1 7440   5.774   1.258   3.089
 2478TIP3    H2 7441   5.822   1.337   3.209
 2479TIP3   OH2 7442   2.493   2.289   3.291
 2479TIP3    H1 7443   2.507   2.203   3.331
 2479TIP3    H2 7444   2.580   2.327   3.286
 2480TIP3   OH2 7445   2.483   5.289   3.682
 2480TIP3    H1 7446   2.479   5.224   3.752
 2480TIP3    H2 7447   2.576   5.296   3.661
 2481TIP3   OH2 7448   3.455   0.160   1.886
 2481TIP3    H1 7449   3.512   0.162   1.963
 2481TIP3    H2 7450   3.452   0.251   1.857
 2482TIP3   OH2 7451   5.174   5.108   3.571
 2482TIP3    H1 7452   5.235   5.034   3.573
 2482TIP3    H2 7453   5.172   5.141   3.661
 2483TIP3   OH2 7454   5.586   1.570   4.540
 2483TIP3    H1 7455   5.552   1.655   4.512
 2483TIP3    H2 7456   5.592   1.518   4.460
 2484TIP3   OH2 7457   4.942   0.564   4.979
 2484TIP3    H1 7458   5.014   0.547   5.040
 2484TIP3    H2 7459   4.883   0.490   4.989
 2485TIP3   OH2 7460   3.597   5.030   1.360
 2485TIP3    H1 7461   3.682   5.071   1.377
 2485TIP3    H2 7462   3.607   4.992   1.273
 2486TIP3   OH2 7463   0.901   0.906   2.097
 2486TIP3    H1 7464   0.914   0.978   2.037
 2486TIP3    H2 7465   0.891   0.947   2.183
 2487TIP3   OH2 7466   2.794   2.871   0.621
 2487TIP3    H1 7467   2.824   2.941   0.680
 2487TIP3    H2 7468   2.863   2.805   0.625
 2488TIP3   OH2 7469   4.474   0.462   4.715
 2488TIP3    H1 7470   4.406   0.529   4.705
 2488TIP3    H2 7471   4.425   0.380   4.721
 2489TIP3   OH2 7472   1.870   4.807   0.435
 2489TIP3    H1 7473   1.935   4.751   0.393
 2489TIP3    H2 7474   1.803   4.821   0.367
 2490TIP3   OH2 7475   1.194   0.591   2.499
 2490TIP3    H1 7476   1.216   0.605   2.407
 2490TIP3    H2 7477   1.216   0.499   2.515
 2491TIP3   OH2 7478   5.128   0.886   1.817
 2491TIP3    H1 7479   5.195   0.954   1.804
 2491TIP3    H2 7480   5.102   0.862   1.728
 2492TIP3   OH2 7481   5.524   2.177   3.365
 2492TIP3    H1 7482   5.434   2.165   3.333
 2492TIP3    H2 7483   5.518   2.165   3.460
 2493TIP3   OH2 7484   6.047   2.198   2.323
 2493TIP3    H1 7485   5.963   2.240   2.338
 2493TIP3    H2 7486   6.031   2.134   2.253
 2494TIP3   OH2 7487   3.206   4.394   2.475
 2494TIP3    H1 7488   3.291   4.361   2.504
 2494TIP3    H2 7489   3.160   4.414   2.556
 2495TIP3   OH2 7490   2.477   0.325   2.530
 2495TIP3    H1 7491   2.407   0.264   2.554
 2495TIP3    H2 7492   2.540   0.318   2.602
 2496TIP3   OH2 7493   0.187   4.264   0.473
 2496TIP3    H1 7494   0.133   4.295   0.400
 2496TIP3    H2 7495   0.214   4.176   0.447
 2497TIP3   OH2 7496   1.623   5.786   2.661
 2497TIP3    H1 7497   1.607   5.847   2.590
 2497TIP3    H2 7498   1.694   5.730   2.629
 2498TIP3   OH2 7499   5.452   4.590   0.147
 2498TIP3    H1 7500   5.463   4.666   0.089
 2498TIP3    H2 7501   5.357   4.577   0.152
 2499TIP3   OH2 7502   1.899   0.978   4.002
 2499TIP3    H1 7503   1.944   0.897   4.024
 2499TIP3    H2 7504   1.907   1.032   4.080
 2500TIP3   OH2 7505   1.768   4.426   3.227
 2500TIP3    H1 7506   1.794   4.337   3.250
 2500TIP3    H2 7507   1.673   4.421   3.215
 2501TIP3   OH2 7508   3.551   3.602   4.772
 2501TIP3    H1 7509   3.496   3.647   4.836
 2501TIP3    H2 7510   3.622   3.664   4.754
 2502TIP3   OH2 7511   1.820   3.319   2.497
 2502TIP3    H1 7512   1.894   3.260   2.514
 2502TIP3    H2 7513   1.753   3.263   2.457
 2503TIP3   OH2 7514   5.334   1.722   3.529
 2503TIP3    H1 7515   5.256   1.735   3.476
 2503TIP3    H2 7516   5.372   1.809   3.541
 2504TIP3   OH2 7517   0.844   3.505   2.121
 2504TIP3    H1 7518   0.818   3.476   2.033
 2504TIP3    H2 7519   0.798   3.445   2.179
 2505TIP3   OH2 7520   4.455   3.425   3.161
 2505TIP3    H1 7521   4.478   3.343   3.117
 2505TIP3    H2 7522   4.407   3.397   3.239
 2506TIP3   OH2 7523   0.599   4.489   3.862
 2506TIP3    H1 7524   0.597   4.420   3.929
 2506TIP3    H2 7525   0.668   4.461   3.802
 2507TIP3   OH2 7526   3.459   4.692   2.539
 2507TIP3    H1 7527   3.531   4.755   2.547
 2507TIP3    H2 7528   3.496   4.619   2.490
 2508TIP3   OH2 7529   5.137   1.893   1.690
 2508TIP3    H1 7530   5.103   1.884   1.601
 2508TIP3    H2 7531   5.229   1.868   1.684
 2509TIP3   OH2 7532   2.265   3.577   4.018
 2509TIP3    H1 7533   2.303   3.498   3.980
 2509TIP3    H2 7534   2.271   3.562   4.113
 2510TIP3   OH2 7535   0.787   2.599   0.597
 2510TIP3    H1 7536   0.746   2.643   0.671
 2510TIP3    H2 7537   0.849   2.538   0.637
 2511TIP3   OH2 7538   4.233   2.223   2.352
 2511TIP3    H1 7539   4.250   2.309   2.390
 2511TIP3    H2 7540   4.311   2.202   2.301
 2512TIP3   OH2 7541   2.143   5.178   2.403
 2512TIP3    H1 7542   2.104   5.114   2.343
 2512TIP3    H2 7543   2.238   5.161   2.397
 2513TIP3   OH2 7544   4.012   4.238   1.492
 2513TIP3    H1 7545   3.927   4.199   1.473
 2513TIP3    H2 7546   4.001   4.278   1.578
 2514TIP3   OH2 7547   5.506   1.685   4.961
 2514TIP3    H1 7548   5.442   1.683   5.032
 2514TIP3    H2 7549   5.591   1.673   5.004
 2515TIP3   OH2 7550   6.143   3.395   4.681
 2515TIP3    H1 7551   6.236   3.396   4.703
 2515TIP3    H2 7552   6.137   3.335   4.606
 2516TIP3   OH2 7553   1.672   0.003   1.070
 2516TIP3    H1 7554   1.632  -0.066   1.123
 2516TIP3    H2 7555   1.618   0.008   0.992
 2517TIP3   OH2 7556   5.883   5.301   3.722
 2517TIP3    H1 7557   5.834   5.373   3.760
 2517TIP3    H2 7558   5.934   5.341   3.652
 2518TIP3   OH2 7559   5.767   1.721   5.099
 2518TIP3    H1 7560   5.846   1.772   5.116
 2518TIP3    H2 7561   5.790   1.663   5.027
 2519TIP3   OH2 7562   0.714   2.957   0.517
 2519TIP3    H1 7563   0.665   2.898   0.461
 2519TIP3    H2 7564   0.753   3.021   0.457
 2520TIP3   OH2 7565   0.863   1.776   4.350
 2520TIP3    H1 7566   0.778   1.781   4.304
 2520TIP3    H2 7567   0.840   1.775   4.443
 2521TIP3   OH2 7568   1.285   3.060   3.931
 2521TIP3    H1 7569   1.354   3.042   3.867
 2521TIP3    H2 7570   1.332   3.071   4.014
 2522TIP3   OH2 7571   5.892   1.151   3.790
 2522TIP3    H1 7572   5.821   1.203   3.828
 2522TIP3    H2 7573   5.855   1.118   3.708
 2523TIP3   OH2 7574   5.108   4.956   1.225
 2523TIP3    H1 7575   5.170   4.913   1.166
 2523TIP3    H2 7576   5.025   4.952   1.178
 2524TIP3   OH2 7577   5.327   3.437   2.717
 2524TIP3    H1 7578   5.397   3.427   2.652
 2524TIP3    H2 7579   5.358   3.504   2.777
 2525TIP3   OH2 7580   1.588   2.304   2.488
 2525TIP3    H1 7581   1.564   2.221   2.445
 2525TIP3    H2 7582   1.682   2.313   2.471
 2526TIP3   OH2 7583   3.894   5.444   0.829
 2526TIP3    H1 7584   3.855   5.476   0.748
 2526TIP3    H2 7585   3.940   5.364   0.804
 2527TIP3   OH2 7586   2.954   3.492   2.056
 2527TIP3    H1 7587   2.992   3.454   2.135
 2527TIP3    H2 7588   2.954   3.586   2.072
 2528TIP3   OH2 7589   5.645   5.702   0.341
 2528TIP3    H1 7590   5.562   5.656   0.334
 2528TIP3    H2 7591   5.630   5.784   0.294
 2529TIP3   OH2 7592   2.309   3.185   1.242
 2529TIP3    H1 7593   2.300   3.245   1.169
 2529TIP3    H2 7594   2.402   3.161   1.242
 2530TIP3   OH2 7595   2.377   5.359   0.247
 2530TIP3    H1 7596   2.391   5.302   0.172
 2530TIP3    H2 7597   2.369   5.299   0.321
 2531TIP3   OH2 7598   5.222   5.636   3.624
 2531TIP3    H1 7599   5.227   5.555   3.575
 2531TIP3    H2 7600   5.270   5.700   3.571
 2532TIP3   OH2 7601   3.651   5.434   1.595
 2532TIP3    H1 7602   3.713   5.363   1.613
 2532TIP3    H2 7603   3.566   5.400   1.623
 2533TIP3   OH2 7604   0.172   5.506   4.476
 2533TIP3    H1 7605   0.180   5.514   4.572
 2533TIP3    H2 7606   0.242   5.446   4.451
 2534TIP3   OH2 7607   5.301   1.614   1.947
 2534TIP3    H1 7608   5.396   1.621   1.946
 2534TIP3    H2 7609   5.274   1.637   1.858
 2535TIP3   OH2 7610   5.426   3.353   0.554
 2535TIP3    H1 7611   5.376   3.290   0.607
 2535TIP3    H2 7612   5.467   3.411   0.619
 2536TIP3   OH2 7613   6.006   5.531   4.029
 2536TIP3    H1 7614   6.050   5.470   3.969
 2536TIP3    H2 7615   6.047   5.515   4.114
 2537TIP3   OH2 7616   4.628   1.898   1.859
 2537TIP3    H1 7617   4.699   1.953   1.892
 2537TIP3    H2 7618   4.629   1.913   1.764
 2538TIP3   OH2 7619   3.969   4.594   0.905
 2538TIP3    H1 7620   3.882   4.622   0.935
 2538TIP3    H2 7621   3.972   4.500   0.927
 2539TIP3   OH2 7622   3.543   0.116   2.646
 2539TIP3    H1 7623   3.558   0.179   2.716
 2539TIP3    H2 7624   3.452   0.090   2.656
 2540TIP3   OH2 7625   2.051   3.568   1.077
 2540TIP3    H1 7626   2.061   3.572   1.172
 2540TIP3    H2 7627   2.141   3.567   1.043
 2541TIP3   OH2 7628   2.305   3.385   0.781
 2541TIP3    H1 7629   2.265   3.333   0.711
 2541TIP3    H2 7630   2.394   3.402   0.750
 2542TIP3   OH2 7631   2.961   1.471   3.595
 2542TIP3    H1 7632   2.897   1.530   3.556
 2542TIP3    H2 7633   2.967   1.499   3.686
 2543TIP3   OH2 7634   3.986   2.966   2.893
 2543TIP3    H1 7635   3.901   2.967   2.937
 2543TIP3    H2 7636   4.018   3.056   2.900
 2544TIP3   OH2 7637   3.872   5.917   4.624
 2544TIP3    H1 7638   3.938   5.863   4.667
 2544TIP3    H2 7639   3.807   5.855   4.591
 2545TIP3   OH2 7640   2.176   3.859   0.462
 2545TIP3    H1 7641   2.119   3.865   0.539
 2545TIP3    H2 7642   2.125   3.897   0.391
 2546TIP3   OH2 7643   0.216   4.332   3.141
 2546TIP3    H1 7644   0.248   4.422   3.129
 2546TIP3    H2 7645   0.185   4.305   3.055
 2547TIP3   OH2 7646   2.396   2.078   0.796
 2547TIP3    H1 7647   2.368   1.990   0.822
 2547TIP3    H2 7648   2.450   2.064   0.718
 2548TIP3   OH2 7649   1.089   3.530   1.167
 2548TIP3    H1 7650   1.122   3.608   1.212
 2548TIP3    H2 7651   0.995   3.529   1.187
 2549TIP3   OH2 7652   1.791   4.918   0.983
 2549TIP3    H1 7653   1.789   4.937   1.077
 2549TIP3    H2 7654   1.876   4.875   0.969
 2550TIP3   OH2 7655   4.945   1.180   4.571
 2550TIP3    H1 7656   4.969   1.271   4.586
 2550TIP3    H2 7657   4.870   1.165   4.628
 2551TIP3   OH2 7658   3.420   4.740   2.175
 2551TIP3    H1 7659   3.364   4.715   2.248
 2551TIP3    H2 7660   3.413   4.835   2.171
 2552TIP3   OH2 7661   2.903   5.413   5.173
 2552TIP3    H1 7662   2.808   5.418   5.180
 2552TIP3    H2 7663   2.919   5.390   5.081
 2553TIP3   OH2 7664   5.927   0.735   5.111
 2553TIP3    H1 7665   5.869   0.702   5.179
 2553TIP3    H2 7666   5.869   0.759   5.039
 2554TIP3   OH2 7667   5.563   5.639   1.918
 2554TIP3    H1 7668   5.472   5.668   1.911
 2554TIP3    H2 7669   5.563   5.552   1.877
 2555TIP3   OH2 7670   2.644   3.547   0.099
 2555TIP3    H1 7671   2.690   3.478   0.052
 2555TIP3    H2 7672   2.705   3.622   0.096
 2556TIP3   OH2 7673   6.096   3.794   2.411
 2556TIP3    H1 7674   6.036   3.720   2.425
 2556TIP3    H2 7675   6.150   3.796   2.490
 2557TIP3   OH2 7676   1.270   2.535   2.210
 2557TIP3    H1 7677   1.341   2.526   2.147
 2557TIP3    H2 7678   1.311   2.519   2.295
 2558TIP3   OH2 7679   2.138   2.601   1.808
 2558TIP3    H1 7680   2.065   2.599   1.747
 2558TIP3    H2 7681   2.121   2.677   1.864
 2559TIP3   OH2 7682   4.593   0.637   1.470
 2559TIP3    H1 7683   4.656   0.567   1.456
 2559TIP3    H2 7684   4.509   0.593   1.482
 2560TIP3   OH2 7685   1.480   5.253   1.141
 2560TIP3    H1 7686   1.547   5.249   1.209
 2560TIP3    H2 7687   1.482   5.167   1.100
 2561TIP3   OH2 7688   1.505   0.411   1.007
 2561TIP3    H1 7689   1.595   0.398   0.977
 2561TIP3    H2 7690   1.499   0.505   1.026
 2562TIP3   OH2 7691   5.008   1.085   4.910
 2562TIP3    H1 7692   5.023   1.008   4.965
 2562TIP3    H2 7693   4.967   1.050   4.831
 2563TIP3   OH2 7694   4.165   1.474   1.946
 2563TIP3    H1 7695   4.148   1.548   2.004
 2563TIP3    H2 7696   4.120   1.497   1.864
 2564TIP3   OH2 7697   3.525   2.015   4.085
 2564TIP3    H1 7698   3.618   2.027   4.102
 2564TIP3    H2 7699   3.509   1.922   4.101
 2565TIP3   OH2 7700   2.952   4.476   5.192
 2565TIP3    H1 7701   2.966   4.445   5.102
 2565TIP3    H2 7702   3.031   4.528   5.211
 2566TIP3   OH2 7703   5.213   1.052   3.258
 2566TIP3    H1 7704   5.246   1.104   3.331
 2566TIP3    H2 7705   5.146   1.107   3.218
 2567TIP3   OH2 7706   3.946   0.533   2.114
 2567TIP3    H1 7707   3.960   0.614   2.064
 2567TIP3    H2 7708   4.024   0.480   2.095
 2568TIP3   OH2 7709   3.032   0.475   3.783
 2568TIP3    H1 7710   2.994   0.394   3.817
 2568TIP3    H2 7711   3.050   0.527   3.861
 2569TIP3   OH2 7712   5.137   4.414   4.303
 2569TIP3    H1 7713   5.053   4.370   4.295
 2569TIP3    H2 7714   5.126   4.474   4.377
 2570TIP3   OH2 7715   5.175   0.715   2.031
 2570TIP3    H1 7716   5.146   0.773   1.960
 2570TIP3    H2 7717   5.101   0.714   2.092
 2571TIP3   OH2 7718   3.325   3.467   3.885
 2571TIP3    H1 7719   3.366   3.476   3.971
 2571TIP3    H2 7720   3.380   3.520   3.827
 2572TIP3   OH2 7721   5.769   3.006   4.112
 2572TIP3    H1 7722   5.684   3.000   4.155
 2572TIP3    H2 7723   5.822   2.938   4.154
 2573TIP3   OH2 7724   0.636   0.865   2.248
 2573TIP3    H1 7725   0.709   0.903   2.297
 2573TIP3    H2 7726   0.572   0.841   2.315
 2574TIP3   OH2 7727   2.612   5.732   5.007
 2574TIP3    H1 7728   2.706   5.715   5.002
 2574TIP3    H2 7729   2.588   5.706   5.096
 2575TIP3   OH2 7730   1.450   4.585   4.513
 2575TIP3    H1 7731   1.438   4.657   4.575
 2575TIP3    H2 7732   1.409   4.509   4.556
 2576TIP3   OH2 7733   4.889   2.622   4.315
 2576TIP3    H1 7734   4.978   2.639   4.348
 2576TIP3    H2 7735   4.862   2.705   4.275
 2577TIP3   OH2 7736   6.266   5.344   3.731
 2577TIP3    H1 7737   6.239   5.255   3.707
 2577TIP3    H2 7738   6.203   5.401   3.687
 2578TIP3   OH2 7739   1.120   3.486   3.466
 2578TIP3    H1 7740   1.105   3.422   3.535
 2578TIP3    H2 7741   1.121   3.435   3.385
 2579TIP3   OH2 7742   0.163   0.922   0.799
 2579TIP3    H1 7743   0.234   0.909   0.861
 2579TIP3    H2 7744   0.185   0.866   0.725
 2580TIP3   OH2 7745   3.870   2.278   3.805
 2580TIP3    H1 7746   3.936   2.217   3.772
 2580TIP3    H2 7747   3.900   2.364   3.775
 2581TIP3   OH2 7748   5.900   1.939   1.785
 2581TIP3    H1 7749   5.913   1.856   1.833
 2581TIP3    H2 7750   5.983   1.986   1.796
 2582TIP3   OH2 7751   1.209   3.835   1.704
 2582TIP3    H1 7752   1.248   3.845   1.617
 2582TIP3    H2 7753   1.227   3.917   1.749
 2583TIP3   OH2 7754   3.063   2.978   4.513
 2583TIP3    H1 7755   3.143   3.016   4.476
 2583TIP3    H2 7756   3.080   2.973   4.607
 2584TIP3   OH2 7757   0.604   5.568   2.618
 2584TIP3    H1 7758   0.683   5.554   2.566
 2584TIP3    H2 7759   0.630   5.544   2.707
 2585TIP3   OH2 7760   2.306   0.285   0.349
 2585TIP3    H1 7761   2.388   0.331   0.364
 2585TIP3    H2 7762   2.291   0.234   0.429
 2586TIP3   OH2 7763   4.777   2.741   0.573
 2586TIP3    H1 7764   4.805   2.783   0.654
 2586TIP3    H2 7765   4.687   2.713   0.590
 2587TIP3   OH2 7766   3.709   3.259   0.701
 2587TIP3    H1 7767   3.624   3.303   0.695
 2587TIP3    H2 7768   3.693   3.171   0.666
 2588TIP3   OH2 7769   4.946   2.765   2.102
 2588TIP3    H1 7770   5.026   2.747   2.052
 2588TIP3    H2 7771   4.971   2.833   2.164
 2589TIP3   OH2 7772   1.816   4.062   0.030
 2589TIP3    H1 7773   1.824   3.973  -0.004
 2589TIP3    H2 7774   1.820   4.053   0.125
 2590TIP3   OH2 7775   2.524   1.160   4.032
 2590TIP3    H1 7776   2.600   1.120   4.074
 2590TIP3    H2 7777   2.462   1.088   4.019
 2591TIP3   OH2 7778   0.880   2.099   4.370
 2591TIP3    H1 7779   0.909   2.190   4.373
 2591TIP3    H2 7780   0.954   2.049   4.405
 2592TIP3   OH2 7781   1.411   5.434   2.290
 2592TIP3    H1 7782   1.423   5.499   2.359
 2592TIP3    H2 7783   1.465   5.465   2.218
 2593TIP3   OH2 7784   5.731   1.897   3.014
 2593TIP3    H1 7785   5.651   1.888   2.963
 2593TIP3    H2 7786   5.705   1.948   3.091
 2594TIP3   OH2 7787   1.962   3.460   3.297
 2594TIP3    H1 7788   1.927   3.417   3.220
 2594TIP3    H2 7789   1.898   3.528   3.319
 2595TIP3   OH2 7790   0.662   0.574   1.671
 2595TIP3    H1 7791   0.713   0.633   1.727
 2595TIP3    H2 7792   0.613   0.632   1.613
 2596TIP3   OH2 7793   3.688   4.281   3.287
 2596TIP3    H1 7794   3.597   4.260   3.310
 2596TIP3    H2 7795   3.685   4.305   3.194
 2597TIP3   OH2 7796   4.305   2.271   2.690
 2597TIP3    H1 7797   4.375   2.223   2.733
 2597TIP3    H2 7798   4.227   2.217   2.702
 2598TIP3   OH2 7799   2.437   5.407   1.258
 2598TIP3    H1 7800   2.436   5.318   1.293
 2598TIP3    H2 7801   2.375   5.404   1.184
 2599TIP3   OH2 7802   5.088   4.866   3.288
 2599TIP3    H1 7803   5.165   4.827   3.329
 2599TIP3    H2 7804   5.024   4.871   3.360
 2600TIP3   OH2 7805   3.733   5.536   3.209
 2600TIP3    H1 7806   3.653   5.553   3.159
 2600TIP3    H2 7807   3.785   5.479   3.152
 2601TIP3   OH2 7808   2.651   4.172   3.335
 2601TIP3    H1 7809   2.678   4.259   3.305
 2601TIP3    H2 7810   2.602   4.135   3.261
 2602TIP3   OH2 7811   0.872   0.088   5.082
 2602TIP3    H1 7812   0.818   0.154   5.039
 2602TIP3    H2 7813   0.843   0.089   5.173
 2603TIP3   OH2 7814   5.219   0.539   2.892
 2603TIP3    H1 7815   5.226   0.443   2.890
 2603TIP3    H2 7816   5.147   0.556   2.952
 2604TIP3   OH2 7817   5.750   1.931   4.904
 2604TIP3    H1 7818   5.697   2.010   4.918
 2604TIP3    H2 7819   5.737   1.879   4.983
 2605TIP3   OH2 7820   0.886   4.956   5.119
 2605TIP3    H1 7821   0.904   4.962   5.213
 2605TIP3    H2 7822   0.908   4.865   5.097
 2606TIP3   OH2 7823   4.697   1.063   2.597
 2606TIP3    H1 7824   4.792   1.049   2.599
 2606TIP3    H2 7825   4.673   1.054   2.505
 2607TIP3   OH2 7826   4.975   2.417   3.929
 2607TIP3    H1 7827   5.010   2.368   3.855
 2607TIP3    H2 7828   5.042   2.483   3.948
 2608TIP3   OH2 7829   1.539   4.034   3.394
 2608TIP3    H1 7830   1.609   4.007   3.335
 2608TIP3    H2 7831   1.576   4.107   3.444
 2609TIP3   OH2 7832   4.546   3.944   2.097
 2609TIP3    H1 7833   4.476   3.957   2.034
 2609TIP3    H2 7834   4.623   3.924   2.044
 2610TIP3   OH2 7835   5.930   4.566   2.247
 2610TIP3    H1 7836   5.911   4.634   2.183
 2610TIP3    H2 7837   5.980   4.500   2.199
 2611TIP3   OH2 7838   1.795   4.197   0.309
 2611TIP3    H1 7839   1.729   4.247   0.357
 2611TIP3    H2 7840   1.749   4.117   0.282
 2612TIP3   OH2 7841   6.131   4.107   0.817
 2612TIP3    H1 7842   6.201   4.152   0.865
 2612TIP3    H2 7843   6.124   4.156   0.734
 2613TIP3   OH2 7844   5.743   0.560   1.074
 2613TIP3    H1 7845   5.750   0.466   1.088
 2613TIP3    H2 7846   5.796   0.576   0.996
 2614TIP3   OH2 7847   2.294   0.575   1.165
 2614TIP3    H1 7848   2.267   0.519   1.237
 2614TIP3    H2 7849   2.235   0.552   1.093
 2615TIP3   OH2 7850   0.115   4.897   1.533
 2615TIP3    H1 7851   0.138   4.941   1.615
 2615TIP3    H2 7852   0.028   4.931   1.511
 2616TIP3   OH2 7853   6.006   4.422   1.996
 2616TIP3    H1 7854   6.018   4.477   1.919
 2616TIP3    H2 7855   5.915   4.392   1.990
 2617TIP3   OH2 7856   0.754   2.127   0.840
 2617TIP3    H1 7857   0.833   2.168   0.805
 2617TIP3    H2 7858   0.771   2.117   0.933
 2618TIP3   OH2 7859   4.506   4.906   1.657
 2618TIP3    H1 7860   4.492   5.000   1.671
 2618TIP3    H2 7861   4.557   4.901   1.577
 2619TIP3   OH2 7862   4.078   1.913   4.903
 2619TIP3    H1 7863   4.004   1.852   4.909
 2619TIP3    H2 7864   4.045   1.983   4.847
 2620TIP3   OH2 7865   1.988   3.804   0.667
 2620TIP3    H1 7866   2.028   3.825   0.751
 2620TIP3    H2 7867   1.995   3.709   0.660
 2621TIP3   OH2 7868   5.115   1.303   3.577
 2621TIP3    H1 7869   5.150   1.340   3.659
 2621TIP3    H2 7870   5.191   1.266   3.533
 2622TIP3   OH2 7871   4.352   1.709   0.442
 2622TIP3    H1 7872   4.393   1.651   0.506
 2622TIP3    H2 7873   4.420   1.771   0.418
 2623TIP3   OH2 7874   3.568   0.776   5.089
 2623TIP3    H1 7875   3.519   0.858   5.092
 2623TIP3    H2 7876   3.657   0.800   5.116
 2624TIP3   OH2 7877   2.908   3.669   0.125
 2624TIP3    H1 7878   2.904   3.608   0.198
 2624TIP3    H2 7879   2.977   3.731   0.149
 2625TIP3   OH2 7880   4.450   0.068   1.706
 2625TIP3    H1 7881   4.476  -0.014   1.664
 2625TIP3    H2 7882   4.438   0.045   1.798
 2626TIP3   OH2 7883   1.680   0.478   4.155
 2626TIP3    H1 7884   1.666   0.400   4.102
 2626TIP3    H2 7885   1.593   0.513   4.171
 2627TIP3   OH2 7886   1.191   4.501   1.337
 2627TIP3    H1 7887   1.209   4.450   1.258
 2627TIP3    H2 7888   1.170   4.436   1.404
 2628TIP3   OH2 7889   3.559   2.108   3.816
 2628TIP3    H1 7890   3.629   2.049   3.789
 2628TIP3    H2 7891   3.547   2.092   3.909
 2629TIP3   OH2 7892   0.835   3.789   0.249
 2629TIP3    H1 7893   0.844   3.761   0.341
 2629TIP3    H2 7894   0.847   3.884   0.252
 2630TIP3   OH2 7895   1.512   1.683   4.883
 2630TIP3    H1 7896   1.498   1.629   4.805
 2630TIP3    H2 7897   1.444   1.656   4.944
 2631TIP3   OH2 7898   4.093   3.496   2.886
 2631TIP3    H1 7899   4.015   3.545   2.912
 2631TIP3    H2 7900   4.166   3.543   2.928
 2632TIP3   OH2 7901   5.522   4.316   4.151
 2632TIP3    H1 7902   5.522   4.402   4.195
 2632TIP3    H2 7903   5.436   4.310   4.111
 2633TIP3   OH2 7904   2.927   0.052   3.144
 2633TIP3    H1 7905   2.885  -0.034   3.137
 2633TIP3    H2 7906   3.009   0.043   3.094
 2634TIP3   OH2 7907   5.696   4.011   1.922
 2634TIP3    H1 7908   5.726   4.102   1.914
 2634TIP3    H2 7909   5.721   3.970   1.839
 2635TIP3   OH2 7910   0.634   4.509   1.635
 2635TIP3    H1 7911   0.588   4.592   1.624
 2635TIP3    H2 7912   0.721   4.524   1.599
 2636TIP3   OH2 7913   3.225   1.140   1.133
 2636TIP3    H1 7914   3.143   1.182   1.110
 2636TIP3    H2 7915   3.202   1.078   1.202
 2637TIP3   OH2 7916   4.968   5.449   0.113
 2637TIP3    H1 7917   4.990   5.385   0.181
 2637TIP3    H2 7918   4.904   5.507   0.155
 2638TIP3   OH2 7919   4.684   4.157   4.136
 2638TIP3    H1 7920   4.661   4.100   4.210
 2638TIP3    H2 7921   4.605   4.159   4.082
 2639TIP3   OH2 7922   2.231   3.466   3.321
 2639TIP3    H1 7923   2.136   3.477   3.320
 2639TIP3    H2 7924   2.263   3.521   3.250
 2640TIP3   OH2 7925   0.199   4.490   1.245
 2640TIP3    H1 7926   0.201   4.397   1.226
 2640TIP3    H2 7927   0.238   4.532   1.169
 2641TIP3   OH2 7928   0.388   1.173   0.406
 2641TIP3    H1 7929   0.304   1.166   0.452
 2641TIP3    H2 7930   0.452   1.133   0.465
 2642TIP3   OH2 7931   2.121   4.370   4.554
 2642TIP3    H1 7932   2.154   4.388   4.465
 2642TIP3    H2 7933   2.064   4.294   4.543
 2643TIP3   OH2 7934   3.311   2.580   2.754
 2643TIP3    H1 7935   3.370   2.591   2.829
 2643TIP3    H2 7936   3.334   2.650   2.694
 2644TIP3   OH2 7937   1.816   3.316   4.614
 2644TIP3    H1 7938   1.878   3.371   4.662
 2644TIP3    H2 7939   1.742   3.373   4.595
 2645TIP3   OH2 7940   5.152   1.983   3.255
 2645TIP3    H1 7941   5.221   2.039   3.221
 2645TIP3    H2 7942   5.092   2.044   3.299
 2646TIP3   OH2 7943   5.031   0.718   2.748
 2646TIP3    H1 7944   5.011   0.706   2.655
 2646TIP3    H2 7945   5.053   0.630   2.780
 2647TIP3   OH2 7946   2.882   1.164   3.475
 2647TIP3    H1 7947   2.910   1.224   3.406
 2647TIP3    H2 7948   2.956   1.162   3.536
 2648TIP3   OH2 7949   2.840   4.401   1.090
 2648TIP3    H1 7950   2.797   4.482   1.117
 2648TIP3    H2 7951   2.803   4.382   1.004
 2649TIP3   OH2 7952   4.482   1.520   0.596
 2649TIP3    H1 7953   4.496   1.541   0.688
 2649TIP3    H2 7954   4.463   1.426   0.595
 2650TIP3   OH2 7955   0.891   5.541   1.919
 2650TIP3    H1 7956   0.891   5.494   2.003
 2650TIP3    H2 7957   0.804   5.528   1.884
 2651TIP3   OH2 7958   5.670   0.141   1.329
 2651TIP3    H1 7959   5.744   0.096   1.369
 2651TIP3    H2 7960   5.638   0.201   1.397
 2652TIP3   OH2 7961   0.513   0.601   2.241
 2652TIP3    H1 7962   0.546   0.558   2.320
 2652TIP3    H2 7963   0.588   0.653   2.210
 2653TIP3   OH2 7964   1.098   1.535   3.025
 2653TIP3    H1 7965   1.055   1.488   3.096
 2653TIP3    H2 7966   1.027   1.579   2.978
 2654TIP3   OH2 7967   3.985   5.219   1.821
 2654TIP3    H1 7968   4.008   5.131   1.851
 2654TIP3    H2 7969   4.017   5.278   1.890
 2655TIP3   OH2 7970   4.186   2.728   2.882
 2655TIP3    H1 7971   4.138   2.809   2.868
 2655TIP3    H2 7972   4.170   2.706   2.974
 2656TIP3   OH2 7973   3.669   2.904   3.558
 2656TIP3    H1 7974   3.582   2.933   3.586
 2656TIP3    H2 7975   3.659   2.886   3.464
 2657TIP3   OH2 7976   3.506   1.499   0.435
 2657TIP3    H1 7977   3.524   1.530   0.347
 2657TIP3    H2 7978   3.583   1.525   0.486
 2658TIP3   OH2 7979   0.912   1.342   4.788
 2658TIP3    H1 7980   0.892   1.402   4.716
 2658TIP3    H2 7981   0.854   1.369   4.859
 2659TIP3   OH2 7982   4.499   3.338   2.812
 2659TIP3    H1 7983   4.476   3.282   2.886
 2659TIP3    H2 7984   4.561   3.286   2.761
 2660TIP3   OH2 7985   0.620   1.746   1.686
 2660TIP3    H1 7986   0.540   1.694   1.692
 2660TIP3    H2 7987   0.661   1.736   1.772
 2661TIP3   OH2 7988   5.115   4.458   0.882
 2661TIP3    H1 7989   5.148   4.426   0.965
 2661TIP3    H2 7990   5.084   4.546   0.901
 2662TIP3   OH2 7991   4.730   4.107   3.209
 2662TIP3    H1 7992   4.641   4.106   3.244
 2662TIP3    H2 7993   4.719   4.085   3.116
 2663TIP3   OH2 7994   0.368   5.049   4.914
 2663TIP3    H1 7995   0.330   5.030   4.828
 2663TIP3    H2 7996   0.435   5.115   4.896
 2664TIP3   OH2 7997   3.710   4.381   4.961
 2664TIP3    H1 7998   3.733   4.375   4.868
 2664TIP3    H2 7999   3.770   4.320   5.005
 2665TIP3   OH2 8000   0.389   0.619   3.989
 2665TIP3    H1 8001   0.343   0.703   3.995
 2665TIP3    H2 8002   0.451   0.630   3.917
 2666TIP3   OH2 8003   3.428   1.698   1.149
 2666TIP3    H1 8004   3.337   1.714   1.123
 2666TIP3    H2 8005   3.459   1.630   1.088
 2667TIP3   OH2 8006   2.368   2.815  -0.021
 2667TIP3    H1 8007   2.418   2.779   0.053
 2667TIP3    H2 8008   2.307   2.876   0.020
 2668TIP3   OH2 8009   0.047   4.208   1.316
 2668TIP3    H1 8010   0.115   4.221   1.383
 2668TIP3    H2 8011   0.053   4.115   1.295
 2669TIP3   OH2 8012   3.735   5.260   3.629
 2669TIP3    H1 8013   3.795   5.254   3.555
 2669TIP3    H2 8014   3.658   5.304   3.594
 2670TIP3   OH2 8015   5.586   2.459   2.266
 2670TIP3    H1 8016   5.629   2.526   2.212
 2670TIP3    H2 8017   5.521   2.508   2.317
 2671TIP3   OH2 8018   0.502   1.841   4.895
 2671TIP3    H1 8019   0.474   1.868   4.982
 2671TIP3    H2 8020   0.459   1.902   4.836
 2672TIP3   OH2 8021   3.443   3.171   0.933
 2672TIP3    H1 8022   3.416   3.151   0.843
 2672TIP3    H2 8023   3.380   3.122   0.987
 2673TIP3   OH2 8024   0.962   5.959   1.994
 2673TIP3    H1 8025   1.045   5.932   2.034
 2673TIP3    H2 8026   0.897   5.944   2.062
 2674TIP3   OH2 8027   5.322   1.911   0.394
 2674TIP3    H1 8028   5.323   1.817   0.409
 2674TIP3    H2 8029   5.376   1.923   0.316
 2675TIP3   OH2 8030   4.146   1.207   3.254
 2675TIP3    H1 8031   4.103   1.174   3.175
 2675TIP3    H2 8032   4.074   1.233   3.311
 2676TIP3   OH2 8033   3.068   1.229   3.851
 2676TIP3    H1 8034   3.096   1.259   3.765
 2676TIP3    H2 8035   3.028   1.306   3.892
 2677TIP3   OH2 8036   5.580   4.939   1.272
 2677TIP3    H1 8037   5.611   4.952   1.361
 2677TIP3    H2 8038   5.620   5.010   1.221
 2678TIP3   OH2 8039   0.197   0.180   1.624
 2678TIP3    H1 8040   0.170   0.089   1.637
 2678TIP3    H2 8041   0.292   0.175   1.614
 2679TIP3   OH2 8042   0.363   5.629   3.386
 2679TIP3    H1 8043   0.383   5.688   3.312
 2679TIP3    H2 8044   0.365   5.686   3.463
 2680TIP3   OH2 8045   6.289   3.037   4.806
 2680TIP3    H1 8046   6.294   3.131   4.788
 2680TIP3    H2 8047   6.341   3.025   4.886
 2681TIP3   OH2 8048   1.012   3.275   4.370
 2681TIP3    H1 8049   0.931   3.256   4.419
 2681TIP3    H2 8050   0.981   3.299   4.282
 2682TIP3   OH2 8051   4.925   0.767   3.600
 2682TIP3    H1 8052   5.007   0.790   3.555
 2682TIP3    H2 8053   4.925   0.822   3.678
 2683TIP3   OH2 8054   1.955   3.291   3.519
 2683TIP3    H1 8055   1.868   3.308   3.556
 2683TIP3    H2 8056   1.948   3.317   3.427
 2684TIP3   OH2 8057   5.361   2.942   3.260
 2684TIP3    H1 8058   5.273   2.913   3.236
 2684TIP3    H2 8059   5.370   2.919   3.352
 2685TIP3   OH2 8060   3.273   5.025   0.322
 2685TIP3    H1 8061   3.271   5.093   0.255
 2685TIP3    H2 8062   3.181   5.012   0.346
 2686TIP3   OH2 8063   4.714   0.850   2.011
 2686TIP3    H1 8064   4.666   0.773   1.980
 2686TIP3    H2 8065   4.765   0.879   1.935
 2687TIP3   OH2 8066   3.862   3.678   2.541
 2687TIP3    H1 8067   3.796   3.744   2.564
 2687TIP3    H2 8068   3.834   3.600   2.589
 2688TIP3   OH2 8069   3.533   0.691   1.795
 2688TIP3    H1 8070   3.568   0.603   1.789
 2688TIP3    H2 8071   3.508   0.713   1.705
 2689TIP3   OH2 8072   5.234   2.098   4.834
 2689TIP3    H1 8073   5.316   2.047   4.835
 2689TIP3    H2 8074   5.181   2.056   4.766
 2690TIP3   OH2 8075   0.051   1.991   0.236
 2690TIP3    H1 8076  -0.044   1.979   0.243
 2690TIP3    H2 8077   0.073   2.050   0.308
 2691TIP3   OH2 8078   3.727   0.411   0.411
 2691TIP3    H1 8079   3.662   0.481   0.415
 2691TIP3    H2 8080   3.737   0.382   0.502
 2692TIP3   OH2 8081   4.686   0.325   0.657
 2692TIP3    H1 8082   4.656   0.255   0.715
 2692TIP3    H2 8083   4.610   0.382   0.646
 2693TIP3   OH2 8084   5.139   5.916   1.989
 2693TIP3    H1 8085   5.219   5.950   1.949
 2693TIP3    H2 8086   5.160   5.825   2.011
 2694TIP3   OH2 8087   1.755   1.206   1.118
 2694TIP3    H1 8088   1.779   1.236   1.030
 2694TIP3    H2 8089   1.836   1.213   1.169
 2695TIP3   OH2 8090   4.487   2.998   2.563
 2695TIP3    H1 8091   4.545   2.960   2.496
 2695TIP3    H2 8092   4.441   2.922   2.600
 2696TIP3   OH2 8093   3.876   2.508   4.205
 2696TIP3    H1 8094   3.966   2.494   4.234
 2696TIP3    H2 8095   3.884   2.521   4.110
 2697TIP3   OH2 8096   3.705   0.913   0.957
 2697TIP3    H1 8097   3.748   0.955   0.882
 2697TIP3    H2 8098   3.737   0.823   0.956
 2698TIP3   OH2 8099   2.784   4.054   4.035
 2698TIP3    H1 8100   2.874   4.061   4.004
 2698TIP3    H2 8101   2.739   4.130   3.998
 2699TIP3   OH2 8102   0.846   5.277   3.853
 2699TIP3    H1 8103   0.827   5.347   3.915
 2699TIP3    H2 8104   0.779   5.210   3.870
 2700TIP3   OH2 8105   3.072   4.315   1.717
 2700TIP3    H1 8106   3.164   4.325   1.695
 2700TIP3    H2 8107   3.072   4.290   1.810
 2701TIP3   OH2 8108   0.661   3.569   3.166
 2701TIP3    H1 8109   0.619   3.595   3.084
 2701TIP3    H2 8110   0.632   3.635   3.230
 2702TIP3   OH2 8111   1.136   3.309   1.017
 2702TIP3    H1 8112   1.130   3.393   1.062
 2702TIP3    H2 8113   1.059   3.307   0.960
 2703TIP3   OH2 8114   4.228   0.182   2.315
 2703TIP3    H1 8115   4.188   0.207   2.399
 2703TIP3    H2 8116   4.174   0.110   2.283
 2704TIP3   OH2 8117   2.768   1.877   2.094
 2704TIP3    H1 8118   2.778   1.945   2.028
 2704TIP3    H2 8119   2.824   1.805   2.064
 2705TIP3   OH2 8120   1.629   3.133   4.974
 2705TIP3    H1 8121   1.725   3.130   4.982
 2705TIP3    H2 8122   1.609   3.066   4.909
 2706TIP3   OH2 8123   2.978   2.202   0.592
 2706TIP3    H1 8124   2.983   2.110   0.619
 2706TIP3    H2 8125   2.964   2.199   0.498
 2707TIP3   OH2 8126   2.787   0.319   2.984
 2707TIP3    H1 8127   2.858   0.300   3.046
 2707TIP3    H2 8128   2.714   0.347   3.040
 2708TIP3   OH2 8129   4.578   3.802   3.335
 2708TIP3    H1 8130   4.617   3.739   3.274
 2708TIP3    H2 8131   4.554   3.877   3.280
 2709TIP3   OH2 8132   3.381   0.553   4.227
 2709TIP3    H1 8133   3.434   0.530   4.303
 2709TIP3    H2 8134   3.291   0.550   4.258
 2710TIP3   OH2 8135   5.735   3.194   3.301
 2710TIP3    H1 8136   5.816   3.167   3.345
 2710TIP3    H2 8137   5.680   3.229   3.371
 2711TIP3   OH2 8138   4.768   0.181   2.456
 2711TIP3    H1 8139   4.723   0.243   2.513
 2711TIP3    H2 8140   4.835   0.233   2.411
 2712TIP3   OH2 8141   3.059   3.702   1.508
 2712TIP3    H1 8142   3.027   3.791   1.499
 2712TIP3    H2 8143   3.059   3.667   1.419
 2713TIP3   OH2 8144   1.730   3.278   1.165
 2713TIP3    H1 8145   1.774   3.305   1.085
 2713TIP3    H2 8146   1.651   3.234   1.135
 2714TIP3   OH2 8147   0.655   4.337   4.518
 2714TIP3    H1 8148   0.725   4.387   4.476
 2714TIP3    H2 8149   0.577   4.357   4.467
 2715TIP3   OH2 8150   5.780   1.207   1.316
 2715TIP3    H1 8151   5.798   1.262   1.393
 2715TIP3    H2 8152   5.773   1.118   1.351
 2716TIP3   OH2 8153   2.402   1.431   2.596
 2716TIP3    H1 8154   2.340   1.501   2.617
 2716TIP3    H2 8155   2.377   1.359   2.653
 2717TIP3   OH2 8156   1.300   3.967   2.675
 2717TIP3    H1 8157   1.259   4.041   2.720
 2717TIP3    H2 8158   1.369   4.007   2.622
 2718TIP3   OH2 8159   5.270   2.925   0.780
 2718TIP3    H1 8160   5.343   2.872   0.748
 2718TIP3    H2 8161   5.232   2.873   0.851
 2719TIP3   OH2 8162   1.253   1.419   0.781
 2719TIP3    H1 8163   1.184   1.354   0.766
 2719TIP3    H2 8164   1.334   1.369   0.776
 2720TIP3   OH2 8165   1.327   5.862   3.168
 2720TIP3    H1 8166   1.239   5.861   3.206
 2720TIP3    H2 8167   1.321   5.922   3.094
 2721TIP3   OH2 8168   6.089   4.937   5.156
 2721TIP3    H1 8169   6.089   4.999   5.230
 2721TIP3    H2 8170   5.996   4.926   5.135
 2722TIP3   OH2 8171   5.486   0.448   2.990
 2722TIP3    H1 8172   5.558   0.499   2.952
 2722TIP3    H2 8173   5.407   0.492   2.959
 2723TIP3   OH2 8174   2.600   3.873   3.943
 2723TIP3    H1 8175   2.568   3.785   3.961
 2723TIP3    H2 8176   2.642   3.900   4.024
 2724TIP3   OH2 8177   2.969   1.966   3.309
 2724TIP3    H1 8178   3.026   1.904   3.265
 2724TIP3    H2 8179   2.883   1.955   3.268
 2725TIP3   OH2 8180   0.366   3.078   4.795
 2725TIP3    H1 8181   0.347   3.112   4.883
 2725TIP3    H2 8182   0.378   2.984   4.809
 2726TIP3   OH2 8183   5.727   4.865   0.153
 2726TIP3    H1 8184   5.655   4.919   0.122
 2726TIP3    H2 8185   5.737   4.797   0.086
 2727TIP3   OH2 8186   0.863   5.311   0.578
 2727TIP3    H1 8187   0.890   5.337   0.490
 2727TIP3    H2 8188   0.944   5.311   0.628
 2728TIP3   OH2 8189   5.208   5.450   0.503
 2728TIP3    H1 8190   5.231   5.542   0.518
 2728TIP3    H2 8191   5.258   5.424   0.426
 2729TIP3   OH2 8192   1.366   0.738   1.835
 2729TIP3    H1 8193   1.291   0.760   1.890
 2729TIP3    H2 8194   1.329   0.736   1.746
 2730TIP3   OH2 8195   5.630   2.537   4.880
 2730TIP3    H1 8196   5.585   2.492   4.810
 2730TIP3    H2 8197   5.611   2.630   4.865
 2731TIP3   OH2 8198   0.729   2.739   1.425
 2731TIP3    H1 8199   0.790   2.695   1.483
 2731TIP3    H2 8200   0.675   2.669   1.389
 2732TIP3   OH2 8201   1.841   1.461   3.845
 2732TIP3    H1 8202   1.898   1.410   3.788
 2732TIP3    H2 8203   1.848   1.551   3.813
 2733TIP3   OH2 8204   0.741   3.845   5.017
 2733TIP3    H1 8205   0.701   3.860   5.103
 2733TIP3    H2 8206   0.683   3.889   4.956
 2734TIP3   OH2 8207   6.005   0.615   4.181
 2734TIP3    H1 8208   6.022   0.581   4.093
 2734TIP3    H2 8209   5.952   0.548   4.223
 2735TIP3   OH2 8210   5.266   1.532   0.875
 2735TIP3    H1 8211   5.177   1.500   0.886
 2735TIP3    H2 8212   5.321   1.453   0.883
 2736TIP3   OH2 8213   4.476   2.125   4.233
 2736TIP3    H1 8214   4.448   2.216   4.224
 2736TIP3    H2 8215   4.491   2.114   4.327
 2737TIP3   OH2 8216   1.111   1.741   3.371
 2737TIP3    H1 8217   1.170   1.680   3.327
 2737TIP3    H2 8218   1.075   1.795   3.300
 2738TIP3   OH2 8219   4.715   3.834   2.829
 2738TIP3    H1 8220   4.635   3.782   2.823
 2738TIP3    H2 8221   4.778   3.777   2.874
 2739TIP3   OH2 8222   2.670   1.250   3.796
 2739TIP3    H1 8223   2.640   1.196   3.869
 2739TIP3    H2 8224   2.628   1.213   3.719
 2740TIP3   OH2 8225   0.758   0.254   2.260
 2740TIP3    H1 8226   0.697   0.220   2.194
 2740TIP3    H2 8227   0.844   0.245   2.219
 2741TIP3   OH2 8228   1.963   3.944   3.954
 2741TIP3    H1 8229   1.946   4.026   3.908
 2741TIP3    H2 8230   1.961   3.877   3.885
 2742TIP3   OH2 8231   3.601   0.443   3.489
 2742TIP3    H1 8232   3.631   0.435   3.580
 2742TIP3    H2 8233   3.623   0.533   3.464
 2743TIP3   OH2 8234   6.288   0.685   3.003
 2743TIP3    H1 8235   6.209   0.633   3.016
 2743TIP3    H2 8236   6.313   0.714   3.090
 2744TIP3   OH2 8237   2.716   3.294   0.247
 2744TIP3    H1 8238   2.739   3.209   0.284
 2744TIP3    H2 8239   2.622   3.301   0.259
 2745TIP3   OH2 8240   5.143   3.479   0.761
 2745TIP3    H1 8241   5.202   3.553   0.770
 2745TIP3    H2 8242   5.171   3.418   0.829
 2746TIP3   OH2 8243   3.196   5.843   4.113
 2746TIP3    H1 8244   3.291   5.850   4.106
 2746TIP3    H2 8245   3.181   5.803   4.199
 2747TIP3   OH2 8246   3.593   3.455   0.883
 2747TIP3    H1 8247   3.671   3.447   0.939
 2747TIP3    H2 8248   3.562   3.365   0.873
 2748TIP3   OH2 8249   4.198   0.397   2.145
 2748TIP3    H1 8250   4.216   0.326   2.207
 2748TIP3    H2 8251   4.178   0.352   2.063
 2749TIP3   OH2 8252   4.687   5.238   1.786
 2749TIP3    H1 8253   4.609   5.212   1.737
 2749TIP3    H2 8254   4.741   5.285   1.722
 2750TIP3   OH2 8255   4.697   4.053   0.149
 2750TIP3    H1 8256   4.778   4.036   0.101
 2750TIP3    H2 8257   4.628   4.040   0.085
 2751TIP3   OH2 8258   3.443   0.417   1.804
 2751TIP3    H1 8259   3.402   0.398   1.720
 2751TIP3    H2 8260   3.536   0.400   1.790
 2752TIP3   OH2 8261   2.101   0.239   0.997
 2752TIP3    H1 8262   2.113   0.171   0.932
 2752TIP3    H2 8263   2.022   0.214   1.044
 2753TIP3   OH2 8264   1.205   5.040   1.651
 2753TIP3    H1 8265   1.213   5.105   1.720
 2753TIP3    H2 8266   1.192   4.957   1.697
 2754TIP3   OH2 8267   1.510   3.361   4.041
 2754TIP3    H1 8268   1.594   3.391   4.075
 2754TIP3    H2 8269   1.450   3.434   4.056
 2755TIP3   OH2 8270   2.874   2.034   4.261
 2755TIP3    H1 8271   2.846   2.018   4.351
 2755TIP3    H2 8272   2.969   2.021   4.263
 2756TIP3   OH2 8273   4.367   3.285   0.254
 2756TIP3    H1 8274   4.426   3.348   0.213
 2756TIP3    H2 8275   4.287   3.334   0.271
 2757TIP3   OH2 8276   2.423   0.929   1.795
 2757TIP3    H1 8277   2.371   1.006   1.817
 2757TIP3    H2 8278   2.496   0.963   1.743
 2758TIP3   OH2 8279   0.150   0.293   0.387
 2758TIP3    H1 8280   0.215   0.234   0.349
 2758TIP3    H2 8281   0.145   0.268   0.479
 2759TIP3   OH2 8282   5.617   3.368   1.466
 2759TIP3    H1 8283   5.681   3.421   1.419
 2759TIP3    H2 8284   5.663   3.286   1.486
 2760TIP3   OH2 8285   6.104   2.397   0.693
 2760TIP3    H1 8286   6.196   2.403   0.668
 2760TIP3    H2 8287   6.087   2.302   0.700
 2761TIP3   OH2 8288   5.900   3.647   4.305
 2761TIP3    H1 8289   5.925   3.560   4.274
 2761TIP3    H2 8290   5.951   3.660   4.385
 2762TIP3   OH2 8291   3.579   2.010   1.400
 2762TIP3    H1 8292   3.523   1.940   1.436
 2762TIP3    H2 8293   3.620   1.971   1.323
 2763TIP3   OH2 8294   6.001   5.863   4.421
 2763TIP3    H1 8295   5.988   5.799   4.491
 2763TIP3    H2 8296   5.937   5.932   4.439
 2764TIP3   OH2 8297   1.357   0.917   2.904
 2764TIP3    H1 8298   1.443   0.881   2.927
 2764TIP3    H2 8299   1.369   1.012   2.908
 2765TIP3   OH2 8300   5.489   2.732   0.705
 2765TIP3    H1 8301   5.499   2.679   0.626
 2765TIP3    H2 8302   5.459   2.671   0.771
 2766TIP3   OH2 8303   1.498   5.023   1.001
 2766TIP3    H1 8304   1.575   5.002   0.948
 2766TIP3    H2 8305   1.424   4.997   0.946
 2767TIP3   OH2 8306   2.561   5.102   0.783
 2767TIP3    H1 8307   2.529   5.179   0.830
 2767TIP3    H2 8308   2.635   5.134   0.731
 2768TIP3   OH2 8309   1.438   1.226   0.768
 2768TIP3    H1 8310   1.510   1.274   0.727
 2768TIP3    H2 8311   1.395   1.181   0.695
 2769TIP3   OH2 8312   5.457   0.778   4.561
 2769TIP3    H1 8313   5.535   0.824   4.594
 2769TIP3    H2 8314   5.483   0.746   4.475
 2770TIP3   OH2 8315   2.169   4.614   4.675
 2770TIP3    H1 8316   2.178   4.540   4.614
 2770TIP3    H2 8317   2.249   4.664   4.664
 2771TIP3   OH2 8318   4.522   2.486   2.077
 2771TIP3    H1 8319   4.457   2.425   2.042
 2771TIP3    H2 8320   4.480   2.572   2.071
 2772TIP3   OH2 8321   4.069   0.229   4.511
 2772TIP3    H1 8322   4.140   0.293   4.513
 2772TIP3    H2 8323   4.113   0.145   4.499
 2773TIP3   OH2 8324   5.159   0.272   4.793
 2773TIP3    H1 8325   5.188   0.184   4.769
 2773TIP3    H2 8326   5.158   0.321   4.711
 2774TIP3   OH2 8327   4.016   4.797   0.670
 2774TIP3    H1 8328   3.972   4.808   0.586
 2774TIP3    H2 8329   3.958   4.740   0.721
 2775TIP3   OH2 8330   6.099   2.152   1.360
 2775TIP3    H1 8331   6.062   2.071   1.324
 2775TIP3    H2 8332   6.192   2.147   1.338
 2776TIP3   OH2 8333   5.529   2.999   4.243
 2776TIP3    H1 8334   5.435   2.987   4.250
 2776TIP3    H2 8335   5.559   3.006   4.334
 2777TIP3   OH2 8336   4.384   3.769   0.980
 2777TIP3    H1 8337   4.375   3.691   1.034
 2777TIP3    H2 8338   4.298   3.812   0.986
 2778TIP3   OH2 8339   4.995   0.050   0.310
 2778TIP3    H1 8340   4.989  -0.007   0.233
 2778TIP3    H2 8341   4.923   0.021   0.366
 2779TIP3   OH2 8342   1.704   4.197   0.787
 2779TIP3    H1 8343   1.637   4.132   0.805
 2779TIP3    H2 8344   1.757   4.159   0.717
 2780TIP3   OH2 8345   4.247   3.266   1.543
 2780TIP3    H1 8346   4.162   3.225   1.528
 2780TIP3    H2 8347   4.285   3.278   1.456
 2781TIP3   OH2 8348   5.139   3.165   0.262
 2781TIP3    H1 8349   5.230   3.187   0.281
 2781TIP3    H2 8350   5.102   3.244   0.223
 2782TIP3   OH2 8351   2.461   2.879   3.782
 2782TIP3    H1 8352   2.541   2.837   3.751
 2782TIP3    H2 8353   2.390   2.825   3.746
 2783TIP3   OH2 8354   1.393   5.354   0.903
 2783TIP3    H1 8355   1.402   5.315   0.991
 2783TIP3    H2 8356   1.372   5.446   0.920
 2784TIP3   OH2 8357   2.819   4.869   0.638
 2784TIP3    H1 8358   2.795   4.867   0.731
 2784TIP3    H2 8359   2.878   4.944   0.631
 2785TIP3   OH2 8360   4.618   0.162   4.685
 2785TIP3    H1 8361   4.576   0.143   4.601
 2785TIP3    H2 8362   4.545   0.174   4.746
 2786TIP3   OH2 8363   4.075   0.804   1.124
 2786TIP3    H1 8364   4.169   0.822   1.113
 2786TIP3    H2 8365   4.041   0.882   1.167
 2787TIP3   OH2 8366   6.262   2.832   1.129
 2787TIP3    H1 8367   6.272   2.737   1.124
 2787TIP3    H2 8368   6.170   2.845   1.154
 2788TIP3   OH2 8369   1.953   3.692   4.643
 2788TIP3    H1 8370   2.001   3.685   4.725
 2788TIP3    H2 8371   1.866   3.723   4.668
 2789TIP3   OH2 8372   5.558   3.394   0.949
 2789TIP3    H1 8373   5.597   3.352   0.873
 2789TIP3    H2 8374   5.482   3.339   0.970
 2790TIP3   OH2 8375   1.997   0.464   1.740
 2790TIP3    H1 8376   1.916   0.428   1.775
 2790TIP3    H2 8377   1.975   0.492   1.652
 2791TIP3   OH2 8378   5.215   2.856   3.681
 2791TIP3    H1 8379   5.156   2.922   3.716
 2791TIP3    H2 8380   5.300   2.877   3.719
 2792TIP3   OH2 8381   2.919   0.863   2.918
 2792TIP3    H1 8382   2.910   0.781   2.869
 2792TIP3    H2 8383   2.998   0.851   2.971
 2793TIP3   OH2 8384   0.522   2.124   4.697
 2793TIP3    H1 8385   0.466   2.181   4.750
 2793TIP3    H2 8386   0.485   2.129   4.609
 2794TIP3   OH2 8387   5.180   0.135   0.075
 2794TIP3    H1 8388   5.244   0.180   0.130
 2794TIP3    H2 8389   5.141   0.203   0.021
 2795TIP3   OH2 8390   4.748   2.400   4.226
 2795TIP3    H1 8391   4.785   2.484   4.252
 2795TIP3    H2 8392   4.814   2.335   4.251
 2796TIP3   OH2 8393   4.543   5.419   2.653
 2796TIP3    H1 8394   4.552   5.510   2.681
 2796TIP3    H2 8395   4.547   5.368   2.734
 2797TIP3   OH2 8396   3.480   1.060   2.971
 2797TIP3    H1 8397   3.446   1.067   3.060
 2797TIP3    H2 8398   3.409   1.020   2.921
 2798TIP3   OH2 8399   3.728   1.569   0.303
 2798TIP3    H1 8400   3.744   1.663   0.298
 2798TIP3    H2 8401   3.781   1.532   0.232
 2799TIP3   OH2 8402   2.768   2.008   0.885
 2799TIP3    H1 8403   2.818   2.062   0.946
 2799TIP3    H2 8404   2.727   2.070   0.825
 2800TIP3   OH2 8405   1.987   3.592   5.067
 2800TIP3    H1 8406   1.968   3.642   5.147
 2800TIP3    H2 8407   1.914   3.531   5.059
 2801TIP3   OH2 8408   3.801   1.169   3.876
 2801TIP3    H1 8409   3.879   1.128   3.914
 2801TIP3    H2 8410   3.731   1.152   3.940
 2802TIP3   OH2 8411   4.957   5.329   5.182
 2802TIP3    H1 8412   4.986   5.238   5.180
 2802TIP3    H2 8413   5.001   5.370   5.107
 2803TIP3   OH2 8414   4.558   0.856   1.667
 2803TIP3    H1 8415   4.587   0.787   1.607
 2803TIP3    H2 8416   4.515   0.809   1.739
 2804TIP3   OH2 8417   1.198   4.367   1.105
 2804TIP3    H1 8418   1.132   4.426   1.068
 2804TIP3    H2 8419   1.150   4.286   1.123
 2805TIP3   OH2 8420   0.849   5.456   3.659
 2805TIP3    H1 8421   0.825   5.387   3.720
 2805TIP3    H2 8422   0.766   5.491   3.628
 2806TIP3   OH2 8423   4.353   3.249   2.101
 2806TIP3    H1 8424   4.439   3.211   2.116
 2806TIP3    H2 8425   4.291   3.187   2.139
 2807TIP3   OH2 8426   0.277   4.994   1.818
 2807TIP3    H1 8427   0.276   4.915   1.871
 2807TIP3    H2 8428   0.281   5.066   1.882
 2808TIP3   OH2 8429   4.754   1.141   0.589
 2808TIP3    H1 8430   4.789   1.117   0.503
 2808TIP3    H2 8431   4.665   1.172   0.571
 2809TIP3   OH2 8432   0.034   2.870   2.894
 2809TIP3    H1 8433   0.000   2.958   2.877
 2809TIP3    H2 8434   0.006   2.850   2.983
 2810TIP3   OH2 8435   3.913   5.695   3.855
 2810TIP3    H1 8436   3.903   5.790   3.854
 2810TIP3    H2 8437   3.852   5.664   3.923
 2811TIP3   OH2 8438   2.995   4.887   3.630
 2811TIP3    H1 8439   2.924   4.832   3.660
 2811TIP3    H2 8440   2.976   4.974   3.666
 2812TIP3   OH2 8441   2.829   0.765   3.648
 2812TIP3    H1 8442   2.864   0.746   3.561
 2812TIP3    H2 8443   2.906   0.766   3.705
 2813TIP3   OH2 8444   6.227   2.186   3.276
 2813TIP3    H1 8445   6.168   2.262   3.284
 2813TIP3    H2 8446   6.172   2.117   3.240
 2814TIP3   OH2 8447   0.652   3.388   0.113
 2814TIP3    H1 8448   0.588   3.454   0.088
 2814TIP3    H2 8449   0.601   3.318   0.153
 2815TIP3   OH2 8450   4.138   1.200   1.938
 2815TIP3    H1 8451   4.165   1.211   1.846
 2815TIP3    H2 8452   4.134   1.289   1.972
 2816TIP3   OH2 8453   4.983   5.221   2.426
 2816TIP3    H1 8454   5.004   5.283   2.357
 2816TIP3    H2 8455   5.064   5.213   2.476
 2817TIP3   OH2 8456   5.345   4.320   4.518
 2817TIP3    H1 8457   5.435   4.298   4.495
 2817TIP3    H2 8458   5.304   4.342   4.434
 2818TIP3   OH2 8459   2.915   0.117   2.479
 2818TIP3    H1 8460   2.833   0.069   2.489
 2818TIP3    H2 8461   2.920   0.174   2.555
 2819TIP3   OH2 8462   4.027   1.980   0.434
 2819TIP3    H1 8463   4.088   2.051   0.416
 2819TIP3    H2 8464   3.966   1.981   0.360
 2820TIP3   OH2 8465   5.340   1.153   3.477
 2820TIP3    H1 8466   5.413   1.206   3.509
 2820TIP3    H2 8467   5.382   1.081   3.429
 2821TIP3   OH2 8468   2.529   5.267   2.450
 2821TIP3    H1 8469   2.597   5.291   2.387
 2821TIP3    H2 8470   2.526   5.171   2.448
 2822TIP3   OH2 8471   5.739   3.716   2.736
 2822TIP3    H1 8472   5.765   3.664   2.813
 2822TIP3    H2 8473   5.821   3.734   2.690
 2823TIP3   OH2 8474   5.500   4.721   4.996
 2823TIP3    H1 8475   5.476   4.756   4.910
 2823TIP3    H2 8476   5.418   4.685   5.030
 2824TIP3   OH2 8477   4.376   5.163   4.136
 2824TIP3    H1 8478   4.428   5.119   4.069
 2824TIP3    H2 8479   4.371   5.254   4.106
 2825TIP3   OH2 8480   2.888   4.183   4.666
 2825TIP3    H1 8481   2.912   4.223   4.582
 2825TIP3    H2 8482   2.819   4.240   4.700
 2826TIP3   OH2 8483   1.432   0.941   4.679
 2826TIP3    H1 8484   1.372   0.946   4.753
 2826TIP3    H2 8485   1.518   0.929   4.719
 2827TIP3   OH2 8486   5.403   5.049   2.277
 2827TIP3    H1 8487   5.479   5.067   2.332
 2827TIP3    H2 8488   5.430   4.974   2.223
 2828TIP3   OH2 8489   3.965   2.915   2.125
 2828TIP3    H1 8490   3.964   2.881   2.214
 2828TIP3    H2 8491   4.016   2.851   2.075
 2829TIP3   OH2 8492   2.949   3.997   4.896
 2829TIP3    H1 8493   2.893   4.073   4.881
 2829TIP3    H2 8494   2.985   3.977   4.810
 2830TIP3   OH2 8495   5.153   5.923   3.593
 2830TIP3    H1 8496   5.092   5.957   3.528
 2830TIP3    H2 8497   5.096   5.880   3.658
 2831TIP3   OH2 8498   4.070   1.215   2.333
 2831TIP3    H1 8499   4.141   1.158   2.304
 2831TIP3    H2 8500   4.003   1.208   2.265
 2832TIP3   OH2 8501   2.947   2.129   1.865
 2832TIP3    H1 8502   2.969   2.157   1.954
 2832TIP3    H2 8503   2.853   2.113   1.868
 2833TIP3   OH2 8504   5.279   1.195   4.679
 2833TIP3    H1 8505   5.325   1.221   4.599
 2833TIP3    H2 8506   5.270   1.100   4.672
 2834TIP3   OH2 8507   1.499   4.178   2.589
 2834TIP3    H1 8508   1.548   4.123   2.527
 2834TIP3    H2 8509   1.469   4.252   2.537
 2835TIP3   OH2 8510   5.582   2.985   2.667
 2835TIP3    H1 8511   5.496   3.020   2.691
 2835TIP3    H2 8512   5.638   3.062   2.659
 2836TIP3   OH2 8513   5.382   2.950   2.402
 2836TIP3    H1 8514   5.354   2.994   2.482
 2836TIP3    H2 8515   5.461   2.996   2.375
 2837TIP3   OH2 8516   1.479   3.334   4.868
 2837TIP3    H1 8517   1.522   3.259   4.909
 2837TIP3    H2 8518   1.387   3.324   4.893
 2838TIP3   OH2 8519   4.966   4.193   3.370
 2838TIP3    H1 8520   4.964   4.107   3.413
 2838TIP3    H2 8521   4.892   4.192   3.310
 2839TIP3   OH2 8522   6.169   0.134   0.635
 2839TIP3    H1 8523   6.131   0.094   0.713
 2839TIP3    H2 8524   6.121   0.094   0.562
 2840TIP3   OH2 8525   3.058   0.943   3.819
 2840TIP3    H1 8526   3.090   0.918   3.733
 2840TIP3    H2 8527   3.062   1.039   3.820
 2841TIP3   OH2 8528   3.683   4.843   0.580
 2841TIP3    H1 8529   3.658   4.755   0.606
 2841TIP3    H2 8530   3.616   4.900   0.620
 2842TIP3   OH2 8531   0.746   5.017   2.707
 2842TIP3    H1 8532   0.778   4.958   2.775
 2842TIP3    H2 8533   0.725   4.959   2.634
 2843TIP3   OH2 8534   0.880   4.850   3.938
 2843TIP3    H1 8535   0.951   4.904   3.903
 2843TIP3    H2 8536   0.806   4.868   3.880
 2844TIP3   OH2 8537   4.584   4.289   4.429
 2844TIP3    H1 8538   4.612   4.198   4.436
 2844TIP3    H2 8539   4.654   4.340   4.470
 2845TIP3   OH2 8540   4.436   1.245   1.906
 2845TIP3    H1 8541   4.356   1.219   1.952
 2845TIP3    H2 8542   4.506   1.231   1.970
 2846TIP3   OH2 8543   3.811   2.755   4.312
 2846TIP3    H1 8544   3.867   2.756   4.389
 2846TIP3    H2 8545   3.827   2.670   4.271
 2847TIP3   OH2 8546   0.951   2.227   3.588
 2847TIP3    H1 8547   1.032   2.230   3.538
 2847TIP3    H2 8548   0.961   2.294   3.655
 2848TIP3   OH2 8549   3.710   1.237   1.976
 2848TIP3    H1 8550   3.773   1.270   1.912
 2848TIP3    H2 8551   3.655   1.176   1.928
 2849TIP3   OH2 8552   6.240   1.090   2.641
 2849TIP3    H1 8553   6.330   1.109   2.666
 2849TIP3    H2 8554   6.187   1.153   2.689
 2850TIP3   OH2 8555   2.037   2.273   2.070
 2850TIP3    H1 8556   1.968   2.223   2.113
 2850TIP3    H2 8557   1.995   2.310   1.993
 2851TIP3   OH2 8558   3.242   4.479   0.579
 2851TIP3    H1 8559   3.317   4.514   0.530
 2851TIP3    H2 8560   3.166   4.526   0.543
 2852TIP3   OH2 8561   0.726   1.449   1.937
 2852TIP3    H1 8562   0.733   1.544   1.926
 2852TIP3    H2 8563   0.739   1.436   2.031
 2853TIP3   OH2 8564   5.119   4.601   4.535
 2853TIP3    H1 8565   5.188   4.655   4.497
 2853TIP3    H2 8566   5.162   4.553   4.606
 2854TIP3   OH2 8567   3.169   4.558   3.210
 2854TIP3    H1 8568   3.130   4.605   3.137
 2854TIP3    H2 8569   3.186   4.625   3.276
 2855TIP3   OH2 8570   0.105   3.595   3.121
 2855TIP3    H1 8571   0.156   3.559   3.048
 2855TIP3    H2 8572   0.105   3.689   3.107
 2856TIP3   OH2 8573   2.737   1.736   0.254
 2856TIP3    H1 8574   2.749   1.666   0.190
 2856TIP3    H2 8575   2.711   1.812   0.203
 2857TIP3   OH2 8576   1.405   2.985   3.674
 2857TIP3    H1 8577   1.485   2.933   3.685
 2857TIP3    H2 8578   1.434   3.064   3.629
 2858TIP3   OH2 8579   4.335   4.039   2.735
 2858TIP3    H1 8580   4.369   4.124   2.762
 2858TIP3    H2 8581   4.383   3.975   2.787
 2859TIP3   OH2 8582   1.951   4.988   4.005
 2859TIP3    H1 8583   1.886   4.934   4.049
 2859TIP3    H2 8584   1.913   5.005   3.919
 2860TIP3   OH2 8585   1.097   4.751   1.452
 2860TIP3    H1 8586   1.131   4.685   1.391
 2860TIP3    H2 8587   1.171   4.770   1.510
 2861TIP3   OH2 8588   0.855   1.224   3.915
 2861TIP3    H1 8589   0.926   1.247   3.855
 2861TIP3    H2 8590   0.824   1.308   3.949
 2862TIP3   OH2 8591   1.813   2.536   3.553
 2862TIP3    H1 8592   1.743   2.484   3.591
 2862TIP3    H2 8593   1.792   2.541   3.460
 2863TIP3   OH2 8594   5.435   5.440   3.133
 2863TIP3    H1 8595   5.529   5.425   3.144
 2863TIP3    H2 8596   5.427   5.534   3.115
 2864TIP3   OH2 8597   4.195   3.824   3.663
 2864TIP3    H1 8598   4.130   3.785   3.721
 2864TIP3    H2 8599   4.230   3.898   3.713
 2865TIP3   OH2 8600   5.028   4.668   1.706
 2865TIP3    H1 8601   5.000   4.670   1.798
 2865TIP3    H2 8602   5.079   4.588   1.699
 2866TIP3   OH2 8603   1.043   0.095   1.139
 2866TIP3    H1 8604   1.075   0.178   1.176
 2866TIP3    H2 8605   0.955   0.086   1.173
 2867TIP3   OH2 8606   4.602   0.558   0.419
 2867TIP3    H1 8607   4.648   0.482   0.382
 2867TIP3    H2 8608   4.643   0.571   0.504
 2868TIP3   OH2 8609   5.740   3.044   1.884
 2868TIP3    H1 8610   5.664   2.996   1.851
 2868TIP3    H2 8611   5.815   2.991   1.857
 2869TIP3   OH2 8612   6.054   4.659   2.530
 2869TIP3    H1 8613   6.061   4.565   2.518
 2869TIP3    H2 8614   6.072   4.696   2.444
 2870TIP3   OH2 8615   0.024   1.695   2.839
 2870TIP3    H1 8616   0.051   1.739   2.759
 2870TIP3    H2 8617  -0.064   1.730   2.857
 2871TIP3   OH2 8618   4.155   4.377   0.146
 2871TIP3    H1 8619   4.084   4.374   0.210
 2871TIP3    H2 8620   4.124   4.325   0.073
 2872TIP3   OH2 8621   5.464   2.398   4.248
 2872TIP3    H1 8622   5.369   2.392   4.258
 2872TIP3    H2 8623   5.485   2.342   4.174
 2873TIP3   OH2 8624   0.513   3.963   4.469
 2873TIP3    H1 8625   0.516   4.045   4.420
 2873TIP3    H2 8626   0.548   3.898   4.409
 2874TIP3   OH2 8627   5.638   0.782   2.113
 2874TIP3    H1 8628   5.591   0.834   2.179
 2874TIP3    H2 8629   5.668   0.705   2.161
 2875TIP3   OH2 8630   2.997   1.139   4.825
 2875TIP3    H1 8631   3.024   1.180   4.744
 2875TIP3    H2 8632   2.904   1.161   4.833
 2876TIP3   OH2 8633   4.920   2.766   0.211
 2876TIP3    H1 8634   4.992   2.803   0.160
 2876TIP3    H2 8635   4.959   2.694   0.261
 2877TIP3   OH2 8636   0.766   5.768   0.996
 2877TIP3    H1 8637   0.757   5.673   0.986
 2877TIP3    H2 8638   0.679   5.798   1.023
 2878TIP3   OH2 8639   0.407   1.560   2.031
 2878TIP3    H1 8640   0.457   1.621   2.087
 2878TIP3    H2 8641   0.446   1.475   2.048
 2879TIP3   OH2 8642   1.442   3.507   1.022
 2879TIP3    H1 8643   1.418   3.523   1.113
 2879TIP3    H2 8644   1.473   3.416   1.021
 2880TIP3   OH2 8645   2.718   2.560   4.151
 2880TIP3    H1 8646   2.622   2.559   4.151
 2880TIP3    H2 8647   2.743   2.542   4.241
 2881TIP3   OH2 8648   5.240   0.517   0.285
 2881TIP3    H1 8649   5.249   0.539   0.378
 2881TIP3    H2 8650   5.212   0.598   0.243
 2882TIP3   OH2 8651   3.775   4.577   3.008
 2882TIP3    H1 8652   3.754   4.593   3.100
 2882TIP3    H2 8653   3.758   4.484   2.995
 2883TIP3   OH2 8654   4.385   3.900   2.498
 2883TIP3    H1 8655   4.480   3.903   2.485
 2883TIP3    H2 8656   4.372   3.942   2.583
 2884TIP3   OH2 8657   1.624   3.674   2.557
 2884TIP3    H1 8658   1.622   3.579   2.543
 2884TIP3    H2 8659   1.563   3.709   2.492
 2885TIP3   OH2 8660   0.741   2.847   2.711
 2885TIP3    H1 8661   0.790   2.920   2.749
 2885TIP3    H2 8662   0.808   2.782   2.691
 2886TIP3   OH2 8663   5.323   2.603   4.477
 2886TIP3    H1 8664   5.361   2.598   4.390
 2886TIP3    H2 8665   5.329   2.514   4.511
 2887TIP3   OH2 8666   1.256   1.669   0.231
 2887TIP3    H1 8667   1.303   1.702   0.155
 2887TIP3    H2 8668   1.221   1.748   0.274
 2888TIP3   OH2 8669   5.668   3.277   5.170
 2888TIP3    H1 8670   5.584   3.250   5.209
 2888TIP3    H2 8671   5.697   3.201   5.121
 2889TIP3   OH2 8672   6.120   5.307   0.019
 2889TIP3    H1 8673   6.153   5.226   0.059
 2889TIP3    H2 8674   6.026   5.290   0.006
 2890TIP3   OH2 8675   3.697   3.918   2.270
 2890TIP3    H1 8676   3.639   3.909   2.194
 2890TIP3    H2 8677   3.669   4.000   2.311
 2891TIP3   OH2 8678   3.458   1.267   4.349
 2891TIP3    H1 8679   3.520   1.304   4.412
 2891TIP3    H2 8680   3.449   1.334   4.282
 2892TIP3   OH2 8681  -0.016   3.500   3.354
 2892TIP3    H1 8682   0.024   3.528   3.271
 2892TIP3    H2 8683   0.052   3.512   3.419
 2893TIP3   OH2 8684   3.138   4.638   1.761
 2893TIP3    H1 8685   3.214   4.672   1.808
 2893TIP3    H2 8686   3.080   4.605   1.830
 2894TIP3   OH2 8687   0.434   5.364   2.967
 2894TIP3    H1 8688   0.361   5.376   2.907
 2894TIP3    H2 8689   0.507   5.336   2.911
 2895TIP3   OH2 8690   4.397   0.468   1.009
 2895TIP3    H1 8691   4.489   0.447   1.023
 2895TIP3    H2 8692   4.349   0.403   1.060
 2896TIP3   OH2 8693   2.227   2.763   2.209
 2896TIP3    H1 8694   2.214   2.840   2.265
 2896TIP3    H2 8695   2.281   2.704   2.262
 2897TIP3   OH2 8696   0.982   2.273   0.830
 2897TIP3    H1 8697   0.978   2.355   0.781
 2897TIP3    H2 8698   1.050   2.286   0.895
 2898TIP3   OH2 8699   1.415   5.828   2.378
 2898TIP3    H1 8700   1.456   5.914   2.364
 2898TIP3    H2 8701   1.325   5.848   2.403
 2899TIP3   OH2 8702   3.171   0.215   4.888
 2899TIP3    H1 8703   3.184   0.302   4.849
 2899TIP3    H2 8704   3.108   0.231   4.959
 2900TIP3   OH2 8705   1.467   3.891   3.709
 2900TIP3    H1 8706   1.495   3.972   3.752
 2900TIP3    H2 8707   1.376   3.906   3.686
 2901TIP3   OH2 8708   3.338   3.693   1.744
 2901TIP3    H1 8709   3.388   3.613   1.727
 2901TIP3    H2 8710   3.388   3.762   1.700
 2902TIP3   OH2 8711   0.698   3.309   2.270
 2902TIP3    H1 8712   0.651   3.271   2.345
 2902TIP3    H2 8713   0.746   3.235   2.232
 2903TIP3   OH2 8714   5.305   5.055   3.194
 2903TIP3    H1 8715   5.364   4.987   3.227
 2903TIP3    H2 8716   5.218   5.026   3.220
 2904TIP3   OH2 8717   5.184   2.824   0.388
 2904TIP3    H1 8718   5.275   2.795   0.390
 2904TIP3    H2 8719   5.187   2.909   0.344
 2905TIP3   OH2 8720   2.852   3.603   2.747
 2905TIP3    H1 8721   2.930   3.652   2.773
 2905TIP3    H2 8722   2.865   3.516   2.783
 2906TIP3   OH2 8723   0.433   3.675   3.917
 2906TIP3    H1 8724   0.520   3.670   3.958
 2906TIP3    H2 8725   0.418   3.587   3.883
 2907TIP3   OH2 8726   3.435   1.854   1.767
 2907TIP3    H1 8727   3.418   1.891   1.854
 2907TIP3    H2 8728   3.505   1.908   1.731
 2908TIP3   OH2 8729   1.469   3.536   1.317
 2908TIP3    H1 8730   1.544   3.519   1.373
 2908TIP3    H2 8731   1.393   3.509   1.370
 2909TIP3   OH2 8732   3.159   2.167   0.043
 2909TIP3    H1 8733   3.138   2.157   0.136
 2909TIP3    H2 8734   3.243   2.212   0.042
 2910TIP3   OH2 8735   5.433   3.800   4.759
 2910TIP3    H1 8736   5.475   3.859   4.696
 2910TIP3    H2 8737   5.413   3.721   4.709
 2911TIP3   OH2 8738   2.425   2.826   1.235
 2911TIP3    H1 8739   2.426   2.730   1.244
 2911TIP3    H2 8740   2.365   2.841   1.161
 2912TIP3   OH2 8741   2.609   4.306   2.950
 2912TIP3    H1 8742   2.650   4.240   2.894
 2912TIP3    H2 8743   2.601   4.383   2.895
 2913TIP3   OH2 8744   0.158   1.558   1.511
 2913TIP3    H1 8745   0.139   1.511   1.429
 2913TIP3    H2 8746   0.145   1.493   1.580
 2914TIP3   OH2 8747   5.412   3.989   4.491
 2914TIP3    H1 8748   5.467   4.050   4.539
 2914TIP3    H2 8749   5.471   3.944   4.431
 2915TIP3   OH2 8750   3.614   0.978   3.489
 2915TIP3    H1 8751   3.665   1.033   3.429
 2915TIP3    H2 8752   3.659   0.986   3.573
 2916TIP3   OH2 8753   5.626   0.555   3.286
 2916TIP3    H1 8754   5.571   0.604   3.225
 2916TIP3    H2 8755   5.595   0.581   3.372
 2917TIP3   OH2 8756   3.394   3.966   2.563
 2917TIP3    H1 8757   3.375   3.969   2.469
 2917TIP3    H2 8758   3.312   3.990   2.605
 2918TIP3   OH2 8759   1.415   5.852   1.406
 2918TIP3    H1 8760   1.411   5.945   1.428
 2918TIP3    H2 8761   1.384   5.807   1.484
 2919TIP3   OH2 8762   4.120   3.325   0.858
 2919TIP3    H1 8763   4.155   3.410   0.829
 2919TIP3    H2 8764   4.112   3.334   0.953
 2920TIP3   OH2 8765   3.284   1.399   0.192
 2920TIP3    H1 8766   3.280   1.391   0.096
 2920TIP3    H2 8767   3.211   1.458   0.213
 2921TIP3   OH2 8768   4.081   5.544   4.922
 2921TIP3    H1 8769   4.171   5.547   4.954
 2921TIP3    H2 8770   4.087   5.498   4.839
 2922TIP3   OH2 8771   1.041   4.715   2.017
 2922TIP3    H1 8772   0.994   4.747   2.094
 2922TIP3    H2 8773   1.129   4.695   2.049
 2923TIP3   OH2 8774   5.818   3.322   1.692
 2923TIP3    H1 8775   5.797   3.251   1.631
 2923TIP3    H2 8776   5.871   3.383   1.640
 2924TIP3   OH2 8777   0.767   3.131   4.246
 2924TIP3    H1 8778   0.735   3.221   4.257
 2924TIP3    H2 8779   0.707   3.078   4.298
 2925TIP3   OH2 8780   3.166   5.505   3.217
 2925TIP3    H1 8781   3.251   5.462   3.226
 2925TIP3    H2 8782   3.169   5.545   3.129
 2926TIP3   OH2 8783   3.516   5.317   0.748
 2926TIP3    H1 8784   3.466   5.253   0.698
 2926TIP3    H2 8785   3.572   5.360   0.683
 2927TIP3   OH2 8786   1.286   0.349   2.016
 2927TIP3    H1 8787   1.374   0.371   2.046
 2927TIP3    H2 8788   1.283   0.379   1.925
 2928TIP3   OH2 8789   2.172   5.034   3.075
 2928TIP3    H1 8790   2.143   5.061   2.988
 2928TIP3    H2 8791   2.097   4.990   3.113
 2929TIP3   OH2 8792   3.657   1.280   0.889
 2929TIP3    H1 8793   3.711   1.265   0.967
 2929TIP3    H2 8794   3.573   1.240   0.910
 2930TIP3   OH2 8795   3.091   5.020   3.073
 2930TIP3    H1 8796   3.179   5.057   3.079
 2930TIP3    H2 8797   3.036   5.079   3.126
 2931TIP3   OH2 8798   3.317   4.653   1.522
 2931TIP3    H1 8799   3.261   4.629   1.595
 2931TIP3    H2 8800   3.281   4.735   1.490
 2932TIP3   OH2 8801   3.591   5.355   0.084
 2932TIP3    H1 8802   3.649   5.429   0.100
 2932TIP3    H2 8803   3.573   5.358  -0.010
 2933TIP3   OH2 8804   4.452   4.381   0.418
 2933TIP3    H1 8805   4.366   4.341   0.437
 2933TIP3    H2 8806   4.460   4.378   0.323
 2934TIP3   OH2 8807   0.444   2.080   2.669
 2934TIP3    H1 8808   0.484   2.097   2.584
 2934TIP3    H2 8809   0.468   1.989   2.688
 2935TIP3   OH2 8810   4.548   2.665   0.656
 2935TIP3    H1 8811   4.563   2.570   0.660
 2935TIP3    H2 8812   4.539   2.692   0.747
 2936TIP3   OH2 8813   3.706   2.856   5.038
 2936TIP3    H1 8814   3.624   2.856   5.086
 2936TIP3    H2 8815   3.685   2.816   4.954
 2937TIP3   OH2 8816   1.007   0.535   1.441
 2937TIP3    H1 8817   0.970   0.473   1.504
 2937TIP3    H2 8818   0.943   0.606   1.436
 2938TIP3   OH2 8819   1.799   5.280   2.864
 2938TIP3    H1 8820   1.876   5.337   2.860
 2938TIP3    H2 8821   1.751   5.311   2.941
 2939TIP3   OH2 8822   2.636   1.506   3.707
 2939TIP3    H1 8823   2.671   1.517   3.619
 2939TIP3    H2 8824   2.664   1.418   3.733
 2940TIP3   OH2 8825   0.355   1.125   2.459
 2940TIP3    H1 8826   0.426   1.066   2.487
 2940TIP3    H2 8827   0.289   1.066   2.422
 2941TIP3   OH2 8828   1.740   1.534   3.185
 2941TIP3    H1 8829   1.684   1.611   3.177
 2941TIP3    H2 8830   1.754   1.524   3.279
 2942TIP3   OH2 8831   0.897   3.810   1.654
 2942TIP3    H1 8832   0.855   3.884   1.699
 2942TIP3    H2 8833   0.825   3.748   1.639
 2943TIP3   OH2 8834   5.033   5.476   0.734
 2943TIP3    H1 8835   5.074   5.436   0.657
 2943TIP3    H2 8836   5.009   5.564   0.706
 2944TIP3   OH2 8837   4.740   0.735   0.253
 2944TIP3    H1 8838   4.681   0.698   0.318
 2944TIP3    H2 8839   4.827   0.707   0.280
 2945TIP3   OH2 8840   4.911   0.549   4.344
 2945TIP3    H1 8841   4.920   0.538   4.250
 2945TIP3    H2 8842   4.877   0.464   4.374
 2946TIP3   OH2 8843   0.577   5.742   4.765
 2946TIP3    H1 8844   0.549   5.653   4.786
 2946TIP3    H2 8845   0.526   5.797   4.824
 2947TIP3   OH2 8846   3.836   4.067   4.164
 2947TIP3    H1 8847   3.873   4.007   4.229
 2947TIP3    H2 8848   3.850   4.023   4.080
 2948TIP3   OH2 8849   3.878   5.443   1.424
 2948TIP3    H1 8850   3.803   5.446   1.366
 2948TIP3    H2 8851   3.860   5.370   1.484
 2949TIP3   OH2 8852   4.067   2.037   4.501
 2949TIP3    H1 8853   4.050   2.129   4.522
 2949TIP3    H2 8854   4.082   2.036   4.406
 2950TIP3   OH2 8855   4.748   0.404   1.347
 2950TIP3    H1 8856   4.728   0.346   1.421
 2950TIP3    H2 8857   4.691   0.372   1.276
 2951TIP3   OH2 8858   0.644   2.348   0.515
 2951TIP3    H1 8859   0.735   2.368   0.494
 2951TIP3    H2 8860   0.640   2.252   0.513
 2952TIP3   OH2 8861   0.021   2.193   2.354
 2952TIP3    H1 8862   0.057   2.157   2.273
 2952TIP3    H2 8863  -0.068   2.219   2.332
 2953TIP3   OH2 8864   0.298   2.268   0.290
 2953TIP3    H1 8865   0.378   2.217   0.282
 2953TIP3    H2 8866   0.326   2.359   0.277
 2954TIP3   OH2 8867   3.311   4.833   0.697
 2954TIP3    H1 8868   3.367   4.762   0.727
 2954TIP3    H2 8869   3.318   4.900   0.765
 2955TIP3   OH2 8870   4.764   4.051   4.557
 2955TIP3    H1 8871   4.752   3.956   4.557
 2955TIP3    H2 8872   4.770   4.075   4.649
 2956TIP3   OH2 8873   0.540   3.315   4.899
 2956TIP3    H1 8874   0.528   3.225   4.930
 2956TIP3    H2 8875   0.504   3.315   4.810
 2957TIP3   OH2 8876   3.719   1.672   1.468
 2957TIP3    H1 8877   3.668   1.708   1.541
 2957TIP3    H2 8878   3.697   1.728   1.393
 2958TIP3   OH2 8879   4.883   4.443   0.546
 2958TIP3    H1 8880   4.811   4.380   0.557
 2958TIP3    H2 8881   4.873   4.503   0.619
 2959TIP3   OH2 8882   6.053   6.001   2.493
 2959TIP3    H1 8883   5.990   5.929   2.493
 2959TIP3    H2 8884   6.123   5.971   2.552
 2960TIP3   OH2 8885   2.447   5.256   3.125
 2960TIP3    H1 8886   2.475   5.344   3.101
 2960TIP3    H2 8887   2.420   5.262   3.216
 2961TIP3   OH2 8888   3.564   4.701   5.188
 2961TIP3    H1 8889   3.490   4.758   5.169
 2961TIP3    H2 8890   3.596   4.673   5.102
 2962TIP3   OH2 8891   5.252   0.446   4.087
 2962TIP3    H1 8892   5.279   0.477   4.173
 2962TIP3    H2 8893   5.167   0.487   4.072
 2963TIP3   OH2 8894   5.217   3.205   2.435
 2963TIP3    H1 8895   5.218   3.299   2.456
 2963TIP3    H2 8896   5.201   3.202   2.341
 2964TIP3   OH2 8897   0.249   0.292   1.341
 2964TIP3    H1 8898   0.302   0.216   1.315
 2964TIP3    H2 8899   0.161   0.272   1.308
 2965TIP3   OH2 8900   5.930   0.337   1.558
 2965TIP3    H1 8901   5.987   0.375   1.626
 2965TIP3    H2 8902   5.859   0.296   1.608
 2966TIP3   OH2 8903   5.926   0.774   3.338
 2966TIP3    H1 8904   5.854   0.719   3.306
 2966TIP3    H2 8905   5.931   0.845   3.274
 2967TIP3   OH2 8906   2.646   0.020   2.538
 2967TIP3    H1 8907   2.564   0.061   2.510
 2967TIP3    H2 8908   2.622  -0.072   2.553
 2968TIP3   OH2 8909   4.042   4.669   3.258
 2968TIP3    H1 8910   3.958   4.703   3.226
 2968TIP3    H2 8911   4.039   4.686   3.353
 2969TIP3   OH2 8912   6.101   1.097   0.275
 2969TIP3    H1 8913   6.009   1.070   0.279
 2969TIP3    H2 8914   6.101   1.188   0.305
 2970TIP3   OH2 8915   2.933   1.413   2.993
 2970TIP3    H1 8916   2.988   1.472   2.942
 2970TIP3    H2 8917   2.883   1.365   2.927
 2971TIP3   OH2 8918   4.642   4.002   3.833
 2971TIP3    H1 8919   4.667   3.941   3.763
 2971TIP3    H2 8920   4.711   4.068   3.833
 2972TIP3   OH2 8921   1.815   2.139   3.408
 2972TIP3    H1 8922   1.745   2.200   3.434
 2972TIP3    H2 8923   1.831   2.159   3.316
 2973TIP3   OH2 8924   3.958   5.569   4.567
 2973TIP3    H1 8925   3.878   5.620   4.557
 2973TIP3    H2 8926   4.029   5.633   4.566
 2974TIP3   OH2 8927   5.606   2.520   3.930
 2974TIP3    H1 8928   5.651   2.523   4.014
 2974TIP3    H2 8929   5.659   2.462   3.876
 2975TIP3   OH2 8930   0.194   3.651   4.819
 2975TIP3    H1 8931   0.284   3.680   4.807
 2975TIP3    H2 8932   0.169   3.686   4.905
 2976TIP3   OH2 8933   5.147   4.931   1.766
 2976TIP3    H1 8934   5.077   4.867   1.756
 2976TIP3    H2 8935   5.166   4.932   1.860
 2977TIP3   OH2 8936   0.462   3.544   1.847
 2977TIP3    H1 8937   0.382   3.596   1.841
 2977TIP3    H2 8938   0.436   3.456   1.821
 2978TIP3   OH2 8939   2.336   1.772   0.331
 2978TIP3    H1 8940   2.331   1.795   0.238
 2978TIP3    H2 8941   2.358   1.853   0.376
 2979TIP3   OH2 8942   1.102   5.269   0.894
 2979TIP3    H1 8943   1.111   5.319   0.975
 2979TIP3    H2 8944   1.175   5.297   0.840
 2980TIP3   OH2 8945   1.710   3.083   0.504
 2980TIP3    H1 8946   1.678   3.011   0.450
 2980TIP3    H2 8947   1.744   3.147   0.442
 2981TIP3   OH2 8948   1.248   3.748   4.926
 2981TIP3    H1 8949   1.204   3.665   4.942
 2981TIP3    H2 8950   1.183   3.801   4.879
 2982TIP3   OH2 8951   5.470   1.751   4.117
 2982TIP3    H1 8952   5.553   1.799   4.125
 2982TIP3    H2 8953   5.496   1.661   4.102
 2983TIP3   OH2 8954   5.574   1.521   3.865
 2983TIP3    H1 8955   5.646   1.490   3.920
 2983TIP3    H2 8956   5.545   1.443   3.818
 2984TIP3   OH2 8957   0.250   5.121   4.373
 2984TIP3    H1 8958   0.314   5.082   4.312
 2984TIP3    H2 8959   0.282   5.210   4.388
 2985TIP3   OH2 8960   4.531   0.064   0.734
 2985TIP3    H1 8961   4.451   0.116   0.726
 2985TIP3    H2 8962   4.522   0.017   0.817
 2986TIP3   OH2 8963   2.783   2.458   3.382
 2986TIP3    H1 8964   2.856   2.403   3.352
 2986TIP3    H2 8965   2.791   2.459   3.477
 2987TIP3   OH2 8966   1.686   2.998   4.044
 2987TIP3    H1 8967   1.693   2.903   4.039
 2987TIP3    H2 8968   1.608   3.014   4.098
 2988TIP3   OH2 8969   5.923   5.907   0.238
 2988TIP3    H1 8970   5.950   5.824   0.198
 2988TIP3    H2 8971   5.833   5.919   0.209
 2989TIP3   OH2 8972   2.135   3.353   2.546
 2989TIP3    H1 8973   2.170   3.379   2.631
 2989TIP3    H2 8974   2.119   3.259   2.553
 2990TIP3   OH2 8975   3.201   3.273   3.238
 2990TIP3    H1 8976   3.287   3.309   3.213
 2990TIP3    H2 8977   3.222   3.193   3.286
 2991TIP3   OH2 8978   3.578   0.173   2.121
 2991TIP3    H1 8979   3.590   0.168   2.216
 2991TIP3    H2 8980   3.657   0.134   2.084
 2992TIP3   OH2 8981   1.212   3.937   1.081
 2992TIP3    H1 8982   1.116   3.943   1.079
 2992TIP3    H2 8983   1.240   3.994   1.010
 2993TIP3   OH2 8984   3.274   4.645   0.088
 2993TIP3    H1 8985   3.335   4.651   0.161
 2993TIP3    H2 8986   3.189   4.669   0.125
 2994TIP3   OH2 8987   2.487   2.906   2.136
 2994TIP3    H1 8988   2.491   2.810   2.139
 2994TIP3    H2 8989   2.488   2.927   2.043
 2995TIP3   OH2 8990   5.092   5.761   1.727
 2995TIP3    H1 8991   5.157   5.829   1.711
 2995TIP3    H2 8992   5.136   5.700   1.787
 2996TIP3   OH2 8993   0.877   4.878   3.409
 2996TIP3    H1 8994   0.880   4.800   3.465
 2996TIP3    H2 8995   0.784   4.899   3.403
 2997TIP3   OH2 8996   6.284   5.087   3.094
 2997TIP3    H1 8997   6.348   5.053   3.032
 2997TIP3    H2 8998   6.334   5.145   3.151
 2998TIP3   OH2 8999   4.486   3.717   1.508
 2998TIP3    H1 9000   4.579   3.697   1.511
 2998TIP3    H2 9001   4.475   3.787   1.573
 2999TIP3   OH2 9002   1.149   1.209   4.437
 2999TIP3    H1 9003   1.207   1.136   4.416
 2999TIP3    H2 9004   1.107   1.232   4.353
 3000TIP3   OH2 9005   0.282   1.640   0.530
 3000TIP3    H1 9006   0.318   1.563   0.485
 3000TIP3    H2 9007   0.305   1.627   0.622
 3001TIP3   OH2 9008   5.595   0.444   1.755
 3001TIP3    H1 9009   5.604   0.391   1.834
 3001TIP3    H2 9010   5.569   0.530   1.786
 3002TIP3   OH2 9011   4.284   4.835   1.032
 3002TIP3    H1 9012   4.365   4.885   1.024
 3002TIP3    H2 9013   4.305   4.748   0.998
 3003TIP3   OH2 9014   1.234   5.416   2.647
 3003TIP3    H1 9015   1.149   5.459   2.659
 3003TIP3    H2 9016   1.295   5.488   2.631
 3004TIP3   OH2 9017   5.638   5.045   4.288
 3004TIP3    H1 9018   5.552   5.046   4.246
 3004TIP3    H2 9019   5.697   5.087   4.226
 3005TIP3   OH2 9020   3.665   4.110   0.148
 3005TIP3    H1 9021   3.574   4.082   0.138
 3005TIP3    H2 9022   3.702   4.103   0.060
 3006TIP3   OH2 9023   2.159   0.237   2.288
 3006TIP3    H1 9024   2.123   0.211   2.373
 3006TIP3    H2 9025   2.085   0.234   2.228
 3007TIP3   OH2 9026   2.795   0.202   4.845
 3007TIP3    H1 9027   2.828   0.179   4.932
 3007TIP3    H2 9028   2.708   0.238   4.862
 3008TIP3   OH2 9029   2.991   5.765   0.894
 3008TIP3    H1 9030   2.998   5.735   0.804
 3008TIP3    H2 9031   2.916   5.718   0.930
 3009TIP3   OH2 9032   2.722   2.961   3.405
 3009TIP3    H1 9033   2.719   2.995   3.315
 3009TIP3    H2 9034   2.785   3.018   3.450
 3010TIP3   OH2 9035   1.856   5.766   1.094
 3010TIP3    H1 9036   1.814   5.680   1.098
 3010TIP3    H2 9037   1.926   5.756   1.030
 3011TIP3   OH2 9038   1.005   2.537   1.295
 3011TIP3    H1 9039   1.043   2.484   1.225
 3011TIP3    H2 9040   1.081   2.569   1.344
 3012TIP3   OH2 9041   6.022   0.242   2.689
 3012TIP3    H1 9042   6.044   0.156   2.724
 3012TIP3    H2 9043   6.105   0.291   2.690
 3013TIP3   OH2 9044   2.188   2.901   2.685
 3013TIP3    H1 9045   2.254   2.960   2.720
 3013TIP3    H2 9046   2.223   2.813   2.699
 3014TIP3   OH2 9047   0.234   4.177   4.829
 3014TIP3    H1 9048   0.204   4.223   4.908
 3014TIP3    H2 9049   0.155   4.135   4.795
 3015TIP3   OH2 9050   2.217   1.759   1.840
 3015TIP3    H1 9051   2.183   1.681   1.796
 3015TIP3    H2 9052   2.239   1.819   1.769
 3016TIP3   OH2 9053   1.329   5.601   0.354
 3016TIP3    H1 9054   1.290   5.605   0.441
 3016TIP3    H2 9055   1.396   5.533   0.361
 3017TIP3   OH2 9056   2.316   0.669   3.134
 3017TIP3    H1 9057   2.263   0.650   3.211
 3017TIP3    H2 9058   2.280   0.612   3.066
 3018TIP3   OH2 9059   3.131   2.971   0.238
 3018TIP3    H1 9060   3.190   3.045   0.233
 3018TIP3    H2 9061   3.188   2.894   0.235
 3019TIP3   OH2 9062   0.127   0.487   3.643
 3019TIP3    H1 9063   0.160   0.414   3.695
 3019TIP3    H2 9064   0.050   0.453   3.599
 3020TIP3   OH2 9065   4.645   2.167   1.428
 3020TIP3    H1 9066   4.736   2.191   1.416
 3020TIP3    H2 9067   4.596   2.248   1.413
 3021TIP3   OH2 9068   1.316   2.292   1.781
 3021TIP3    H1 9069   1.382   2.333   1.726
 3021TIP3    H2 9070   1.353   2.207   1.804
 3022TIP3   OH2 9071   5.184   0.630   3.890
 3022TIP3    H1 9072   5.263   0.591   3.929
 3022TIP3    H2 9073   5.218   0.697   3.830
 3023TIP3   OH2 9074   5.001   3.132   0.527
 3023TIP3    H1 9075   5.043   3.049   0.506
 3023TIP3    H2 9076   5.015   3.186   0.450
 3024TIP3   OH2 9077   2.446   3.907   0.820
 3024TIP3    H1 9078   2.481   3.969   0.885
 3024TIP3    H2 9079   2.523   3.857   0.792
 3025TIP3   OH2 9080   0.777   3.256   4.508
 3025TIP3    H1 9081   0.778   3.172   4.553
 3025TIP3    H2 9082   0.685   3.277   4.497
 3026TIP3   OH2 9083   2.478   4.103   3.541
 3026TIP3    H1 9084   2.534   4.108   3.464
 3026TIP3    H2 9085   2.513   4.030   3.592
 3027TIP3   OH2 9086   3.701   4.721   1.390
 3027TIP3    H1 9087   3.777   4.671   1.361
 3027TIP3    H2 9088   3.638   4.714   1.319
 3028TIP3   OH2 9089   0.672   1.236   3.245
 3028TIP3    H1 9090   0.690   1.323   3.281
 3028TIP3    H2 9091   0.642   1.184   3.320
 3029TIP3   OH2 9092   4.245   1.409   4.712
 3029TIP3    H1 9093   4.265   1.490   4.664
 3029TIP3    H2 9094   4.219   1.347   4.644
 3030TIP3   OH2 9095   1.502   4.612   0.898
 3030TIP3    H1 9096   1.522   4.705   0.887
 3030TIP3    H2 9097   1.588   4.569   0.901
 3031TIP3   OH2 9098   5.515   3.856   4.262
 3031TIP3    H1 9099   5.431   3.853   4.214
 3031TIP3    H2 9100   5.544   3.946   4.252
 3032TIP3   OH2 9101   3.747   5.992   3.512
 3032TIP3    H1 9102   3.750   5.910   3.463
 3032TIP3    H2 9103   3.806   5.978   3.587
 3033TIP3   OH2 9104   5.249   4.980   4.965
 3033TIP3    H1 9105   5.301   5.042   5.016
 3033TIP3    H2 9106   5.275   4.995   4.875
 3034TIP3   OH2 9107   5.390   0.374   4.911
 3034TIP3    H1 9108   5.380   0.428   4.832
 3034TIP3    H2 9109   5.325   0.304   4.901
 3035TIP3   OH2 9110   3.667   2.693   2.706
 3035TIP3    H1 9111   3.613   2.762   2.667
 3035TIP3    H2 9112   3.650   2.616   2.653
 3036TIP3   OH2 9113   6.240   0.610   2.722
 3036TIP3    H1 9114   6.257   0.653   2.806
 3036TIP3    H2 9115   6.283   0.525   2.730
 3037TIP3   OH2 9116   2.940   0.946   0.887
 3037TIP3    H1 9117   2.852   0.974   0.912
 3037TIP3    H2 9118   2.955   0.865   0.934
 3038TIP3   OH2 9119   5.522   1.706   1.343
 3038TIP3    H1 9120   5.427   1.716   1.331
 3038TIP3    H2 9121   5.534   1.611   1.351
 3039TIP3   OH2 9122   0.481   0.625   0.829
 3039TIP3    H1 9123   0.473   0.615   0.734
 3039TIP3    H2 9124   0.566   0.586   0.850
 3040TIP3   OH2 9125   2.269   1.999   1.669
 3040TIP3    H1 9126   2.227   2.048   1.598
 3040TIP3    H2 9127   2.229   2.034   1.749
 3041TIP3   OH2 9128   2.198   4.177   2.100
 3041TIP3    H1 9129   2.183   4.083   2.093
 3041TIP3    H2 9130   2.175   4.212   2.014
 3042TIP3   OH2 9131   6.169   3.518   2.246
 3042TIP3    H1 9132   6.181   3.423   2.250
 3042TIP3    H2 9133   6.134   3.541   2.332
 3043TIP3   OH2 9134   1.699   1.314   0.682
 3043TIP3    H1 9135   1.694   1.382   0.748
 3043TIP3    H2 9136   1.780   1.332   0.635
 3044TIP3   OH2 9137   4.717   3.534   2.589
 3044TIP3    H1 9138   4.635   3.566   2.553
 3044TIP3    H2 9139   4.724   3.444   2.556
 3045TIP3   OH2 9140   0.611   3.676   1.405
 3045TIP3    H1 9141   0.518   3.666   1.382
 3045TIP3    H2 9142   0.642   3.746   1.347
 3046TIP3   OH2 9143   1.528   5.692   2.152
 3046TIP3    H1 9144   1.513   5.731   2.238
 3046TIP3    H2 9145   1.624   5.686   2.145
 3047TIP3   OH2 9146   2.966   4.539   1.957
 3047TIP3    H1 9147   2.979   4.582   2.042
 3047TIP3    H2 9148   3.006   4.453   1.967
 3048TIP3   OH2 9149   0.787   3.888   1.278
 3048TIP3    H1 9150   0.841   3.856   1.351
 3048TIP3    H2 9151   0.763   3.977   1.304
 3049TIP3   OH2 9152   2.576   2.599   1.136
 3049TIP3    H1 9153   2.614   2.514   1.114
 3049TIP3    H2 9154   2.554   2.591   1.229
 3050TIP3   OH2 9155   3.392   1.660   4.614
 3050TIP3    H1 9156   3.381   1.631   4.523
 3050TIP3    H2 9157   3.487   1.660   4.628
 3051TIP3   OH2 9158   3.466   2.591   5.196
 3051TIP3    H1 9159   3.491   2.666   5.142
 3051TIP3    H2 9160   3.413   2.536   5.138
 3052TIP3   OH2 9161   6.136   2.309   1.653
 3052TIP3    H1 9162   6.072   2.379   1.666
 3052TIP3    H2 9163   6.118   2.275   1.566
 3053TIP3   OH2 9164   4.799   4.162   1.948
 3053TIP3    H1 9165   4.713   4.196   1.925
 3053TIP3    H2 9166   4.799   4.072   1.915
 3054TIP3   OH2 9167   1.462   2.155   4.315
 3054TIP3    H1 9168   1.371   2.180   4.301
 3054TIP3    H2 9169   1.499   2.147   4.227
 3055TIP3   OH2 9170   6.138  -0.019   3.979
 3055TIP3    H1 9171   6.189  -0.059   4.049
 3055TIP3    H2 9172   6.071   0.031   4.025
 3056TIP3   OH2 9173   0.011   4.676   1.304
 3056TIP3    H1 9174   0.079   4.617   1.272
 3056TIP3    H2 9175  -0.005   4.736   1.231
 3057TIP3   OH2 9176   3.988   5.267   4.965
 3057TIP3    H1 9177   3.992   5.260   4.869
 3057TIP3    H2 9178   3.978   5.360   4.982
 3058TIP3   OH2 9179   0.341   4.672   4.913
 3058TIP3    H1 9180   0.414   4.646   4.856
 3058TIP3    H2 9181   0.289   4.732   4.860
 3059TIP3   OH2 9182   3.612   5.472   5.031
 3059TIP3    H1 9183   3.627   5.566   5.040
 3059TIP3    H2 9184   3.662   5.433   5.103
 3060TIP3   OH2 9185   3.168   5.313   0.688
 3060TIP3    H1 9186   3.135   5.389   0.641
 3060TIP3    H2 9187   3.223   5.267   0.626
 3061TIP3   OH2 9188   1.135   5.689   1.830
 3061TIP3    H1 9189   1.061   5.647   1.873
 3061TIP3    H2 9190   1.204   5.689   1.896
 3062TIP3   OH2 9191   4.798   5.052   0.694
 3062TIP3    H1 9192   4.730   5.085   0.635
 3062TIP3    H2 9193   4.879   5.089   0.659
 3063TIP3   OH2 9194   3.585   5.746   0.088
 3063TIP3    H1 9195   3.669   5.700   0.080
 3063TIP3    H2 9196   3.583   5.777   0.178
 3064TIP3   OH2 9197   3.296   3.369   1.905
 3064TIP3    H1 9198   3.387   3.389   1.928
 3064TIP3    H2 9199   3.247   3.386   1.986
 3065TIP3   OH2 9200   4.582   5.116   3.975
 3065TIP3    H1 9201   4.583   5.189   3.914
 3065TIP3    H2 9202   4.631   5.046   3.930
 3066TIP3   OH2 9203   0.399   5.927   0.516
 3066TIP3    H1 9204   0.356   5.866   0.456
 3066TIP3    H2 9205   0.401   5.880   0.600
 3067TIP3   OH2 9206   3.047   5.262   0.127
 3067TIP3    H1 9207   3.126   5.317   0.129
 3067TIP3    H2 9208   3.079   5.175   0.102
 3068TIP3   OH2 9209   0.683   2.668   4.883
 3068TIP3    H1 9210   0.637   2.681   4.966
 3068TIP3    H2 9211   0.638   2.595   4.841
 3069TIP3   OH2 9212   6.003   0.477   0.587
 3069TIP3    H1 9213   5.930   0.460   0.646
 3069TIP3    H2 9214   6.081   0.465   0.640
 3070TIP3   OH2 9215   1.398   2.325   4.495
 3070TIP3    H1 9216   1.449   2.262   4.443
 3070TIP3    H2 9217   1.462   2.364   4.555
 3071TIP3   OH2 9218   2.026   1.310   0.897
 3071TIP3    H1 9219   2.050   1.328   0.988
 3071TIP3    H2 9220   2.098   1.257   0.863
 3072TIP3   OH2 9221   4.397   1.641   3.735
 3072TIP3    H1 9222   4.487   1.661   3.760
 3072TIP3    H2 9223   4.344   1.676   3.806
 3073TIP3   OH2 9224   1.953   3.432   2.251
 3073TIP3    H1 9225   1.926   3.383   2.329
 3073TIP3    H2 9226   2.011   3.372   2.204
 3074TIP3   OH2 9227   1.590   4.642   1.563
 3074TIP3    H1 9228   1.497   4.648   1.544
 3074TIP3    H2 9229   1.595   4.596   1.646
 3075TIP3   OH2 9230   4.310   4.890   4.811
 3075TIP3    H1 9231   4.332   4.966   4.758
 3075TIP3    H2 9232   4.381   4.828   4.796
 3076TIP3   OH2 9233   2.485   0.234   4.357
 3076TIP3    H1 9234   2.533   0.303   4.311
 3076TIP3    H2 9235   2.417   0.207   4.296
 3077TIP3   OH2 9236   3.162   3.940   1.153
 3077TIP3    H1 9237   3.227   3.975   1.092
 3077TIP3    H2 9238   3.213   3.916   1.230
 3078TIP3   OH2 9239   1.046   3.756   3.431
 3078TIP3    H1 9240   1.135   3.793   3.430
 3078TIP3    H2 9241   1.060   3.661   3.432
 3079TIP3   OH2 9242   1.431   2.596   2.740
 3079TIP3    H1 9243   1.351   2.613   2.789
 3079TIP3    H2 9244   1.496   2.656   2.777
 3080TIP3   OH2 9245   3.964   1.207   0.416
 3080TIP3    H1 9246   4.031   1.138   0.415
 3080TIP3    H2 9247   3.881   1.160   0.421
 3081TIP3   OH2 9248   0.041   2.122   1.614
 3081TIP3    H1 9249   0.042   2.176   1.534
 3081TIP3    H2 9250  -0.029   2.059   1.599
 3082TIP3   OH2 9251   3.467   0.541   5.099
 3082TIP3    H1 9252   3.484   0.502   5.013
 3082TIP3    H2 9253   3.519   0.621   5.100
 3083TIP3   OH2 9254   3.371   2.283   2.962
 3083TIP3    H1 9255   3.340   2.213   3.019
 3083TIP3    H2 9256   3.417   2.343   3.020
 3084TIP3   OH2 9257   0.407   3.271   1.790
 3084TIP3    H1 9258   0.399   3.257   1.884
 3084TIP3    H2 9259   0.493   3.234   1.767
 3085TIP3   OH2 9260   0.549   3.401   2.810
 3085TIP3    H1 9261   0.462   3.376   2.778
 3085TIP3    H2 9262   0.596   3.430   2.731
 3086TIP3   OH2 9263   0.320   0.066   1.225
 3086TIP3    H1 9264   0.277   0.031   1.303
 3086TIP3    H2 9265   0.341  -0.012   1.173
 3087TIP3   OH2 9266   5.689   4.485   4.940
 3087TIP3    H1 9267   5.640   4.567   4.944
 3087TIP3    H2 9268   5.776   4.510   4.907
 3088TIP3   OH2 9269   5.356   1.006   1.681
 3088TIP3    H1 9270   5.309   1.082   1.648
 3088TIP3    H2 9271   5.420   0.986   1.613
 3089TIP3   OH2 9272   4.880   2.274   2.099
 3089TIP3    H1 9273   4.836   2.326   2.167
 3089TIP3    H2 9274   4.914   2.338   2.037
 3090TIP3   OH2 9275   4.101   1.483   2.792
 3090TIP3    H1 9276   4.056   1.448   2.869
 3090TIP3    H2 9277   4.162   1.413   2.766
 3091TIP3   OH2 9278   4.252   2.452   2.494
 3091TIP3    H1 9279   4.325   2.514   2.484
 3091TIP3    H2 9280   4.286   2.385   2.554
 3092TIP3   OH2 9281   6.155   0.611   3.316
 3092TIP3    H1 9282   6.069   0.653   3.329
 3092TIP3    H2 9283   6.144   0.558   3.237
 3093TIP3   OH2 9284   3.219   5.635   2.126
 3093TIP3    H1 9285   3.145   5.603   2.178
 3093TIP3    H2 9286   3.296   5.613   2.178
 3094TIP3   OH2 9287   3.514   1.175   1.601
 3094TIP3    H1 9288   3.546   1.194   1.513
 3094TIP3    H2 9289   3.519   1.259   1.646
 3095TIP3   OH2 9290   2.088   1.464   1.139
 3095TIP3    H1 9291   2.010   1.507   1.174
 3095TIP3    H2 9292   2.144   1.450   1.215
 3096TIP3   OH2 9293   5.159   4.277   2.248
 3096TIP3    H1 9294   5.208   4.247   2.325
 3096TIP3    H2 9295   5.077   4.312   2.284
 3097TIP3   OH2 9296   4.311   1.039   2.849
 3097TIP3    H1 9297   4.355   1.119   2.877
 3097TIP3    H2 9298   4.301   1.048   2.754
 3098TIP3   OH2 9299   1.920   1.040   3.002
 3098TIP3    H1 9300   1.975   1.006   2.931
 3098TIP3    H2 9301   1.938   0.982   3.075
 3099TIP3   OH2 9302   1.456  -0.001   3.345
 3099TIP3    H1 9303   1.485   0.071   3.400
 3099TIP3    H2 9304   1.363  -0.010   3.364
 3100TIP3   OH2 9305   4.272   1.353   1.419
 3100TIP3    H1 9306   4.330   1.301   1.363
 3100TIP3    H2 9307   4.198   1.375   1.364
 3101TIP3   OH2 9308   0.145   2.018   0.933
 3101TIP3    H1 9309   0.090   1.946   0.902
 3101TIP3    H2 9310   0.118   2.093   0.880
 3102TIP3   OH2 9311   4.493   5.149   2.510
 3102TIP3    H1 9312   4.513   5.184   2.597
 3102TIP3    H2 9313   4.545   5.203   2.450
 3103TIP3   OH2 9314   1.045   5.933   2.968
 3103TIP3    H1 9315   1.048   5.862   2.904
 3103TIP3    H2 9316   0.980   5.993   2.933
 3104TIP3   OH2 9317   4.731   4.950   5.060
 3104TIP3    H1 9318   4.781   4.928   5.138
 3104TIP3    H2 9319   4.774   5.029   5.026
 3105TIP3   OH2 9320   6.293   5.658   5.111
 3105TIP3    H1 9321   6.352   5.732   5.127
 3105TIP3    H2 9322   6.298   5.606   5.191
 3106TIP3   OH2 9323   3.434   1.979   4.730
 3106TIP3    H1 9324   3.485   1.903   4.758
 3106TIP3    H2 9325   3.462   1.994   4.640
 3107TIP3   OH2 9326   5.167   1.243   1.778
 3107TIP3    H1 9327   5.157   1.325   1.826
 3107TIP3    H2 9328   5.195   1.180   1.844
 3108TIP3   OH2 9329   0.478   0.702   3.309
 3108TIP3    H1 9330   0.439   0.787   3.289
 3108TIP3    H2 9331   0.430   0.672   3.387
 3109TIP3   OH2 9332   6.086   2.982   1.761
 3109TIP3    H1 9333   6.066   3.076   1.765
 3109TIP3    H2 9334   6.182   2.979   1.763
 3110TIP3   OH2 9335   0.704   1.526   1.344
 3110TIP3    H1 9336   0.729   1.615   1.368
 3110TIP3    H2 9337   0.637   1.501   1.407
 3111TIP3   OH2 9338   3.573   4.579   1.178
 3111TIP3    H1 9339   3.490   4.626   1.171
 3111TIP3    H2 9340   3.630   4.622   1.114
 3112TIP3   OH2 9341   3.185   4.008   1.767
 3112TIP3    H1 9342   3.232   4.014   1.684
 3112TIP3    H2 9343   3.099   3.972   1.744
 3113TIP3   OH2 9344   1.658   2.445   1.896
 3113TIP3    H1 9345   1.569   2.416   1.912
 3113TIP3    H2 9346   1.690   2.475   1.981
 3114TIP3   OH2 9347   5.436   2.766   0.385
 3114TIP3    H1 9348   5.495   2.836   0.412
 3114TIP3    H2 9349   5.450   2.758   0.290
 3115TIP3   OH2 9350   0.389   4.734   1.253
 3115TIP3    H1 9351   0.429   4.724   1.167
 3115TIP3    H2 9352   0.457   4.774   1.307
 3116TIP3   OH2 9353   0.320   0.634   2.649
 3116TIP3    H1 9354   0.268   0.571   2.699
 3116TIP3    H2 9355   0.269   0.714   2.651
 3117TIP3   OH2 9356   3.389   3.066   3.324
 3117TIP3    H1 9357   3.368   2.993   3.382
 3117TIP3    H2 9358   3.478   3.090   3.347
 3118TIP3   OH2 9359   0.835   2.956   4.879
 3118TIP3    H1 9360   0.756   2.902   4.871
 3118TIP3    H2 9361   0.901   2.897   4.915
 3119TIP3   OH2 9362   1.855   0.271   3.156
 3119TIP3    H1 9363   1.779   0.329   3.158
 3119TIP3    H2 9364   1.929   0.330   3.142
 3120TIP3   OH2 9365   2.073   3.960   0.229
 3120TIP3    H1 9366   2.137   3.970   0.159
 3120TIP3    H2 9367   2.003   3.907   0.191
 3121TIP3   OH2 9368   3.399   5.325   3.765
 3121TIP3    H1 9369   3.419   5.366   3.850
 3121TIP3    H2 9370   3.463   5.254   3.757
 3122TIP3   OH2 9371   3.444   2.307   0.996
 3122TIP3    H1 9372   3.453   2.286   1.088
 3122TIP3    H2 9373   3.361   2.354   0.989
 3123TIP3   OH2 9374   4.208   4.216   4.633
 3123TIP3    H1 9375   4.165   4.197   4.716
 3123TIP3    H2 9376   4.301   4.201   4.649
 3124TIP3   OH2 9377   2.498   3.252   0.448
 3124TIP3    H1 9378   2.503   3.180   0.511
 3124TIP3    H2 9379   2.457   3.214   0.371
 3125TIP3   OH2 9380   6.306   1.283   2.416
 3125TIP3    H1 9381   6.253   1.205   2.431
 3125TIP3    H2 9382   6.243   1.352   2.395
 3126TIP3   OH2 9383   2.172   3.933   0.891
 3126TIP3    H1 9384   2.260   3.930   0.854
 3126TIP3    H2 9385   2.141   4.022   0.873
 3127TIP3   OH2 9386   2.413   4.488   1.202
 3127TIP3    H1 9387   2.457   4.426   1.144
 3127TIP3    H2 9388   2.336   4.516   1.153
 3128TIP3   OH2 9389   5.690   2.894   0.169
 3128TIP3    H1 9390   5.771   2.847   0.187
 3128TIP3    H2 9391   5.714   2.961   0.105
 3129TIP3   OH2 9392   4.116   2.876   0.854
 3129TIP3    H1 9393   4.158   2.940   0.912
 3129TIP3    H2 9394   4.180   2.861   0.785
 3130TIP3   OH2 9395   4.856   3.723   1.048
 3130TIP3    H1 9396   4.793   3.795   1.051
 3130TIP3    H2 9397   4.902   3.735   0.965
 3131TIP3   OH2 9398   2.124   3.913   2.096
 3131TIP3    H1 9399   2.102   3.820   2.088
 3131TIP3    H2 9400   2.040   3.956   2.113
 3132TIP3   OH2 9401   5.378   4.514   0.550
 3132TIP3    H1 9402   5.442   4.562   0.498
 3132TIP3    H2 9403   5.303   4.574   0.557
 3133TIP3   OH2 9404   2.740   5.224   3.364
 3133TIP3    H1 9405   2.666   5.163   3.374
 3133TIP3    H2 9406   2.769   5.211   3.273
 3134TIP3   OH2 9407   0.697   4.180   4.773
 3134TIP3    H1 9408   0.723   4.094   4.741
 3134TIP3    H2 9409   0.726   4.241   4.706
 3135TIP3   OH2 9410   2.126   5.020   5.105
 3135TIP3    H1 9411   2.150   4.954   5.040
 3135TIP3    H2 9412   2.063   4.975   5.162
 3136TIP3   OH2 9413   3.064   4.764   2.145
 3136TIP3    H1 9414   3.128   4.715   2.197
 3136TIP3    H2 9415   3.115   4.834   2.105
 3137TIP3   OH2 9416   5.026   1.920   1.165
 3137TIP3    H1 9417   5.007   1.907   1.072
 3137TIP3    H2 9418   4.962   1.865   1.211
 3138TIP3   OH2 9419   1.133   4.855   3.521
 3138TIP3    H1 9420   1.047   4.884   3.493
 3138TIP3    H2 9421   1.120   4.826   3.611
 3139TIP3   OH2 9422   5.335   5.042   4.699
 3139TIP3    H1 9423   5.322   5.137   4.699
 3139TIP3    H2 9424   5.415   5.029   4.649
 3140TIP3   OH2 9425   3.240   1.752   4.138
 3140TIP3    H1 9426   3.314   1.694   4.118
 3140TIP3    H2 9427   3.183   1.700   4.194
 3141TIP3   OH2 9428   6.246   5.774   3.921
 3141TIP3    H1 9429   6.212   5.803   4.005
 3141TIP3    H2 9430   6.277   5.685   3.937
 3142TIP3   OH2 9431   3.653   3.843   2.620
 3142TIP3    H1 9432   3.705   3.921   2.639
 3142TIP3    H2 9433   3.573   3.877   2.578
 3143TIP3   OH2 9434   0.425   3.351   0.435
 3143TIP3    H1 9435   0.462   3.436   0.460
 3143TIP3    H2 9436   0.333   3.370   0.416
 3144TIP3   OH2 9437   4.238   4.638   4.596
 3144TIP3    H1 9438   4.319   4.629   4.646
 3144TIP3    H2 9439   4.246   4.723   4.552
 3145TIP3   OH2 9440   1.418   3.992   0.047
 3145TIP3    H1 9441   1.476   4.059   0.082
 3145TIP3    H2 9442   1.411   4.013  -0.046
 3146TIP3   OH2 9443   0.060   1.212   3.828
 3146TIP3    H1 9444  -0.008   1.161   3.784
 3146TIP3    H2 9445   0.131   1.216   3.765
 3147TIP3   OH2 9446   5.650   1.462   0.052
 3147TIP3    H1 9447   5.667   1.368   0.052
 3147TIP3    H2 9448   5.567   1.471   0.097
 3148TIP3   OH2 9449   3.443   4.115   1.450
 3148TIP3    H1 9450   3.369   4.095   1.393
 3148TIP3    H2 9451   3.448   4.210   1.450
 3149TIP3   OH2 9452   2.906   1.016   0.614
 3149TIP3    H1 9453   2.816   1.044   0.598
 3149TIP3    H2 9454   2.918   1.027   0.708
 3150TIP3   OH2 9455   1.588   0.126   1.608
 3150TIP3    H1 9456   1.502   0.141   1.568
 3150TIP3    H2 9457   1.590   0.185   1.683
 3151TIP3   OH2 9458   5.952   4.657   1.528
 3151TIP3    H1 9459   5.994   4.581   1.487
 3151TIP3    H2 9460   6.009   4.731   1.507
 3152TIP3   OH2 9461   1.303   3.072   1.059
 3152TIP3    H1 9462   1.255   3.146   1.024
 3152TIP3    H2 9463   1.246   3.036   1.127
 3153TIP3   OH2 9464   5.862   2.272   4.597
 3153TIP3    H1 9465   5.924   2.263   4.670
 3153TIP3    H2 9466   5.914   2.308   4.526
 3154TIP3   OH2 9467   2.263   0.071   0.521
 3154TIP3    H1 9468   2.191   0.008   0.532
 3154TIP3    H2 9469   2.342   0.021   0.541
 3155TIP3   OH2 9470   2.865   1.538   0.725
 3155TIP3    H1 9471   2.914   1.481   0.665
 3155TIP3    H2 9472   2.923   1.612   0.741
 3156TIP3   OH2 9473   5.662   1.712   1.047
 3156TIP3    H1 9474   5.606   1.722   0.970
 3156TIP3    H2 9475   5.607   1.667   1.111
 3157TIP3   OH2 9476   0.512   3.329   4.454
 3157TIP3    H1 9477   0.480   3.386   4.524
 3157TIP3    H2 9478   0.461   3.355   4.377
 3158TIP3   OH2 9479   5.433   0.296   4.586
 3158TIP3    H1 9480   5.401   0.206   4.599
 3158TIP3    H2 9481   5.528   0.286   4.576
 3159TIP3   OH2 9482   5.006   5.074   5.138
 3159TIP3    H1 9483   5.101   5.081   5.141
 3159TIP3    H2 9484   4.983   5.097   5.048
 3160TIP3   OH2 9485   0.987   3.021   3.344
 3160TIP3    H1 9486   1.052   2.990   3.280
 3160TIP3    H2 9487   1.033   3.019   3.427
 3161TIP3   OH2 9488   3.896   1.632   0.053
 3161TIP3    H1 9489   3.973   1.668   0.097
 3161TIP3    H2 9490   3.824   1.688   0.082
 3162TIP3   OH2 9491   1.917   0.755   3.654
 3162TIP3    H1 9492   1.995   0.718   3.694
 3162TIP3    H2 9493   1.846   0.695   3.679
 3163TIP3   OH2 9494   2.042   2.608   1.533
 3163TIP3    H1 9495   2.041   2.561   1.450
 3163TIP3    H2 9496   1.949   2.619   1.555
 3164TIP3   OH2 9497   0.513   3.192   2.451
 3164TIP3    H1 9498   0.447   3.143   2.402
 3164TIP3    H2 9499   0.482   3.192   2.541
 3165TIP3   OH2 9500   6.092   0.006   0.873
 3165TIP3    H1 9501   6.144   0.049   0.941
 3165TIP3    H2 9502   6.075  -0.082   0.909
 3166TIP3   OH2 9503   5.266   1.707   1.301
 3166TIP3    H1 9504   5.248   1.712   1.207
 3166TIP3    H2 9505   5.184   1.731   1.342
 3167TIP3   OH2 9506   3.046   4.810   2.478
 3167TIP3    H1 9507   3.112   4.757   2.433
 3167TIP3    H2 9508   3.089   4.841   2.557
 3168TIP3   OH2 9509   6.097   0.842   3.548
 3168TIP3    H1 9510   6.027   0.822   3.610
 3168TIP3    H2 9511   6.055   0.831   3.462
 3169TIP3   OH2 9512   1.611   2.101  -0.002
 3169TIP3    H1 9513   1.660   2.056   0.068
 3169TIP3    H2 9514   1.635   2.053  -0.082
 3170TIP3   OH2 9515   2.623   5.704   1.743
 3170TIP3    H1 9516   2.598   5.613   1.757
 3170TIP3    H2 9517   2.583   5.752   1.816
 3171TIP3   OH2 9518   1.388   2.650   1.949
 3171TIP3    H1 9519   1.458   2.708   1.977
 3171TIP3    H2 9520   1.420   2.562   1.968
 3172TIP3   OH2 9521   2.887   2.328   4.607
 3172TIP3    H1 9522   2.827   2.253   4.597
 3172TIP3    H2 9523   2.891   2.366   4.520
 3173TIP3   OH2 9524   5.959   5.901   0.777
 3173TIP3    H1 9525   5.874   5.929   0.810
 3173TIP3    H2 9526   5.972   5.814   0.815
 3174TIP3   OH2 9527   5.961   4.834   4.326
 3174TIP3    H1 9528   6.039   4.858   4.375
 3174TIP3    H2 9529   5.933   4.915   4.284
 3175TIP3   OH2 9530   3.712   2.248   5.109
 3175TIP3    H1 9531   3.717   2.286   5.021
 3175TIP3    H2 9532   3.731   2.155   5.095
 3176TIP3   OH2 9533   6.032   3.673   0.379
 3176TIP3    H1 9534   5.946   3.683   0.338
 3176TIP3    H2 9535   6.019   3.606   0.445
 3177TIP3   OH2 9536   2.903   4.865   1.841
 3177TIP3    H1 9537   2.903   4.950   1.796
 3177TIP3    H2 9538   2.984   4.823   1.813
 3178TIP3   OH2 9539   5.782   0.786   1.251
 3178TIP3    H1 9540   5.757   0.706   1.205
 3178TIP3    H2 9541   5.871   0.770   1.282
 3179TIP3   OH2 9542   3.245   2.479   0.989
 3179TIP3    H1 9543   3.263   2.573   0.999
 3179TIP3    H2 9544   3.150   2.475   0.975
 3180TIP3   OH2 9545   1.738   5.932   4.712
 3180TIP3    H1 9546   1.679   5.898   4.645
 3180TIP3    H2 9547   1.741   5.864   4.779
 3181TIP3   OH2 9548   2.227   4.698   3.501
 3181TIP3    H1 9549   2.197   4.727   3.415
 3181TIP3    H2 9550   2.173   4.747   3.563
 3182TIP3   OH2 9551   5.994   3.049   2.812
 3182TIP3    H1 9552   6.035   3.004   2.886
 3182TIP3    H2 9553   5.921   3.097   2.851
 3183TIP3   OH2 9554   1.708   0.587   3.725
 3183TIP3    H1 9555   1.641   0.548   3.669
 3183TIP3    H2 9556   1.712   0.530   3.802
 3184TIP3   OH2 9557   1.312   3.503   5.060
 3184TIP3    H1 9558   1.251   3.469   4.995
 3184TIP3    H2 9559   1.318   3.434   5.126
 3185TIP3   OH2 9560   1.224   1.123   3.126
 3185TIP3    H1 9561   1.302   1.157   3.083
 3185TIP3    H2 9562   1.151   1.150   3.070
 3186TIP3   OH2 9563   6.320   3.529  -0.013
 3186TIP3    H1 9564   6.349   3.560   0.072
 3186TIP3    H2 9565   6.236   3.574  -0.027
 3187TIP3   OH2 9566   6.279   0.271   3.820
 3187TIP3    H1 9567   6.339   0.314   3.881
 3187TIP3    H2 9568   6.199   0.324   3.824
 3188TIP3   OH2 9569   0.899   1.980   3.320
 3188TIP3    H1 9570   0.822   2.037   3.317
 3188TIP3    H2 9571   0.968   2.036   3.356
 3189TIP3   OH2 9572   1.802   5.710   2.162
 3189TIP3    H1 9573   1.796   5.616   2.177
 3189TIP3    H2 9574   1.855   5.718   2.082
 3190TIP3   OH2 9575   1.485   2.033   1.791
 3190TIP3    H1 9576   1.489   1.990   1.877
 3190TIP3    H2 9577   1.567   2.009   1.748
 3191TIP3   OH2 9578   5.071   2.590   4.564
 3191TIP3    H1 9579   5.162   2.582   4.534
 3191TIP3    H2 9580   5.054   2.508   4.611
 3192TIP3   OH2 9581   5.541   2.477   2.633
 3192TIP3    H1 9582   5.500   2.563   2.620
 3192TIP3    H2 9583   5.621   2.496   2.681
 3193TIP3   OH2 9584   1.998   3.134   4.473
 3193TIP3    H1 9585   2.086   3.158   4.503
 3193TIP3    H2 9586   1.939   3.174   4.536
 3194TIP3   OH2 9587   0.102   1.095   3.381
 3194TIP3    H1 9588   0.008   1.079   3.388
 3194TIP3    H2 9589   0.139   1.052   3.458
 3195TIP3   OH2 9590   0.294   4.497   2.376
 3195TIP3    H1 9591   0.203   4.474   2.357
 3195TIP3    H2 9592   0.312   4.458   2.461
 3196TIP3   OH2 9593   2.753   5.592   3.540
 3196TIP3    H1 9594   2.677   5.579   3.596
 3196TIP3    H2 9595   2.807   5.656   3.587
 3197TIP3   OH2 9596   1.294   3.194   3.220
 3197TIP3    H1 9597   1.227   3.130   3.195
 3197TIP3    H2 9598   1.368   3.174   3.162
 3198TIP3   OH2 9599   3.053   2.422   5.064
 3198TIP3    H1 9600   2.997   2.417   4.987
 3198TIP3    H2 9601   2.997   2.394   5.136
 3199TIP3   OH2 9602   2.680   4.869   0.879
 3199TIP3    H1 9603   2.638   4.950   0.851
 3199TIP3    H2 9604   2.686   4.876   0.975
 3200TIP3   OH2 9605   4.571   2.707   3.870
 3200TIP3    H1 9606   4.559   2.761   3.948
 3200TIP3    H2 9607   4.623   2.632   3.900
 3201TIP3   OH2 9608   1.684   0.279   1.373
 3201TIP3    H1 9609   1.621   0.351   1.365
 3201TIP3    H2 9610   1.658   0.233   1.453
 3202TIP3   OH2 9611   2.839   2.753   1.478
 3202TIP3    H1 9612   2.861   2.660   1.483
 3202TIP3    H2 9613   2.796   2.763   1.393
 3203TIP3   OH2 9614   1.007   1.385   3.255
 3203TIP3    H1 9615   0.921   1.427   3.262
 3203TIP3    H2 9616   0.996   1.300   3.298
 3204TIP3   OH2 9617   4.323   3.599   4.995
 3204TIP3    H1 9618   4.399   3.655   4.977
 3204TIP3    H2 9619   4.360   3.521   5.036
 3205TIP3   OH2 9620   1.938   5.086   1.651
 3205TIP3    H1 9621   1.848   5.101   1.621
 3205TIP3    H2 9622   1.959   5.163   1.703
 3206TIP3   OH2 9623   4.270   4.066   1.116
 3206TIP3    H1 9624   4.297   4.157   1.102
 3206TIP3    H2 9625   4.177   4.072   1.139
 3207TIP3   OH2 9626   5.984   2.866   1.210
 3207TIP3    H1 9627   5.979   2.772   1.193
 3207TIP3    H2 9628   5.911   2.903   1.161
 3208TIP3   OH2 9629   4.479   2.498   2.775
 3208TIP3    H1 9630   4.450   2.587   2.759
 3208TIP3    H2 9631   4.495   2.462   2.688
 3209TIP3   OH2 9632   5.000   4.077   0.182
 3209TIP3    H1 9633   5.014   4.020   0.106
 3209TIP3    H2 9634   4.955   4.153   0.146
 3210TIP3   OH2 9635   1.190   0.016   3.368
 3210TIP3    H1 9636   1.137  -0.064   3.373
 3210TIP3    H2 9637   1.153   0.073   3.435
 3211TIP3   OH2 9638   0.463   5.561   0.987
 3211TIP3    H1 9639   0.452   5.655   0.974
 3211TIP3    H2 9640   0.409   5.541   1.064
 3212TIP3   OH2 9641   5.652   3.906   3.108
 3212TIP3    H1 9642   5.684   3.862   3.186
 3212TIP3    H2 9643   5.559   3.886   3.105
 3213TIP3   OH2 9644   2.119   4.271   1.839
 3213TIP3    H1 9645   2.186   4.336   1.818
 3213TIP3    H2 9646   2.040   4.303   1.794
 3214TIP3   OH2 9647   3.903   0.797   0.060
 3214TIP3    H1 9648   3.823   0.819   0.108
 3214TIP3    H2 9649   3.874   0.740  -0.011
 3215TIP3   OH2 9650   0.593   3.844   0.124
 3215TIP3    H1 9651   0.651   3.804   0.189
 3215TIP3    H2 9652   0.577   3.774   0.060
 3216TIP3   OH2 9653   1.780   1.076   4.608
 3216TIP3    H1 9654   1.763   0.991   4.567
 3216TIP3    H2 9655   1.771   1.059   4.702
 3217TIP3   OH2 9656   3.936   5.331   4.371
 3217TIP3    H1 9657   3.935   5.416   4.414
 3217TIP3    H2 9658   3.846   5.319   4.341
 3218TIP3   OH2 9659   1.497   2.915   0.611
 3218TIP3    H1 9660   1.449   2.846   0.565
 3218TIP3    H2 9661   1.454   2.921   0.697
 3219TIP3   OH2 9662   4.182   1.535   4.942
 3219TIP3    H1 9663   4.199   1.505   4.853
 3219TIP3    H2 9664   4.195   1.629   4.939
 3220TIP3   OH2 9665   1.162   2.467   1.609
 3220TIP3    H1 9666   1.175   2.372   1.613
 3220TIP3    H2 9667   1.235   2.498   1.555
 3221TIP3   OH2 9668   4.268   5.308   2.065
 3221TIP3    H1 9669   4.348   5.357   2.082
 3221TIP3    H2 9670   4.202   5.347   2.122
 3222TIP3   OH2 9671   3.768   2.899   0.053
 3222TIP3    H1 9672   3.829   2.872  -0.015
 3222TIP3    H2 9673   3.812   2.973   0.096
 3223TIP3   OH2 9674   5.993   3.902   2.877
 3223TIP3    H1 9675   5.978   3.843   2.951
 3223TIP3    H2 9676   5.973   3.989   2.912
 3224TIP3   OH2 9677   2.649   0.301   3.265
 3224TIP3    H1 9678   2.702   0.364   3.314
 3224TIP3    H2 9679   2.690   0.216   3.283
 3225TIP3   OH2 9680   2.547   2.813   4.649
 3225TIP3    H1 9681   2.575   2.869   4.576
 3225TIP3    H2 9682   2.601   2.840   4.723
 3226TIP3   OH2 9683   3.143   1.943   2.140
 3226TIP3    H1 9684   3.052   1.914   2.131
 3226TIP3    H2 9685   3.190   1.867   2.173
 3227TIP3   OH2 9686   0.205   4.620   4.226
 3227TIP3    H1 9687   0.117   4.631   4.189
 3227TIP3    H2 9688   0.263   4.657   4.159
 3228TIP3   OH2 9689   5.418   0.338   1.108
 3228TIP3    H1 9690   5.347   0.340   1.044
 3228TIP3    H2 9691   5.473   0.264   1.081
 3229TIP3   OH2 9692   0.971   5.262   2.426
 3229TIP3    H1 9693   1.064   5.268   2.403
 3229TIP3    H2 9694   0.970   5.254   2.521
 3230TIP3   OH2 9695   1.507   2.240   0.345
 3230TIP3    H1 9696   1.471   2.172   0.401
 3230TIP3    H2 9697   1.488   2.322   0.392
 3231TIP3   OH2 9698   0.224   2.284   3.015
 3231TIP3    H1 9699   0.166   2.232   2.958
 3231TIP3    H2 9700   0.306   2.291   2.966
 3232TIP3   OH2 9701   2.831   1.367   4.014
 3232TIP3    H1 9702   2.806   1.336   4.101
 3232TIP3    H2 9703   2.754   1.348   3.960
 3233TIP3   OH2 9704   1.263   3.427   0.778
 3233TIP3    H1 9705   1.318   3.427   0.856
 3233TIP3    H2 9706   1.176   3.452   0.810
 3234TIP3   OH2 9707   6.279   2.602   1.901
 3234TIP3    H1 9708   6.205   2.595   1.840
 3234TIP3    H2 9709   6.300   2.511   1.923
 3235TIP3   OH2 9710   6.210   0.639   3.712
 3235TIP3    H1 9711   6.178   0.684   3.634
 3235TIP3    H2 9712   6.264   0.568   3.678
 3236TIP3   OH2 9713   3.027   2.613   2.610
 3236TIP3    H1 9714   3.119   2.634   2.597
 3236TIP3    H2 9715   2.984   2.640   2.529
 3237TIP3   OH2 9716   4.845   4.434   2.130
 3237TIP3    H1 9717   4.866   4.397   2.216
 3237TIP3    H2 9718   4.862   4.362   2.068
 3238TIP3   OH2 9719   4.658   1.491   2.177
 3238TIP3    H1 9720   4.667   1.399   2.151
 3238TIP3    H2 9721   4.657   1.539   2.094
 3239TIP3   OH2 9722   5.084   0.691   4.792
 3239TIP3    H1 9723   5.169   0.693   4.834
 3239TIP3    H2 9724   5.045   0.608   4.821
 3240TIP3   OH2 9725   2.547   3.799   2.562
 3240TIP3    H1 9726   2.475   3.824   2.504
 3240TIP3    H2 9727   2.504   3.772   2.643
 3241TIP3   OH2 9728   5.517   4.705   0.394
 3241TIP3    H1 9729   5.465   4.784   0.378
 3241TIP3    H2 9730   5.507   4.652   0.315
 3242TIP3   OH2 9731   6.180   0.111   2.411
 3242TIP3    H1 9732   6.206   0.062   2.333
 3242TIP3    H2 9733   6.167   0.201   2.379
 3243TIP3   OH2 9734   5.143   1.723   4.176
 3243TIP3    H1 9735   5.057   1.728   4.135
 3243TIP3    H2 9736   5.175   1.636   4.155
 3244TIP3   OH2 9737   0.511   3.191   0.207
 3244TIP3    H1 9738   0.547   3.245   0.277
 3244TIP3    H2 9739   0.426   3.161   0.241
 3245TIP3   OH2 9740   0.723   1.463   3.459
 3245TIP3    H1 9741   0.723   1.558   3.460
 3245TIP3    H2 9742   0.789   1.438   3.524
 3246TIP3   OH2 9743   4.183   2.412   1.410
 3246TIP3    H1 9744   4.168   2.427   1.316
 3246TIP3    H2 9745   4.275   2.385   1.415
 3247TIP3   OH2 9746   6.269   0.938   4.991
 3247TIP3    H1 9747   6.215   0.885   4.932
 3247TIP3    H2 9748   6.254   0.900   5.078
 3248TIP3   OH2 9749   3.976   0.841   4.377
 3248TIP3    H1 9750   3.887   0.848   4.345
 3248TIP3    H2 9751   3.977   0.760   4.428
 3249TIP3   OH2 9752   2.732   1.498   3.427
 3249TIP3    H1 9753   2.817   1.506   3.383
 3249TIP3    H2 9754   2.669   1.492   3.355
 3250TIP3   OH2 9755   2.999   2.381   0.809
 3250TIP3    H1 9756   3.037   2.325   0.876
 3250TIP3    H2 9757   2.983   2.322   0.735
 3251TIP3   OH2 9758   5.974   4.935   2.862
 3251TIP3    H1 9759   5.922   4.865   2.824
 3251TIP3    H2 9760   6.027   4.891   2.930
 3252TIP3   OH2 9761   5.743   1.426   0.961
 3252TIP3    H1 9762   5.682   1.442   1.032
 3252TIP3    H2 9763   5.733   1.332   0.941
 3253TIP3   OH2 9764   3.096   0.400   0.715
 3253TIP3    H1 9765   3.092   0.327   0.653
 3253TIP3    H2 9766   3.012   0.445   0.703
 3254TIP3   OH2 9767   3.692   2.750   0.697
 3254TIP3    H1 9768   3.677   2.718   0.608
 3254TIP3    H2 9769   3.781   2.722   0.718
 3255TIP3   OH2 9770   3.347   2.299   5.081
 3255TIP3    H1 9771   3.352   2.297   4.986
 3255TIP3    H2 9772   3.258   2.331   5.099
 3256TIP3   OH2 9773   0.731   4.106   2.134
 3256TIP3    H1 9774   0.789   4.031   2.130
 3256TIP3    H2 9775   0.761   4.164   2.063
 3257TIP3   OH2 9776   4.346   4.029   4.174
 3257TIP3    H1 9777   4.351   4.120   4.202
 3257TIP3    H2 9778   4.351   3.978   4.255
 3258TIP3   OH2 9779   2.289   1.162   1.867
 3258TIP3    H1 9780   2.232   1.164   1.944
 3258TIP3    H2 9781   2.355   1.229   1.883
 3259TIP3   OH2 9782   2.571   3.603   3.992
 3259TIP3    H1 9783   2.516   3.544   3.940
 3259TIP3    H2 9784   2.550   3.582   4.083
 3260TIP3   OH2 9785   4.599   5.606   4.539
 3260TIP3    H1 9786   4.510   5.571   4.545
 3260TIP3    H2 9787   4.625   5.622   4.630
 3261TIP3   OH2 9788   5.425   3.413   3.016
 3261TIP3    H1 9789   5.457   3.323   3.014
 3261TIP3    H2 9790   5.489   3.463   2.964
 3262TIP3   OH2 9791   1.174   4.693   0.041
 3262TIP3    H1 9792   1.115   4.618   0.047
 3262TIP3    H2 9793   1.118   4.770   0.055
 3263TIP3   OH2 9794   2.782   4.697   3.571
 3263TIP3    H1 9795   2.797   4.701   3.476
 3263TIP3    H2 9796   2.687   4.691   3.580
 3264TIP3   OH2 9797   2.426   5.762   4.789
 3264TIP3    H1 9798   2.501   5.752   4.848
 3264TIP3    H2 9799   2.399   5.673   4.768
 3265TIP3   OH2 9800   4.313   3.467   3.408
 3265TIP3    H1 9801   4.372   3.525   3.456
 3265TIP3    H2 9802   4.230   3.515   3.405
 3266TIP3   OH2 9803   2.155   1.055   0.066
 3266TIP3    H1 9804   2.218   0.996   0.025
 3266TIP3    H2 9805   2.151   1.131   0.008
 3267TIP3   OH2 9806   1.023   3.536   4.954
 3267TIP3    H1 9807   0.956   3.533   4.887
 3267TIP3    H2 9808   0.987   3.593   5.022
 3268TIP3   OH2 9809   4.520   4.492   4.049
 3268TIP3    H1 9810   4.600   4.498   3.998
 3268TIP3    H2 9811   4.538   4.422   4.113
 3269TIP3   OH2 9812   0.221   5.960   4.703
 3269TIP3    H1 9813   0.250   5.922   4.620
 3269TIP3    H2 9814   0.298   5.959   4.759
 3270TIP3   OH2 9815   1.428   0.806   0.041
 3270TIP3    H1 9816   1.332   0.804   0.032
 3270TIP3    H2 9817   1.452   0.716   0.060
 3271TIP3   OH2 9818   4.641   1.017   4.979
 3271TIP3    H1 9819   4.727   0.979   4.963
 3271TIP3    H2 9820   4.581   0.965   4.926
 3272TIP3   OH2 9821   3.493   4.601   2.908
 3272TIP3    H1 9822   3.476   4.568   2.996
 3272TIP3    H2 9823   3.564   4.664   2.920
 3273TIP3   OH2 9824   2.534   3.438   0.639
 3273TIP3    H1 9825   2.532   3.365   0.577
 3273TIP3    H2 9826   2.530   3.516   0.585
 3274TIP3   OH2 9827   0.080   4.727   1.032
 3274TIP3    H1 9828   0.153   4.672   1.006
 3274TIP3    H2 9829   0.059   4.778   0.954
 3275TIP3   OH2 9830   6.104   5.585   3.708
 3275TIP3    H1 9831   6.083   5.636   3.630
 3275TIP3    H2 9832   6.124   5.652   3.774
 3276TIP3   OH2 9833   4.841   2.806   4.749
 3276TIP3    H1 9834   4.811   2.725   4.706
 3276TIP3    H2 9835   4.780   2.818   4.821
 3277TIP3   OH2 9836   4.601   3.002   5.171
 3277TIP3    H1 9837   4.553   3.061   5.229
 3277TIP3    H2 9838   4.692   3.030   5.179
 3278TIP3   OH2 9839   4.942   1.541   2.203
 3278TIP3    H1 9840   4.857   1.527   2.162
 3278TIP3    H2 9841   4.960   1.634   2.192
 3279TIP3   OH2 9842   3.852   2.652   2.940
 3279TIP3    H1 9843   3.912   2.726   2.951
 3279TIP3    H2 9844   3.796   2.677   2.866
 3280TIP3   OH2 9845   3.432   2.997   0.137
 3280TIP3    H1 9846   3.458   3.033   0.222
 3280TIP3    H2 9847   3.469   2.909   0.135
 3281TIP3   OH2 9848   2.278   2.504   4.751
 3281TIP3    H1 9849   2.218   2.450   4.701
 3281TIP3    H2 9850   2.365   2.471   4.728
 3282TIP3   OH2 9851   4.278   4.447   3.483
 3282TIP3    H1 9852   4.346   4.389   3.519
 3282TIP3    H2 9853   4.260   4.509   3.553
 3283TIP3   OH2 9854   6.028   2.532  -0.022
 3283TIP3    H1 9855   5.989   2.535   0.065
 3283TIP3    H2 9856   6.121   2.513  -0.006
 3284TIP3   OH2 9857   2.871   0.280   3.623
 3284TIP3    H1 9858   2.883   0.278   3.528
 3284TIP3    H2 9859   2.945   0.229   3.658
 3285TIP3   OH2 9860   4.676   2.983   2.991
 3285TIP3    H1 9861   4.650   2.921   2.923
 3285TIP3    H2 9862   4.756   2.947   3.028
 3286TIP3   OH2 9863   5.566   5.719   1.146
 3286TIP3    H1 9864   5.635   5.654   1.155
 3286TIP3    H2 9865   5.501   5.677   1.090
 3287TIP3   OH2 9866   2.841   1.478   1.836
 3287TIP3    H1 9867   2.782   1.404   1.817
 3287TIP3    H2 9868   2.806   1.515   1.918
 3288TIP3   OH2 9869   0.416   0.152   3.033
 3288TIP3    H1 9870   0.444   0.216   2.967
 3288TIP3    H2 9871   0.322   0.166   3.042
 3289TIP3   OH2 9872   4.035   1.970   2.791
 3289TIP3    H1 9873   4.021   2.043   2.731
 3289TIP3    H2 9874   4.023   1.892   2.737
 3290TIP3   OH2 9875   0.055   1.590   0.768
 3290TIP3    H1 9876   0.032   1.683   0.765
 3290TIP3    H2 9877  -0.002   1.554   0.836
 3291TIP3   OH2 9878   0.479   5.030   4.258
 3291TIP3    H1 9879   0.532   5.028   4.338
 3291TIP3    H2 9880   0.508   5.109   4.212
 3292TIP3   OH2 9881   1.462   4.475   3.987
 3292TIP3    H1 9882   1.545   4.479   4.035
 3292TIP3    H2 9883   1.395   4.468   4.056
 3293TIP3   OH2 9884   5.896   0.365   4.230
 3293TIP3    H1 9885   5.971   0.334   4.180
 3293TIP3    H2 9886   5.882   0.297   4.297
 3294TIP3   OH2 9887   3.952   0.801   3.727
 3294TIP3    H1 9888   3.930   0.812   3.820
 3294TIP3    H2 9889   3.928   0.710   3.707
 3295TIP3   OH2 9890   2.104   5.730   4.127
 3295TIP3    H1 9891   2.164   5.760   4.195
 3295TIP3    H2 9892   2.037   5.798   4.124
 3296TIP3   OH2 9893   3.359   3.537   4.573
 3296TIP3    H1 9894   3.420   3.507   4.640
 3296TIP3    H2 9895   3.406   3.607   4.527
 3297TIP3   OH2 9896   0.049   3.468   1.357
 3297TIP3    H1 9897  -0.024   3.411   1.379
 3297TIP3    H2 9898   0.085   3.431   1.276
 3298TIP3   OH2 9899   0.980   4.663   0.323
 3298TIP3    H1 9900   1.066   4.626   0.343
 3298TIP3    H2 9901   0.934   4.595   0.274
 3299TIP3   OH2 9902   4.777   4.590   5.197
 3299TIP3    H1 9903   4.704   4.651   5.191
 3299TIP3    H2 9904   4.738   4.509   5.230
 3300TIP3   OH2 9905   2.400   1.099   4.526
 3300TIP3    H1 9906   2.348   1.021   4.513
 3300TIP3    H2 9907   2.352   1.150   4.592
 3301TIP3   OH2 9908   2.065   1.485   2.936
 3301TIP3    H1 9909   1.984   1.440   2.910
 3301TIP3    H2 9910   2.049   1.577   2.914
 3302TIP3   OH2 9911   3.675   1.294   0.222
 3302TIP3    H1 9912   3.684   1.211   0.268
 3302TIP3    H2 9913   3.703   1.360   0.285
 3303TIP3   OH2 9914   4.934   0.734   4.548
 3303TIP3    H1 9915   4.920   0.660   4.488
 3303TIP3    H2 9916   4.959   0.693   4.631
 3304TIP3   OH2 9917   1.696   2.560   0.249
 3304TIP3    H1 9918   1.708   2.630   0.186
 3304TIP3    H2 9919   1.665   2.486   0.198
 3305TIP3   OH2 9920   5.969   2.601   5.012
 3305TIP3    H1 9921   5.937   2.601   4.922
 3305TIP3    H2 9922   5.937   2.683   5.049
 3306TIP3   OH2 9923   4.018   2.538   2.662
 3306TIP3    H1 9924   4.104   2.508   2.634
 3306TIP3    H2 9925   4.021   2.633   2.650
 3307TIP3   OH2 9926   5.310   4.879   3.600
 3307TIP3    H1 9927   5.399   4.870   3.633
 3307TIP3    H2 9928   5.300   4.807   3.538
 3308TIP3   OH2 9929   4.900   5.252   0.336
 3308TIP3    H1 9930   4.806   5.239   0.321
 3308TIP3    H2 9931   4.920   5.194   0.410
 3309TIP3   OH2 9932  -0.007   2.345   1.848
 3309TIP3    H1 9933   0.085   2.319   1.836
 3309TIP3    H2 9934  -0.046   2.334   1.762
 3310TIP3   OH2 9935   0.399   1.383   4.668
 3310TIP3    H1 9936   0.406   1.338   4.753
 3310TIP3    H2 9937   0.444   1.467   4.682
 3311TIP3   OH2 9938   0.781   1.130   0.705
 3311TIP3    H1 9939   0.782   1.034   0.701
 3311TIP3    H2 9940   0.805   1.151   0.795
 3312TIP3   OH2 9941   0.045   2.565   2.901
 3312TIP3    H1 9942   0.093   2.606   2.973
 3312TIP3    H2 9943   0.113   2.523   2.848
 3313TIP3   OH2 9944   3.990   1.724   2.692
 3313TIP3    H1 9945   3.896   1.707   2.689
 3313TIP3    H2 9946   4.028   1.647   2.733
 3314TIP3   OH2 9947   1.683   1.743   4.633
 3314TIP3    H1 9948   1.617   1.679   4.607
 3314TIP3    H2 9949   1.634   1.808   4.684
 3315TIP3   OH2 9950   4.413   2.674   4.180
 3315TIP3    H1 9951   4.437   2.584   4.160
 3315TIP3    H2 9952   4.495   2.715   4.207
 3316TIP3   OH2 9953   3.927   5.682   1.028
 3316TIP3    H1 9954   3.979   5.682   1.108
 3316TIP3    H2 9955   3.966   5.613   0.974
 3317TIP3   OH2 9956   2.237   4.283   2.903
 3317TIP3    H1 9957   2.186   4.252   2.828
 3317TIP3    H2 9958   2.282   4.361   2.871
 3318TIP3   OH2 9959   2.094   1.369   3.392
 3318TIP3    H1 9960   2.057   1.287   3.357
 3318TIP3    H2 9961   2.112   1.422   3.314
 3319TIP3   OH2 9962   2.414   4.402   3.291
 3319TIP3    H1 9963   2.407   4.323   3.238
 3319TIP3    H2 9964   2.498   4.440   3.267
 3320TIP3   OH2 9965   5.750   4.348   2.513
 3320TIP3    H1 9966   5.721   4.322   2.425
 3320TIP3    H2 9967   5.670   4.374   2.557
 3321TIP3   OH2 9968   4.271   3.512   2.627
 3321TIP3    H1 9969   4.317   3.434   2.596
 3321TIP3    H2 9970   4.240   3.488   2.714
 3322TIP3   OH2 9971   2.205   4.409   3.573
 3322TIP3    H1 9972   2.171   4.489   3.534
 3322TIP3    H2 9973   2.285   4.390   3.524
 3323TIP3   OH2 9974   1.834   4.291   2.140
 3323TIP3    H1 9975   1.787   4.336   2.211
 3323TIP3    H2 9976   1.871   4.362   2.087
 3324TIP3   OH2 9977   1.909   5.975   3.793
 3324TIP3    H1 9978   1.971   5.902   3.786
 3324TIP3    H2 9979   1.909   6.014   3.706
 3325TIP3   OH2 9980   3.099   3.231   3.773
 3325TIP3    H1 9981   3.008   3.254   3.752
 3325TIP3    H2 9982   3.093   3.143   3.811
 3326TIP3   OH2 9983   6.135   1.706   5.124
 3326TIP3    H1 9984   6.074   1.779   5.129
 3326TIP3    H2 9985   6.104   1.644   5.189
 3327TIP3   OH2 9986   0.433   3.530   0.052
 3327TIP3    H1 9987   0.367   3.463   0.033
 3327TIP3    H2 9988   0.391   3.613   0.027
 3328TIP3   OH2 9989   5.640   4.754   2.498
 3328TIP3    H1 9990   5.609   4.672   2.536
 3328TIP3    H2 9991   5.588   4.822   2.542
 3329TIP3   OH2 9992   3.782   3.492   3.278
 3329TIP3    H1 9993   3.854   3.444   3.320
 3329TIP3    H2 9994   3.738   3.537   3.350
 3330TIP3   OH2 9995   4.095   2.999   1.489
 3330TIP3    H1 9996   4.023   3.061   1.495
 3330TIP3    H2 9997   4.068   2.925   1.543
 3331TIP3   OH2 9998   1.353   3.358   2.405
 3331TIP3    H1 9999   1.353   3.262   2.397
 3331TIP3    H210000   1.385   3.389   2.320
 3332TIP3   OH210001   5.258   0.041   0.396
 3332TIP3    H110002   5.176   0.023   0.350
 3332TIP3    H210003   5.284   0.128   0.366
 3333TIP3   OH210004   1.808   4.882   2.109
 3333TIP3    H110005   1.900   4.867   2.134
 3333TIP3    H210006   1.775   4.942   2.176
 3334TIP3   OH210007   1.473   3.976   1.787
 3334TIP3    H110008   1.416   4.041   1.744
 3334TIP3    H210009   1.482   4.008   1.877
 3335TIP3   OH210010   4.307   3.181   2.517
 3335TIP3    H110011   4.365   3.105   2.529
 3335TIP3    H210012   4.361   3.245   2.471
 3336TIP3   OH210013   1.385   5.225   3.018
 3336TIP3    H110014   1.317   5.253   2.957
 3336TIP3    H210015   1.467   5.250   2.975
 3337TIP3   OH210016   4.358   2.402   4.556
 3337TIP3    H110017   4.309   2.368   4.481
 3337TIP3    H210018   4.430   2.452   4.518
 3338TIP3   OH210019   2.028   2.604   2.980
 3338TIP3    H110020   2.109   2.615   3.031
 3338TIP3    H210021   1.971   2.552   3.037
 3339TIP3   OH210022   0.379   0.079   1.845
 3339TIP3    H110023   0.453   0.032   1.883
 3339TIP3    H210024   0.398   0.081   1.751
 3340TIP3   OH210025   0.050   5.613   0.078
 3340TIP3    H110026   0.010   5.606   0.165
 3340TIP3    H210027   0.134   5.569   0.087
 3341TIP3   OH210028   2.021   4.618   0.299
 3341TIP3    H110029   2.111   4.648   0.306
 3341TIP3    H210030   2.019   4.566   0.218
 3342TIP3   OH210031   4.744   2.976   3.648
 3342TIP3    H110032   4.815   2.974   3.583
 3342TIP3    H210033   4.664   2.979   3.596
 3343TIP3   OH210034   2.700   1.069   0.969
 3343TIP3    H110035   2.619   1.024   0.993
 3343TIP3    H210036   2.672   1.158   0.948
 3344TIP3   OH210037   4.688   3.142   2.694
 3344TIP3    H110038   4.625   3.081   2.656
 3344TIP3    H210039   4.721   3.193   2.620
 3345TIP3   OH210040   0.670   5.237   3.523
 3345TIP3    H110041   0.632   5.150   3.513
 3345TIP3    H210042   0.631   5.271   3.603
 3346TIP3   OH210043   1.643   0.908   2.041
 3346TIP3    H110044   1.664   0.819   2.011
 3346TIP3    H210045   1.551   0.904   2.064
 3347TIP3   OH210046   0.754   0.348   2.986
 3347TIP3    H110047   0.659   0.344   2.974
 3347TIP3    H210048   0.789   0.349   2.897
 3348TIP3   OH210049   5.115   4.598   2.146
 3348TIP3    H110050   5.070   4.565   2.223
 3348TIP3    H210051   5.185   4.535   2.129
 3349TIP3   OH210052   5.546   0.737   0.978
 3349TIP3    H110053   5.457   0.702   0.974
 3349TIP3    H210054   5.601   0.662   1.000
 3350TIP3   OH210055   2.818   5.226   0.257
 3350TIP3    H110056   2.748   5.287   0.235
 3350TIP3    H210057   2.896   5.263   0.215
 3351TIP3   OH210058   2.167   2.582   0.758
 3351TIP3    H110059   2.213   2.557   0.678
 3351TIP3    H210060   2.237   2.601   0.821
 3352TIP3   OH210061   2.335   2.371   3.747
 3352TIP3    H110062   2.245   2.399   3.727
 3352TIP3    H210063   2.334   2.355   3.842
 3353TIP3   OH210064   0.628   3.740   2.241
 3353TIP3    H110065   0.696   3.752   2.175
 3353TIP3    H210066   0.587   3.657   2.219
 3354TIP3   OH210067   0.781   1.944   2.994
 3354TIP3    H110068   0.714   1.991   3.044
 3354TIP3    H210069   0.852   2.008   2.984
 3355TIP3   OH210070   1.413   5.055   1.483
 3355TIP3    H110071   1.409   4.991   1.411
 3355TIP3    H210072   1.338   5.034   1.538
 3356TIP3   OH210073   2.750   5.446   2.672
 3356TIP3    H110074   2.729   5.520   2.728
 3356TIP3    H210075   2.726   5.369   2.723
 3357TIP3   OH210076   5.523   4.649   4.582
 3357TIP3    H110077   5.466   4.672   4.655
 3357TIP3    H210078   5.515   4.554   4.575
 3358TIP3   OH210079   1.370   4.689   3.535
 3358TIP3    H110080   1.284   4.727   3.516
 3358TIP3    H210081   1.407   4.747   3.602
 3359TIP3   OH210082   0.868   0.653   2.796
 3359TIP3    H110083   0.880   0.620   2.706
 3359TIP3    H210084   0.922   0.595   2.850
 3360TIP3   OH210085   2.649   3.695   4.297
 3360TIP3    H110086   2.584   3.746   4.250
 3360TIP3    H210087   2.619   3.694   4.387
 3361TIP3   OH210088   4.605   5.392   2.380
 3361TIP3    H110089   4.699   5.409   2.375
 3361TIP3    H210090   4.585   5.394   2.474
 3362TIP3   OH210091   4.860   1.321   2.845
 3362TIP3    H110092   4.945   1.361   2.830
 3362TIP3    H210093   4.810   1.340   2.766
 3363TIP3   OH210094   1.599   1.900   3.475
 3363TIP3    H110095   1.594   1.913   3.381
 3363TIP3    H210096   1.691   1.878   3.491
 3364TIP3   OH210097   0.643   3.747   1.782
 3364TIP3    H110098   0.594   3.675   1.821
 3364TIP3    H210099   0.578   3.793   1.728
 3365TIP3   OH210100   5.400   4.233   3.048
 3365TIP3    H110101   5.461   4.218   3.119
 3365TIP3    H210102   5.313   4.228   3.089
 3366TIP3   OH210103   5.655   4.066   2.726
 3366TIP3    H110104   5.570   4.038   2.760
 3366TIP3    H210105   5.639   4.153   2.691
 3367TIP3   OH210106   4.461   2.424   1.349
 3367TIP3    H110107   4.479   2.429   1.255
 3367TIP3    H210108   4.476   2.513   1.381
 3368TIP3   OH210109   5.743   1.046   3.462
 3368TIP3    H110110   5.769   1.139   3.465
 3368TIP3    H210111   5.821   1.001   3.429
 3369TIP3   OH210112   6.082   0.420   4.484
 3369TIP3    H110113   6.027   0.497   4.473
 3369TIP3    H210114   6.158   0.451   4.534
 3370TIP3   OH210115   6.145   1.893   2.818
 3370TIP3    H110116   6.051   1.892   2.834
 3370TIP3    H210117   6.153   1.924   2.727
 3371TIP3   OH210118   3.802   5.211   0.475
 3371TIP3    H110119   3.788   5.254   0.391
 3371TIP3    H210120   3.897   5.201   0.480
 3372TIP3   OH210121   5.451   4.194   0.987
 3372TIP3    H110122   5.460   4.121   0.926
 3372TIP3    H210123   5.533   4.194   1.036
 3373TIP3   OH210124   1.597   4.400   0.352
 3373TIP3    H110125   1.541   4.476   0.333
 3373TIP3    H210126   1.605   4.399   0.447
 3374TIP3   OH210127   3.217   2.153   4.836
 3374TIP3    H110128   3.192   2.212   4.765
 3374TIP3    H210129   3.297   2.110   4.804
 3375TIP3   OH210130   5.297   3.185   1.396
 3375TIP3    H110131   5.264   3.192   1.306
 3375TIP3    H210132   5.305   3.276   1.426
 3376TIP3   OH210133   6.074   1.977   4.058
 3376TIP3    H110134   6.061   2.013   4.146
 3376TIP3    H210135   5.989   1.940   4.035
 3377TIP3   OH210136   4.660   3.217   1.395
 3377TIP3    H110137   4.750   3.236   1.367
 3377TIP3    H210138   4.609   3.218   1.314
 3378TIP3   OH210139   1.380   3.514   3.593
 3378TIP3    H110140   1.364   3.563   3.674
 3378TIP3    H210141   1.342   3.569   3.524
 3379TIP3   OH210142   5.140   0.067   3.639
 3379TIP3    H110143   5.087  -0.008   3.665
 3379TIP3    H210144   5.103   0.141   3.688
 3380TIP3   OH210145   2.928   4.809   1.557
 3380TIP3    H110146   2.935   4.901   1.583
 3380TIP3    H210147   3.019   4.780   1.546
 3381TIP3   OH210148   5.211   3.244   2.163
 3381TIP3    H110149   5.214   3.164   2.110
 3381TIP3    H210150   5.294   3.288   2.145
 3382TIP3   OH210151   1.209   0.725   1.146
 3382TIP3    H110152   1.231   0.693   1.058
 3382TIP3    H210153   1.122   0.763   1.135
 3383TIP3   OH210154   1.447   0.636   5.137
 3383TIP3    H110155   1.393   0.593   5.070
 3383TIP3    H210156   1.486   0.563   5.186
 3384TIP3   OH210157   2.100   5.618   2.102
 3384TIP3    H110158   2.052   5.536   2.107
 3384TIP3    H210159   2.130   5.623   2.011
 3385TIP3   OH210160   3.164   2.863   4.788
 3385TIP3    H110161   3.160   2.774   4.822
 3385TIP3    H210162   3.219   2.910   4.851
 3386TIP3   OH210163   4.699   1.749   1.046
 3386TIP3    H110164   4.734   1.777   1.131
 3386TIP3    H210165   4.722   1.820   0.986
 3387TIP3   OH210166   1.427   1.968   1.376
 3387TIP3    H110167   1.402   1.910   1.304
 3387TIP3    H210168   1.408   1.918   1.455
 3388TIP3   OH210169   6.151   3.334   0.459
 3388TIP3    H110170   6.073   3.295   0.420
 3388TIP3    H210171   6.139   3.322   0.553
 3389TIP3   OH210172   1.496   5.868   4.534
 3389TIP3    H110173   1.401   5.866   4.518
 3389TIP3    H210174   1.530   5.931   4.469
 3390TIP3   OH210175   2.816   1.263   5.165
 3390TIP3    H110176   2.908   1.270   5.143
 3390TIP3    H210177   2.770   1.268   5.082
 3391TIP3   OH210178   4.589   4.399   2.944
 3391TIP3    H110179   4.636   4.452   2.880
 3391TIP3    H210180   4.578   4.314   2.901
 3392TIP3   OH210181   3.076   1.793   2.901
 3392TIP3    H110182   3.007   1.765   2.841
 3392TIP3    H210183   3.133   1.716   2.909
 3393TIP3   OH210184   2.689   4.915   4.606
 3393TIP3    H110185   2.748   4.983   4.638
 3393TIP3    H210186   2.695   4.845   4.671
 3394TIP3   OH210187   3.702   1.945   0.476
 3394TIP3    H110188   3.614   1.936   0.439
 3394TIP3    H210189   3.747   1.864   0.449
 3395TIP3   OH210190   3.823   0.980   2.392
 3395TIP3    H110191   3.853   1.026   2.314
 3395TIP3    H210192   3.893   0.995   2.457
 3396TIP3   OH210193   2.079   5.876   3.293
 3396TIP3    H110194   2.030   5.841   3.367
 3396TIP3    H210195   2.030   5.845   3.216
 3397TIP3   OH210196   3.328   0.598   2.003
 3397TIP3    H110197   3.383   0.587   2.081
 3397TIP3    H210198   3.388   0.586   1.930
 3398TIP3   OH210199   1.794   2.044   4.646
 3398TIP3    H110200   1.815   1.958   4.609
 3398TIP3    H210201   1.705   2.034   4.680
 3399TIP3   OH210202   6.259   4.330   1.114
 3399TIP3    H110203   6.316   4.287   1.050
 3399TIP3    H210204   6.275   4.284   1.196
 3400TIP3   OH210205   1.405   2.520   2.429
 3400TIP3    H110206   1.461   2.442   2.432
 3400TIP3    H210207   1.427   2.569   2.508
 3401TIP3   OH210208   3.638   0.830   4.818
 3401TIP3    H110209   3.640   0.734   4.823
 3401TIP3    H210210   3.591   0.857   4.897
 3402TIP3   OH210211   5.378   5.217   2.561
 3402TIP3    H110212   5.285   5.201   2.582
 3402TIP3    H210213   5.419   5.131   2.570
 3403TIP3   OH210214   4.001   4.113   0.761
 3403TIP3    H110215   3.950   4.035   0.782
 3403TIP3    H210216   3.961   4.183   0.813
 3404TIP3   OH210217   4.946   0.541   1.473
 3404TIP3    H110218   4.872   0.518   1.417
 3404TIP3    H210219   4.939   0.636   1.485
 3405TIP3   OH210220   3.687   0.849   2.835
 3405TIP3    H110221   3.670   0.902   2.757
 3405TIP3    H210222   3.632   0.888   2.903
 3406TIP3   OH210223   2.619   0.939   1.586
 3406TIP3    H110224   2.628   0.844   1.590
 3406TIP3    H210225   2.705   0.970   1.558
 3407TIP3   OH210226   1.325   4.809   0.543
 3407TIP3    H110227   1.260   4.873   0.572
 3407TIP3    H210228   1.273   4.742   0.498
 3408TIP3   OH210229   1.046   1.088   1.420
 3408TIP3    H110230   0.983   1.134   1.364
 3408TIP3    H210231   0.994   1.062   1.497
 3409TIP3   OH210232   2.329   2.059   3.003
 3409TIP3    H110233   2.340   2.154   3.006
 3409TIP3    H210234   2.329   2.032   3.095
 3410TIP3   OH210235   4.674   1.420   1.411
 3410TIP3    H110236   4.735   1.470   1.357
 3410TIP3    H210237   4.591   1.467   1.404
 3411TIP3   OH210238   5.022   5.215   3.395
 3411TIP3    H110239   5.090   5.259   3.343
 3411TIP3    H210240   5.071   5.164   3.460
 3412TIP3   OH210241   0.364   0.816   0.970
 3412TIP3    H110242   0.401   0.760   0.902
 3412TIP3    H210243   0.332   0.756   1.037
 3413TIP3   OH210244   5.822   0.937   1.926
 3413TIP3    H110245   5.762   0.910   1.996
 3413TIP3    H210246   5.868   0.856   1.903
 3414TIP3   OH210247   2.097   2.560   0.357
 3414TIP3    H110248   2.184   2.525   0.337
 3414TIP3    H210249   2.037   2.490   0.332
 3415TIP3   OH210250   0.776   1.420   0.368
 3415TIP3    H110251   0.863   1.446   0.337
 3415TIP3    H210252   0.760   1.477   0.443
 3416TIP3   OH210253   1.430   0.987   1.525
 3416TIP3    H110254   1.387   0.973   1.441
 3416TIP3    H210255   1.388   0.924   1.584
 3417TIP3   OH210256   3.298   0.044   0.731
 3417TIP3    H110257   3.205   0.051   0.709
 3417TIP3    H210258   3.313   0.112   0.796
 3418TIP3   OH210259   2.325   3.343   2.998
 3418TIP3    H110260   2.418   3.321   3.001
 3418TIP3    H210261   2.320   3.434   3.027
 3419TIP3   OH210262   3.024   3.168   1.349
 3419TIP3    H110263   3.081   3.096   1.376
 3419TIP3    H210264   2.992   3.205   1.431
 3420TIP3   OH210265   2.064   3.621   2.440
 3420TIP3    H110266   2.150   3.654   2.414
 3420TIP3    H210267   2.066   3.528   2.421
 3421TIP3   OH210268   5.727   5.003   4.757
 3421TIP3    H110269   5.727   5.097   4.773
 3421TIP3    H210270   5.665   4.990   4.686
 3422TIP3   OH210271   1.893   1.753   3.821
 3422TIP3    H110272   1.843   1.828   3.789
 3422TIP3    H210273   1.954   1.790   3.884
 3423TIP3   OH210274   2.567   4.963   4.888
 3423TIP3    H110275   2.522   5.004   4.962
 3423TIP3    H210276   2.660   4.968   4.910
 3424TIP3   OH210277   0.878   3.226   1.390
 3424TIP3    H110278   0.963   3.255   1.424
 3424TIP3    H210279   0.870   3.136   1.421
 3425TIP3   OH210280   0.861   4.385   2.558
 3425TIP3    H110281   0.870   4.480   2.567
 3425TIP3    H210282   0.839   4.355   2.646
 3426TIP3   OH210283   2.690   0.410   4.277
 3426TIP3    H110284   2.677   0.436   4.186
 3426TIP3    H210285   2.762   0.465   4.308
 3427TIP3   OH210286   5.358   5.698   3.080
 3427TIP3    H110287   5.368   5.792   3.065
 3427TIP3    H210288   5.280   5.675   3.028
 3428TIP3   OH210289   2.145   4.446   1.128
 3428TIP3    H110290   2.084   4.489   1.189
 3428TIP3    H210291   2.105   4.458   1.042
 3429TIP3   OH210292   5.772   3.466   3.214
 3429TIP3    H110293   5.806   3.506   3.294
 3429TIP3    H210294   5.764   3.373   3.236
 3430TIP3   OH210295   2.078   3.249   2.972
 3430TIP3    H110296   2.051   3.334   2.938
 3430TIP3    H210297   2.174   3.251   2.966
 3431TIP3   OH210298   0.757   4.432   3.632
 3431TIP3    H110299   0.801   4.349   3.650
 3431TIP3    H210300   0.694   4.411   3.563
 3432TIP3   OH210301   0.213   1.577   5.012
 3432TIP3    H110302   0.220   1.495   5.062
 3432TIP3    H210303   0.136   1.564   4.957
 3433TIP3   OH210304   3.270   5.150   3.296
 3433TIP3    H110305   3.333   5.082   3.320
 3433TIP3    H210306   3.320   5.213   3.244
 3434TIP3   OH210307   5.956   3.634   1.847
 3434TIP3    H110308   6.028   3.696   1.835
 3434TIP3    H210309   5.967   3.571   1.776
 3435TIP3   OH210310   0.990   3.407   4.076
 3435TIP3    H110311   0.989   3.342   4.005
 3435TIP3    H210312   1.057   3.470   4.050
 3436TIP3   OH210313   5.646   1.437   1.229
 3436TIP3    H110314   5.651   1.481   1.313
 3436TIP3    H210315   5.700   1.358   1.240
 3437TIP3   OH210316   5.228   3.068   1.677
 3437TIP3    H110317   5.205   3.108   1.593
 3437TIP3    H210318   5.255   2.979   1.655
 3438TIP3   OH210319   1.124  -0.041   5.112
 3438TIP3    H110320   1.184  -0.009   5.179
 3438TIP3    H210321   1.057   0.027   5.105
 3439TIP3   OH210322   3.205   4.147   0.028
 3439TIP3    H110323   3.139   4.133  -0.040
 3439TIP3    H210324   3.183   4.232   0.066
 3440TIP3   OH210325   4.966   3.469   5.072
 3440TIP3    H110326   5.019   3.471   4.992
 3440TIP3    H210327   4.879   3.441   5.043
 3441TIP3   OH210328   5.348   1.693   3.011
 3441TIP3    H110329   5.370   1.777   3.050
 3441TIP3    H210330   5.432   1.650   2.997
 3442TIP3   OH210331   5.985   0.385   0.947
 3442TIP3    H110332   6.038   0.375   0.868
 3442TIP3    H210333   5.895   0.386   0.915
 3443TIP3   OH210334   5.366   2.304   2.497
 3443TIP3    H110335   5.286   2.320   2.546
 3443TIP3    H210336   5.435   2.344   2.550
 3444TIP3   OH210337   1.797   5.194   3.197
 3444TIP3    H110338   1.877   5.191   3.249
 3444TIP3    H210339   1.766   5.284   3.207
 3445TIP3   OH210340   5.386   3.768   3.079
 3445TIP3    H110341   5.337   3.693   3.111
 3445TIP3    H210342   5.403   3.749   2.987
 3446TIP3   OH210343   3.075   3.695   1.778
 3446TIP3    H110344   3.165   3.692   1.810
 3446TIP3    H210345   3.083   3.675   1.684
 3447TIP3   OH210346   2.028   1.395   2.120
 3447TIP3    H110347   1.949   1.388   2.174
 3447TIP3    H210348   2.071   1.310   2.128
 3448TIP3   OH210349   1.982   0.108   3.584
 3448TIP3    H110350   2.002   0.197   3.613
 3448TIP3    H210351   1.887   0.107   3.574
 3449TIP3   OH210352   5.294   4.086   0.134
 3449TIP3    H110353   5.354   4.145   0.179
 3449TIP3    H210354   5.215   4.085   0.189
 3450TIP3   OH210355   4.439   0.468   0.660
 3450TIP3    H110356   4.386   0.544   0.636
 3450TIP3    H210357   4.379   0.393   0.653
 3451TIP3   OH210358   0.788   0.847   0.718
 3451TIP3    H110359   0.748   0.855   0.631
 3451TIP3    H210360   0.758   0.762   0.750
 3452TIP3   OH210361   0.404   1.526   4.162
 3452TIP3    H110362   0.403   1.481   4.077
 3452TIP3    H210363   0.327   1.583   4.161
 3453TIP3   OH210364   4.079   2.465   4.002
 3453TIP3    H110365   4.033   2.396   4.049
 3453TIP3    H210366   4.151   2.421   3.958
 3454TIP3   OH210367   6.249   5.847   2.696
 3454TIP3    H110368   6.341   5.868   2.713
 3454TIP3    H210369   6.249   5.752   2.681
 3455TIP3   OH210370   1.149   1.482   4.820
 3455TIP3    H110371   1.169   1.515   4.908
 3455TIP3    H210372   1.079   1.418   4.834
 3456TIP3   OH210373   0.775   0.994   4.984
 3456TIP3    H110374   0.775   1.090   4.978
 3456TIP3    H210375   0.699   0.973   5.038
 3457TIP3   OH210376   6.237   0.040   1.551
 3457TIP3    H110377   6.299   0.013   1.619
 3457TIP3    H210378   6.153   0.048   1.597
 3458TIP3   OH210379   1.000   3.897   4.893
 3458TIP3    H110380   1.003   3.984   4.933
 3458TIP3    H210381   0.925   3.854   4.932
 3459TIP3   OH210382   3.522   3.705   4.459
 3459TIP3    H110383   3.547   3.797   4.453
 3459TIP3    H210384   3.506   3.678   4.368
 3460TIP3   OH210385   2.153   4.260   4.185
 3460TIP3    H110386   2.149   4.303   4.099
 3460TIP3    H210387   2.208   4.318   4.238
 3461TIP3   OH210388   5.942   2.351   3.594
 3461TIP3    H110389   5.975   2.391   3.675
 3461TIP3    H210390   5.917   2.424   3.539
 3462TIP3   OH210391   6.196   5.100   3.617
 3462TIP3    H110392   6.143   5.036   3.665
 3462TIP3    H210393   6.262   5.048   3.572
 3463TIP3   OH210394   5.861   5.798   4.657
 3463TIP3    H110395   5.935   5.809   4.717
 3463TIP3    H210396   5.831   5.887   4.640
 3464TIP3   OH210397   6.235   1.730   1.333
 3464TIP3    H110398   6.170   1.737   1.263
 3464TIP3    H210399   6.241   1.637   1.352
 3465TIP3   OH210400   4.054   5.124   4.090
 3465TIP3    H110401   4.001   5.135   4.011
 3465TIP3    H210402   4.144   5.132   4.060
 3466TIP3   OH210403   6.229   4.888   1.135
 3466TIP3    H110404   6.308   4.856   1.091
 3466TIP3    H210405   6.204   4.965   1.085
 3467TIP3   OH210406   4.034   5.482   0.256
 3467TIP3    H110407   4.075   5.476   0.342
 3467TIP3    H210408   4.046   5.395   0.218
 3468TIP3   OH210409   5.878   0.084   4.383
 3468TIP3    H110410   5.957   0.047   4.343
 3468TIP3    H210411   5.904   0.104   4.473
 3469TIP3   OH210412   6.010   4.805   4.711
 3469TIP3    H110413   6.016   4.739   4.780
 3469TIP3    H210414   5.943   4.772   4.651
 3470TIP3   OH210415   2.528   4.378   0.342
 3470TIP3    H110416   2.479   4.364   0.423
 3470TIP3    H210417   2.486   4.321   0.278
 3471TIP3   OH210418   4.159   1.877   1.712
 3471TIP3    H110419   4.080   1.898   1.762
 3471TIP3    H210420   4.211   1.824   1.773
 3472TIP3   OH210421   3.319   2.468   4.054
 3472TIP3    H110422   3.408   2.436   4.071
 3472TIP3    H210423   3.262   2.396   4.083
 3473TIP3   OH210424   1.007   4.028   4.190
 3473TIP3    H110425   1.090   3.996   4.225
 3473TIP3    H210426   1.026   4.049   4.098
 3474TIP3   OH210427   3.745   0.133   3.574
 3474TIP3    H110428   3.688   0.081   3.517
 3474TIP3    H210429   3.686   0.187   3.625
 3475TIP3   OH210430   1.781   3.713   4.237
 3475TIP3    H110431   1.869   3.735   4.206
 3475TIP3    H210432   1.781   3.617   4.241
 3476TIP3   OH210433   3.327   1.419   2.408
 3476TIP3    H110434   3.240   1.454   2.430
 3476TIP3    H210435   3.373   1.416   2.491
 3477TIP3   OH210436   5.522   5.725   4.643
 3477TIP3    H110437   5.525   5.770   4.727
 3477TIP3    H210438   5.554   5.789   4.579
 3478TIP3   OH210439   1.127   5.084   3.056
 3478TIP3    H110440   1.066   5.157   3.045
 3478TIP3    H210441   1.208   5.124   3.088
 3479TIP3   OH210442   4.268   5.799   0.402
 3479TIP3    H110443   4.340   5.755   0.356
 3479TIP3    H210444   4.231   5.858   0.337
 3480TIP3   OH210445   3.074   2.057   5.042
 3480TIP3    H110446   2.985   2.062   5.007
 3480TIP3    H210447   3.130   2.091   4.972
 3481TIP3   OH210448   2.555   4.748   3.848
 3481TIP3    H110449   2.590   4.784   3.767
 3481TIP3    H210450   2.493   4.814   3.880
 3482TIP3   OH210451   1.985   4.380   1.512
 3482TIP3    H110452   1.908   4.414   1.466
 3482TIP3    H210453   1.949   4.319   1.576
 3483TIP3   OH210454   4.466   5.017   2.967
 3483TIP3    H110455   4.486   4.947   2.905
 3483TIP3    H210456   4.422   4.973   3.040
 3484TIP3   OH210457   4.344   1.114   2.593
 3484TIP3    H110458   4.434   1.120   2.561
 3484TIP3    H210459   4.304   1.197   2.567
 3485TIP3   OH210460   0.181   3.322   0.981
 3485TIP3    H110461   0.260   3.269   0.990
 3485TIP3    H210462   0.112   3.259   0.960
 3486TIP3   OH210463   1.796   5.627   4.611
 3486TIP3    H110464   1.874   5.652   4.662
 3486TIP3    H210465   1.723   5.646   4.669
 3487TIP3   OH210466   1.317   4.667   2.124
 3487TIP3    H110467   1.331   4.633   2.212
 3487TIP3    H210468   1.357   4.602   2.066
 3488TIP3   OH210469   0.300   1.304   4.285
 3488TIP3    H110470   0.368   1.360   4.248
 3488TIP3    H210471   0.217   1.343   4.255
 3489TIP3   OH210472   2.698   3.603   2.195
 3489TIP3    H110473   2.711   3.579   2.287
 3489TIP3    H210474   2.786   3.618   2.162
 3490TIP3   OH210475   1.436   3.902   4.579
 3490TIP3    H110476   1.350   3.893   4.619
 3490TIP3    H210477   1.465   3.990   4.603
 3491TIP3   OH210478   5.704   3.933   2.248
 3491TIP3    H110479   5.772   3.866   2.249
 3491TIP3    H210480   5.678   3.940   2.156
 3492TIP3   OH210481   1.773   0.559   2.959
 3492TIP3    H110482   1.715   0.589   2.890
 3492TIP3    H210483   1.720   0.560   3.038
 3493TIP3   OH210484   4.422   4.575   4.920
 3493TIP3    H110485   4.478   4.555   4.846
 3493TIP3    H210486   4.334   4.551   4.891
 3494TIP3   OH210487   2.671   2.586   0.788
 3494TIP3    H110488   2.731   2.545   0.850
 3494TIP3    H210489   2.698   2.678   0.785
 3495TIP3   OH210490   4.306   5.012   1.345
 3495TIP3    H110491   4.235   5.045   1.400
 3495TIP3    H210492   4.263   4.961   1.277
 3496TIP3   OH210493   1.587   5.197   4.325
 3496TIP3    H110494   1.571   5.291   4.312
 3496TIP3    H210495   1.680   5.192   4.348
 3497TIP3   OH210496   5.200   1.735   1.034
 3497TIP3    H110497   5.220   1.816   0.987
 3497TIP3    H210498   5.219   1.666   0.970
 3498TIP3   OH210499   2.038   1.921   4.508
 3498TIP3    H110500   1.992   1.859   4.565
 3498TIP3    H210501   1.983   1.926   4.429
 3499TIP3   OH210502   4.255   3.458   2.246
 3499TIP3    H110503   4.318   3.402   2.201
 3499TIP3    H210504   4.183   3.399   2.269
 3500TIP3   OH210505   3.407   3.306   2.552
 3500TIP3    H110506   3.456   3.303   2.635
 3500TIP3    H210507   3.474   3.292   2.485
 3501TIP3   OH210508   4.769   3.254   2.465
 3501TIP3    H110509   4.858   3.267   2.498
 3501TIP3    H210510   4.777   3.185   2.400
 3502TIP3   OH210511   5.178   5.454   2.470
 3502TIP3    H110512   5.269   5.440   2.496
 3502TIP3    H210513   5.139   5.501   2.543
 3503TIP3   OH210514   4.752   1.116   1.119
 3503TIP3    H110515   4.701   1.035   1.124
 3503TIP3    H210516   4.841   1.089   1.140
 3504TIP3   OH210517   2.749   4.300   2.123
 3504TIP3    H110518   2.715   4.383   2.088
 3504TIP3    H210519   2.752   4.242   2.047
 3505TIP3   OH210520   2.654   0.869   4.855
 3505TIP3    H110521   2.663   0.940   4.791
 3505TIP3    H210522   2.567   0.880   4.892
 3506TIP3   OH210523   3.953   0.272   3.069
 3506TIP3    H110524   4.042   0.239   3.075
 3506TIP3    H210525   3.939   0.317   3.153
 3507TIP3   OH210526   4.550   1.436   4.534
 3507TIP3    H110527   4.542   1.459   4.626
 3507TIP3    H210528   4.575   1.344   4.534
 3508TIP3   OH210529   1.903   4.104   4.201
 3508TIP3    H110530   1.920   4.082   4.292
 3508TIP3    H210531   1.982   4.148   4.170
 3509TIP3   OH210532   4.320   3.189   3.444
 3509TIP3    H110533   4.327   3.282   3.464
 3509TIP3    H210534   4.255   3.183   3.375
 3510TIP3   OH210535   0.149   1.751   2.543
 3510TIP3    H110536   0.144   1.746   2.447
 3510TIP3    H210537   0.236   1.717   2.564
 3511TIP3   OH210538   1.330   3.390   0.288
 3511TIP3    H110539   1.363   3.366   0.375
 3511TIP3    H210540   1.389   3.346   0.227
 3512TIP3   OH210541   0.329   5.871   4.119
 3512TIP3    H110542   0.314   5.826   4.203
 3512TIP3    H210543   0.262   5.940   4.117
 3513TIP3   OH210544   0.646   6.012   2.807
 3513TIP3    H110545   0.661   5.941   2.868
 3513TIP3    H210546   0.605   5.971   2.731
 3514TIP3   OH210547   1.547   1.970   4.721
 3514TIP3    H110548   1.524   2.051   4.767
 3514TIP3    H210549   1.464   1.928   4.702
 3515TIP3   OH210550   1.799   2.256   3.134
 3515TIP3    H110551   1.711   2.222   3.117
 3515TIP3    H210552   1.852   2.222   3.061
 3516TIP3   OH210553   2.795   3.969   4.309
 3516TIP3    H110554   2.814   3.876   4.303
 3516TIP3    H210555   2.807   4.002   4.220
 3517TIP3   OH210556   3.079   3.753   2.424
 3517TIP3    H110557   3.150   3.745   2.488
 3517TIP3    H210558   3.053   3.846   2.428
 3518TIP3   OH210559   5.194   2.447   4.243
 3518TIP3    H110560   5.135   2.478   4.174
 3518TIP3    H210561   5.137   2.398   4.302
 3519TIP3   OH210562   6.111   4.752   3.026
 3519TIP3    H110563   6.199   4.775   3.053
 3519TIP3    H210564   6.115   4.659   3.006
 3520TIP3   OH210565   2.538   4.300   5.060
 3520TIP3    H110566   2.573   4.388   5.051
 3520TIP3    H210567   2.443   4.311   5.053
 3521TIP3   OH210568   4.410   1.472   0.265
 3521TIP3    H110569   4.399   1.547   0.206
 3521TIP3    H210570   4.440   1.510   0.347
 3522TIP3   OH210571   3.102   0.143   3.697
 3522TIP3    H110572   3.064   0.100   3.773
 3522TIP3    H210573   3.197   0.132   3.707
 3523TIP3   OH210574   5.152   5.410   3.216
 3523TIP3    H110575   5.227   5.402   3.157
 3523TIP3    H210576   5.088   5.462   3.167
 3524TIP3   OH210577   0.853   3.729   3.622
 3524TIP3    H110578   0.896   3.749   3.539
 3524TIP3    H210579   0.864   3.634   3.632
 3525TIP3   OH210580   2.763   3.316   1.913
 3525TIP3    H110581   2.781   3.261   1.989
 3525TIP3    H210582   2.829   3.386   1.919
 3526TIP3   OH210583   0.120   1.008   4.665
 3526TIP3    H110584   0.165   0.938   4.711
 3526TIP3    H210585   0.190   1.065   4.634
 3527TIP3   OH210586   2.219   0.047   1.803
 3527TIP3    H110587   2.263  -0.001   1.733
 3527TIP3    H210588   2.282   0.113   1.831
 3528TIP3   OH210589   5.076   0.434   2.597
 3528TIP3    H110590   5.159   0.388   2.611
 3528TIP3    H210591   5.013   0.389   2.653
 3529TIP3   OH210592   2.685   1.264   1.231
 3529TIP3    H110593   2.665   1.278   1.139
 3529TIP3    H210594   2.648   1.341   1.275
 3530TIP3   OH210595   5.612   5.073   0.613
 3530TIP3    H110596   5.659   4.999   0.575
 3530TIP3    H210597   5.578   5.122   0.538
 3531TIP3   OH210598   5.334   5.569   4.850
 3531TIP3    H110599   5.352   5.638   4.786
 3531TIP3    H210600   5.415   5.561   4.901
 3532TIP3   OH210601   1.212   0.363   0.573
 3532TIP3    H110602   1.169   0.441   0.607
 3532TIP3    H210603   1.245   0.319   0.652
 3533TIP3   OH210604   2.255   2.474   2.072
 3533TIP3    H110605   2.199   2.549   2.050
 3533TIP3    H210606   2.195   2.412   2.114
 3534TIP3   OH210607   5.229   5.566   3.878
 3534TIP3    H110608   5.281   5.638   3.915
 3534TIP3    H210609   5.233   5.581   3.783
 3535TIP3   OH210610   5.111   2.040   0.606
 3535TIP3    H110611   5.054   2.018   0.532
 3535TIP3    H210612   5.166   1.962   0.617
 3536TIP3   OH210613  -0.006   3.917   0.449
 3536TIP3    H110614   0.088   3.927   0.433
 3536TIP3    H210615  -0.043   3.893   0.364
 3537TIP3   OH210616   3.544   3.865   3.800
 3537TIP3    H110617   3.480   3.920   3.847
 3537TIP3    H210618   3.555   3.909   3.715
 3538TIP3   OH210619   1.145   0.924   4.069
 3538TIP3    H110620   1.195   0.853   4.109
 3538TIP3    H210621   1.194   0.948   3.991
 3539TIP3   OH210622   1.293   2.322   1.280
 3539TIP3    H110623   1.290   2.417   1.292
 3539TIP3    H210624   1.380   2.306   1.242
 3540TIP3   OH210625   0.293   4.554   0.975
 3540TIP3    H110626   0.265   4.554   0.883
 3540TIP3    H210627   0.387   4.538   0.971
 3541TIP3   OH210628   2.047   5.094   4.649
 3541TIP3    H110629   1.975   5.031   4.648
 3541TIP3    H210630   2.005   5.179   4.663
 3542TIP3   OH210631   1.041   2.348   4.277
 3542TIP3    H110632   1.129   2.384   4.272
 3542TIP3    H210633   0.984   2.421   4.251
 3543TIP3   OH210634   5.925   5.779   2.457
 3543TIP3    H110635   5.977   5.720   2.403
 3543TIP3    H210636   5.885   5.723   2.523
 3544TIP3   OH210637   5.010   3.094   0.905
 3544TIP3    H110638   4.917   3.113   0.912
 3544TIP3    H210639   5.029   3.100   0.811
 3545TIP3   OH210640   3.328   0.286   2.211
 3545TIP3    H110641   3.397   0.257   2.151
 3545TIP3    H210642   3.320   0.380   2.194
 3546TIP3   OH210643   4.610   0.613   4.162
 3546TIP3    H110644   4.657   0.609   4.078
 3546TIP3    H210645   4.669   0.660   4.220
 3547TIP3   OH210646   2.765   3.552   3.322
 3547TIP3    H110647   2.730   3.611   3.389
 3547TIP3    H210648   2.837   3.506   3.365
 3548TIP3   OH210649   2.316   3.688   0.616
 3548TIP3    H110650   2.270   3.741   0.550
 3548TIP3    H210651   2.254   3.620   0.640
 3549TIP3   OH210652   6.276   1.285   4.073
 3549TIP3    H110653   6.324   1.264   3.993
 3549TIP3    H210654   6.187   1.301   4.043
 3550TIP3   OH210655   2.297   0.003   1.525
 3550TIP3    H110656   2.389  -0.017   1.545
 3550TIP3    H210657   2.297   0.097   1.507
 3551TIP3   OH210658   5.105   2.801   4.770
 3551TIP3    H110659   5.123   2.889   4.738
 3551TIP3    H210660   5.012   2.787   4.750
 3552TIP3   OH210661   0.297   4.854   0.203
 3552TIP3    H110662   0.272   4.864   0.111
 3552TIP3    H210663   0.288   4.942   0.239
 3553TIP3   OH210664   2.391   0.696   3.952
 3553TIP3    H110665   2.346   0.696   3.868
 3553TIP3    H210666   2.322   0.680   4.016
 3554TIP3   OH210667   3.485   2.029   4.466
 3554TIP3    H110668   3.485   2.123   4.480
 3554TIP3    H210669   3.523   2.017   4.379
 3555TIP3   OH210670   3.289   3.852   1.409
 3555TIP3    H110671   3.334   3.768   1.407
 3555TIP3    H210672   3.240   3.851   1.492
 3556TIP3   OH210673   6.282   1.448   3.011
 3556TIP3    H110674   6.351   1.402   3.059
 3556TIP3    H210675   6.330   1.504   2.949
 3557TIP3   OH210676   2.178   1.925   5.058
 3557TIP3    H110677   2.118   1.946   4.986
 3557TIP3    H210678   2.259   1.898   5.015
 3558TIP3   OH210679   5.888   4.817   0.646
 3558TIP3    H110680   5.840   4.855   0.572
 3558TIP3    H210681   5.838   4.740   0.671
 3559TIP3   OH210682   5.839   3.407   4.606
 3559TIP3    H110683   5.832   3.361   4.689
 3559TIP3    H210684   5.825   3.339   4.539
 3560TIP3   OH210685   6.332   3.589   1.664
 3560TIP3    H110686   6.244   3.557   1.644
 3560TIP3    H210687   6.377   3.588   1.579
 3561TIP3   OH210688   4.868   4.703   3.629
 3561TIP3    H110689   4.845   4.775   3.570
 3561TIP3    H210690   4.873   4.626   3.572
 3562TIP3   OH210691   6.361   2.963   4.557
 3562TIP3    H110692   6.323   3.034   4.505
 3562TIP3    H210693   6.316   2.969   4.641
 3563TIP3   OH210694   0.641   1.140   1.501
 3563TIP3    H110695   0.551   1.141   1.534
 3563TIP3    H210696   0.696   1.150   1.579
 3564TIP3   OH210697   3.064   1.194   0.848
 3564TIP3    H110698   3.035   1.217   0.936
 3564TIP3    H210699   3.062   1.099   0.846
 3565TIP3   OH210700   0.420   4.417   5.125
 3565TIP3    H110701   0.501   4.369   5.143
 3565TIP3    H210702   0.435   4.505   5.160
 3566TIP3   OH210703   3.904   3.354   1.823
 3566TIP3    H110704   3.839   3.319   1.883
 3566TIP3    H210705   3.988   3.342   1.868
 3567TIP3   OH210706   3.521   0.558   0.076
 3567TIP3    H110707   3.472   0.551   0.158
 3567TIP3    H210708   3.540   0.467   0.053
 3568TIP3   OH210709   4.698   0.594  -0.012
 3568TIP3    H110710   4.649   0.603   0.070
 3568TIP3    H210711   4.724   0.502  -0.015
 3569TIP3   OH210712   0.803   5.719   5.013
 3569TIP3    H110713   0.890   5.746   5.040
 3569TIP3    H210714   0.818   5.651   4.947
 3570TIP3   OH210715   3.141   5.318   1.310
 3570TIP3    H110716   3.172   5.403   1.341
 3570TIP3    H210717   3.216   5.259   1.321
 3571TIP3   OH210718   3.211   2.582   4.556
 3571TIP3    H110719   3.227   2.588   4.462
 3571TIP3    H210720   3.217   2.488   4.575
 3572TIP3   OH210721   1.628   1.041   1.701
 3572TIP3    H110722   1.705   1.018   1.649
 3572TIP3    H210723   1.553   1.020   1.645
 3573TIP3   OH210724   4.043   3.716   3.154
 3573TIP3    H110725   4.080   3.804   3.148
 3573TIP3    H210726   4.052   3.692   3.246
 3574TIP3   OH210727   0.134   3.599   3.916
 3574TIP3    H110728   0.192   3.666   3.880
 3574TIP3    H210729   0.046   3.633   3.903
 3575TIP3   OH210730   4.089   1.967   1.181
 3575TIP3    H110731   4.040   1.912   1.119
 3575TIP3    H210732   4.087   1.918   1.263
 3576TIP3   OH210733   3.501   0.704   3.153
 3576TIP3    H110734   3.547   0.719   3.236
 3576TIP3    H210735   3.571   0.681   3.092
 3577TIP3   OH210736   2.976   0.200   1.867
 3577TIP3    H110737   3.037   0.127   1.880
 3577TIP3    H210738   2.905   0.163   1.816
 3578TIP3   OH210739   0.003   2.695   2.668
 3578TIP3    H110740   0.021   2.658   2.753
 3578TIP3    H210741  -0.014   2.620   2.611
 3579TIP3   OH210742   6.280   3.659   1.078
 3579TIP3    H110743   6.278   3.576   1.029
 3579TIP3    H210744   6.342   3.714   1.030
 3580TIP3   OH210745   1.715   5.699   4.881
 3580TIP3    H110746   1.623   5.691   4.905
 3580TIP3    H210747   1.753   5.614   4.900
 3581TIP3   OH210748   1.099   5.636   2.151
 3581TIP3    H110749   1.166   5.704   2.154
 3581TIP3    H210750   1.019   5.679   2.183
 3582TIP3   OH210751   3.839   1.760   4.855
 3582TIP3    H110752   3.794   1.841   4.830
 3582TIP3    H210753   3.788   1.726   4.929
 3583TIP3   OH210754   2.345   3.884   2.343
 3583TIP3    H110755   2.271   3.885   2.282
 3583TIP3    H210756   2.349   3.974   2.376
 3584TIP3   OH210757   2.032   3.059   4.826
 3584TIP3    H110758   1.942   3.026   4.821
 3584TIP3    H210759   2.034   3.111   4.906
 3585TIP3   OH210760   0.177   1.995   2.151
 3585TIP3    H110761   0.118   1.945   2.207
 3585TIP3    H210762   0.140   1.987   2.063
 3586TIP3   OH210763   2.367   5.329   0.818
 3586TIP3    H110764   2.401   5.418   0.829
 3586TIP3    H210765   2.297   5.338   0.753
 3587TIP3   OH210766   1.479   3.726   2.298
 3587TIP3    H110767   1.571   3.735   2.270
 3587TIP3    H210768   1.431   3.712   2.216
 3588TIP3   OH210769   3.478   1.401   2.201
 3588TIP3    H110770   3.409   1.396   2.267
 3588TIP3    H210771   3.532   1.324   2.217
 3589TIP3   OH210772   1.481   1.890   4.388
 3589TIP3    H110773   1.466   1.892   4.483
 3589TIP3    H210774   1.491   1.982   4.363
 3590TIP3   OH210775   0.948   4.948   4.460
 3590TIP3    H110776   0.914   4.892   4.390
 3590TIP3    H210777   0.909   5.034   4.442
 3591TIP3   OH210778   1.677   2.664   4.460
 3591TIP3    H110779   1.630   2.630   4.536
 3591TIP3    H210780   1.740   2.726   4.496
 3592TIP3   OH210781   6.233  -0.021   0.217
 3592TIP3    H110782   6.236  -0.074   0.137
 3592TIP3    H210783   6.251   0.068   0.187
 3593TIP3   OH210784   5.082   2.441   5.049
 3593TIP3    H110785   5.026   2.508   5.088
 3593TIP3    H210786   5.066   2.363   5.101
 3594TIP3   OH210787   5.176   0.831   0.215
 3594TIP3    H110788   5.147   0.829   0.306
 3594TIP3    H210789   5.216   0.918   0.204
 3595TIP3   OH210790   1.523   5.394   0.343
 3595TIP3    H110791   1.497   5.338   0.270
 3595TIP3    H210792   1.558   5.334   0.409
 3596TIP3   OH210793   5.056   5.333   4.728
 3596TIP3    H110794   5.034   5.331   4.634
 3596TIP3    H210795   5.151   5.325   4.730
 3597TIP3   OH210796   1.445   2.570   0.732
 3597TIP3    H110797   1.466   2.603   0.820
 3597TIP3    H210798   1.381   2.633   0.698
 3598TIP3   OH210799   3.807   0.092   1.495
 3598TIP3    H110800   3.715   0.070   1.507
 3598TIP3    H210801   3.849   0.010   1.469
 3599TIP3   OH210802   3.549   0.295   3.718
 3599TIP3    H110803   3.583   0.365   3.773
 3599TIP3    H210804   3.514   0.231   3.779
 3600TIP3   OH210805   0.329   2.117   3.255
 3600TIP3    H110806   0.249   2.156   3.291
 3600TIP3    H210807   0.305   2.091   3.166
 3601TIP3   OH210808   1.837   5.024   0.588
 3601TIP3    H110809   1.842   4.939   0.543
 3601TIP3    H210810   1.919   5.030   0.636
 3602TIP3   OH210811   5.110   2.635   4.045
 3602TIP3    H110812   5.193   2.654   4.089
 3602TIP3    H210813   5.052   2.706   4.073
 3603TIP3   OH210814   5.042   5.749   1.080
 3603TIP3    H110815   4.961   5.769   1.128
 3603TIP3    H210816   5.095   5.699   1.143
 3604TIP3   OH210817   1.117   1.301   2.166
 3604TIP3    H110818   1.202   1.301   2.122
 3604TIP3    H210819   1.082   1.389   2.148
 3605TIP3   OH210820   2.076   4.795   3.714
 3605TIP3    H110821   1.992   4.751   3.721
 3605TIP3    H210822   2.064   4.879   3.758
 3606TIP3   OH210823   5.478   4.816   2.125
 3606TIP3    H110824   5.512   4.790   2.040
 3606TIP3    H210825   5.504   4.745   2.184
 3607TIP3   OH210826   3.839   3.694   3.723
 3607TIP3    H110827   3.912   3.752   3.741
 3607TIP3    H210828   3.809   3.665   3.809
 3608TIP3   OH210829   1.948   4.088   4.457
 3608TIP3    H110830   1.928   4.132   4.540
 3608TIP3    H210831   1.895   4.008   4.459
 3609TIP3   OH210832   5.004   4.863   3.017
 3609TIP3    H110833   5.023   4.892   3.107
 3609TIP3    H210834   5.089   4.841   2.980
 3610TIP3   OH210835   2.686   3.321   3.807
 3610TIP3    H110836   2.659   3.239   3.764
 3610TIP3    H210837   2.625   3.386   3.772
 3611TIP3   OH210838   5.682   5.405   1.784
 3611TIP3    H110839   5.732   5.379   1.862
 3611TIP3    H210840   5.646   5.323   1.751
 3612TIP3   OH210841   0.075   0.838   3.766
 3612TIP3    H110842   0.001   0.897   3.752
 3612TIP3    H210843   0.041   0.751   3.747
 3613TIP3   OH210844   5.379   0.168   2.071
 3613TIP3    H110845   5.371   0.076   2.045
 3613TIP3    H210846   5.298   0.208   2.040
 3614TIP3   OH210847   1.678   4.046   2.442
 3614TIP3    H110848   1.731   3.974   2.408
 3614TIP3    H210849   1.731   4.083   2.512
 3615TIP3   OH210850   5.009   1.179   3.132
 3615TIP3    H110851   4.984   1.143   3.046
 3615TIP3    H210852   4.951   1.254   3.143
 3616TIP3   OH210853   3.230   5.487   4.681
 3616TIP3    H110854   3.292   5.522   4.618
 3616TIP3    H210855   3.274   5.410   4.718
 3617TIP3   OH210856   3.463   4.269   5.057
 3617TIP3    H110857   3.545   4.310   5.029
 3617TIP3    H210858   3.463   4.279   5.153
 3618TIP3   OH210859   0.548   2.987   4.508
 3618TIP3    H110860   0.467   3.033   4.527
 3618TIP3    H210861   0.529   2.895   4.526
 3619TIP3   OH210862   1.961   0.735   3.001
 3619TIP3    H110863   2.000   0.746   2.914
 3619TIP3    H210864   1.880   0.686   2.985
 3620TIP3   OH210865   4.443   0.846   3.010
 3620TIP3    H110866   4.465   0.921   3.066
 3620TIP3    H210867   4.367   0.876   2.960
 3621TIP3   OH210868   4.033   1.930   1.971
 3621TIP3    H110869   4.084   1.848   1.974
 3621TIP3    H210870   4.020   1.953   2.062
 3622TIP3   OH210871   2.264   2.443   3.440
 3622TIP3    H110872   2.351   2.419   3.409
 3622TIP3    H210873   2.281   2.513   3.504
 3623TIP3   OH210874   2.298   4.863   1.576
 3623TIP3    H110875   2.342   4.780   1.560
 3623TIP3    H210876   2.365   4.920   1.613
 3624TIP3   OH210877   3.236   3.452   1.622
 3624TIP3    H110878   3.171   3.392   1.586
 3624TIP3    H210879   3.218   3.456   1.715
 3625TIP3   OH210880   6.173   5.621   1.616
 3625TIP3    H110881   6.150   5.573   1.537
 3625TIP3    H210882   6.106   5.689   1.624
 3626TIP3   OH210883   2.056   3.760   1.698
 3626TIP3    H110884   2.147   3.732   1.706
 3626TIP3    H210885   2.015   3.692   1.645
 3627TIP3   OH210886   4.386   1.826   2.273
 3627TIP3    H110887   4.348   1.837   2.360
 3627TIP3    H210888   4.370   1.909   2.228
 3628TIP3   OH210889   0.901   1.180   1.987
 3628TIP3    H110890   0.973   1.205   2.045
 3628TIP3    H210891   0.826   1.232   2.016
 3629TIP3   OH210892   5.408   0.009   1.426
 3629TIP3    H110893   5.361  -0.032   1.353
 3629TIP3    H210894   5.405   0.103   1.407
 3630TIP3   OH210895   3.625   5.819   0.339
 3630TIP3    H110896   3.721   5.816   0.342
 3630TIP3    H210897   3.604   5.911   0.354
 3631TIP3   OH210898   2.238   2.925   0.754
 3631TIP3    H110899   2.167   2.988   0.763
 3631TIP3    H210900   2.199   2.850   0.710
 3632TIP3   OH210901   3.954   3.231   1.539
 3632TIP3    H110902   3.893   3.179   1.486
 3632TIP3    H210903   3.907   3.247   1.621
 3633TIP3   OH210904   5.400   5.018   0.977
 3633TIP3    H110905   5.390   4.939   1.029
 3633TIP3    H210906   5.493   5.020   0.953
 3634TIP3   OH210907   4.964   0.089   0.663
 3634TIP3    H110908   5.050   0.129   0.675
 3634TIP3    H210909   4.902   0.152   0.700
 3635TIP3   OH210910   5.541   2.551   3.509
 3635TIP3    H110911   5.455   2.594   3.505
 3635TIP3    H210912   5.521   2.461   3.532
 3636TIP3   OH210913   5.016   3.986   1.628
 3636TIP3    H110914   5.107   4.012   1.643
 3636TIP3    H210915   5.017   3.891   1.633
 3637TIP3   OH210916   3.231   0.564   0.912
 3637TIP3    H110917   3.197   0.505   0.845
 3637TIP3    H210918   3.326   0.564   0.898
 3638TIP3   OH210919   3.479   0.685   1.509
 3638TIP3    H110920   3.557   0.636   1.482
 3638TIP3    H210921   3.443   0.720   1.427
 3639TIP3   OH210922   2.320   1.369   1.333
 3639TIP3    H110923   2.336   1.353   1.426
 3639TIP3    H210924   2.397   1.419   1.305
 3640TIP3   OH210925   4.515   3.058   0.218
 3640TIP3    H110926   4.607   3.067   0.194
 3640TIP3    H210927   4.495   3.139   0.266
 3641TIP3   OH210928   4.062   5.711   1.295
 3641TIP3    H110929   4.121   5.786   1.287
 3641TIP3    H210930   4.042   5.706   1.389
 3642TIP3   OH210931   5.586   3.481   2.651
 3642TIP3    H110932   5.648   3.550   2.672
 3642TIP3    H210933   5.557   3.500   2.562
 3643TIP3   OH210934   4.035   5.352   4.699
 3643TIP3    H110935   4.003   5.433   4.657
 3643TIP3    H210936   4.107   5.324   4.643
 3644TIP3   OH210937   4.194   2.703   3.710
 3644TIP3    H110938   4.150   2.777   3.752
 3644TIP3    H210939   4.275   2.740   3.674
 3645TIP3   OH210940   2.554   3.128   0.019
 3645TIP3    H110941   2.564   3.105  -0.073
 3645TIP3    H210942   2.585   3.051   0.067
 3646TIP3   OH210943   6.039   3.275   1.841
 3646TIP3    H110944   6.031   3.305   1.932
 3646TIP3    H210945   5.950   3.276   1.807
 3647TIP3   OH210946   1.101   2.874   0.265
 3647TIP3    H110947   1.071   2.833   0.346
 3647TIP3    H210948   1.026   2.868   0.206
 3648TIP3   OH210949   6.173   5.729   0.991
 3648TIP3    H110950   6.155   5.789   1.063
 3648TIP3    H210951   6.088   5.691   0.969
 3649TIP3   OH210952   5.883   1.753   3.193
 3649TIP3    H110953   5.815   1.780   3.131
 3649TIP3    H210954   5.958   1.809   3.172
 3650TIP3   OH210955   4.880   2.156   4.849
 3650TIP3    H110956   4.910   2.066   4.858
 3650TIP3    H210957   4.863   2.184   4.939
 3651TIP3   OH210958   2.412   5.821   3.674
 3651TIP3    H110959   2.331   5.804   3.626
 3651TIP3    H210960   2.462   5.740   3.668
 3652TIP3   OH210961   5.768  -0.036   2.907
 3652TIP3    H110962   5.770   0.049   2.952
 3652TIP3    H210963   5.757  -0.014   2.814
 3653TIP3   OH210964   6.179   2.121   0.393
 3653TIP3    H110965   6.152   2.105   0.483
 3653TIP3    H210966   6.105   2.089   0.340
 3654TIP3   OH210967   1.774   3.731   4.856
 3654TIP3    H110968   1.821   3.673   4.916
 3654TIP3    H210969   1.685   3.733   4.889
 3655TIP3   OH210970   2.307   4.102   1.709
 3655TIP3    H110971   2.312   4.171   1.643
 3655TIP3    H210972   2.224   4.117   1.754
 3656TIP3   OH210973   5.580   0.978   0.830
 3656TIP3    H110974   5.581   0.887   0.861
 3656TIP3    H210975   5.487   0.999   0.823
 3657TIP3   OH210976   0.829   2.095   4.685
 3657TIP3    H110977   0.737   2.116   4.670
 3657TIP3    H210978   0.841   2.009   4.645
 3658TIP3   OH210979   5.102   1.439   1.951
 3658TIP3    H110980   5.163   1.512   1.939
 3658TIP3    H210981   5.092   1.431   2.046
 3659TIP3   OH210982   2.358   1.565   4.030
 3659TIP3    H110983   2.305   1.592   4.105
 3659TIP3    H210984   2.434   1.521   4.070
 3660TIP3   OH210985   1.991   2.181   4.466
 3660TIP3    H110986   2.014   2.100   4.512
 3660TIP3    H210987   1.895   2.182   4.465
 3661TIP3   OH210988   5.103   4.094   1.035
 3661TIP3    H110989   5.143   4.067   1.118
 3661TIP3    H210990   5.087   4.188   1.046
 3662TIP3   OH210991   0.549   2.409   4.514
 3662TIP3    H110992   0.545   2.420   4.419
 3662TIP3    H210993   0.642   2.412   4.535
 3663TIP3   OH210994   0.114   1.042   2.097
 3663TIP3    H110995   0.177   1.110   2.074
 3663TIP3    H210996   0.149   0.963   2.055
 3664TIP3   OH210997   4.694   1.245   2.070
 3664TIP3    H110998   4.730   1.213   1.987
 3664TIP3    H210999   4.730   1.187   2.137
 3665TIP3   OH211000   4.528   4.834   0.473
 3665TIP3    H111001   4.620   4.832   0.501
 3665TIP3    H211002   4.527   4.786   0.391
 3666TIP3   OH211003   3.967   3.024   3.236
 3666TIP3    H111004   3.990   2.953   3.295
 3666TIP3    H211005   3.873   3.016   3.223
 3667TIP3   OH211006   0.532   1.862   0.723
 3667TIP3    H111007   0.543   1.815   0.640
 3667TIP3    H211008   0.605   1.832   0.777
 3668TIP3   OH211009   4.736   2.266   0.176
 3668TIP3    H111010   4.771   2.248   0.088
 3668TIP3    H211011   4.803   2.231   0.235
 3669TIP3   OH211012   4.505   5.130   2.112
 3669TIP3    H111013   4.462   5.065   2.168
 3669TIP3    H211014   4.432   5.178   2.072
 3670TIP3   OH211015   0.243   5.379   2.795
 3670TIP3    H111016   0.231   5.436   2.719
 3670TIP3    H211017   0.198   5.298   2.771
 3671TIP3   OH211018   3.088   0.119   4.581
 3671TIP3    H111019   3.055   0.208   4.590
 3671TIP3    H211020   3.102   0.089   4.671
 3672TIP3   OH211021   3.377   4.687   4.862
 3672TIP3    H111022   3.388   4.769   4.814
 3672TIP3    H211023   3.350   4.714   4.950
 3673TIP3   OH211024   5.287   5.308   3.942
 3673TIP3    H111025   5.257   5.393   3.907
 3673TIP3    H211026   5.380   5.306   3.923
 3674TIP3   OH211027   4.794   1.878   2.479
 3674TIP3    H111028   4.714   1.906   2.525
 3674TIP3    H211029   4.762   1.834   2.401
 3675TIP3   OH211030   5.014   3.418   2.061
 3675TIP3    H111031   5.065   3.347   2.102
 3675TIP3    H211032   5.004   3.483   2.131
 3676TIP3   OH211033   0.010   2.100   4.863
 3676TIP3    H111034   0.075   2.154   4.908
 3676TIP3    H211035   0.053   2.016   4.851
 3677TIP3   OH211036   2.364   0.957   0.345
 3677TIP3    H111037   2.301   0.960   0.416
 3677TIP3    H211038   2.321   0.908   0.276
 3678TIP3   OH211039   0.704   4.455   2.300
 3678TIP3    H111040   0.790   4.478   2.335
 3678TIP3    H211041   0.679   4.377   2.349
 3679TIP3   OH211042   2.574   4.764   2.041
 3679TIP3    H111043   2.646   4.787   2.099
 3679TIP3    H211044   2.615   4.714   1.971
 3680TIP3   OH211045   0.150   0.525   0.579
 3680TIP3    H111046   0.131   0.455   0.517
 3680TIP3    H211047   0.115   0.604   0.538
 3681TIP3   OH211048   5.837   3.368   0.962
 3681TIP3    H111049   5.841   3.315   1.042
 3681TIP3    H211050   5.753   3.412   0.967
 3682TIP3   OH211051   3.487   3.422   0.540
 3682TIP3    H111052   3.422   3.386   0.600
 3682TIP3    H211053   3.443   3.423   0.455
 3683TIP3   OH211054   0.794   1.755   1.489
 3683TIP3    H111055   0.810   1.850   1.491
 3683TIP3    H211056   0.714   1.744   1.540
 3684TIP3   OH211057   5.193   4.292   0.688
 3684TIP3    H111058   5.104   4.260   0.700
 3684TIP3    H211059   5.194   4.376   0.733
 3685TIP3   OH211060   2.792   5.581   3.025
 3685TIP3    H111061   2.850   5.579   3.101
 3685TIP3    H211062   2.824   5.512   2.967
 3686TIP3   OH211063   0.624   0.179   1.181
 3686TIP3    H111064   0.606   0.249   1.243
 3686TIP3    H211065   0.557   0.189   1.113
 3687TIP3   OH211066   2.956   5.875   1.892
 3687TIP3    H111067   3.025   5.926   1.935
 3687TIP3    H211068   2.976   5.880   1.799
 3688TIP3   OH211069   1.267   4.102   0.883
 3688TIP3    H111070   1.339   4.085   0.822
 3688TIP3    H211071   1.199   4.142   0.829
 3689TIP3   OH211072   4.040   4.319   4.410
 3689TIP3    H111073   4.067   4.233   4.381
 3689TIP3    H211074   4.069   4.324   4.501
 3690TIP3   OH211075   3.882   4.668   1.812
 3690TIP3    H111076   3.820   4.596   1.824
 3690TIP3    H211077   3.906   4.695   1.901
 3691TIP3   OH211078   6.238   0.367   2.306
 3691TIP3    H111079   6.256   0.443   2.361
 3691TIP3    H211080   6.310   0.365   2.243
 3692TIP3   OH211081   1.050   0.433   3.725
 3692TIP3    H111082   0.974   0.486   3.700
 3692TIP3    H211083   1.039   0.419   3.819
 3693TIP3   OH211084   0.958   3.590   1.470
 3693TIP3    H111085   1.009   3.617   1.546
 3693TIP3    H211086   0.890   3.532   1.506
 3694TIP3   OH211087   5.329   1.999   2.332
 3694TIP3    H111088   5.378   2.077   2.306
 3694TIP3    H211089   5.256   1.995   2.271
 3695TIP3   OH211090   5.317   0.609   0.535
 3695TIP3    H111091   5.306   0.673   0.605
 3695TIP3    H211092   5.408   0.619   0.508
 3696TIP3   OH211093   3.940   1.308   2.950
 3696TIP3    H111094   3.977   1.222   2.928
 3696TIP3    H211095   3.847   1.299   2.930
 3697TIP3   OH211096   5.837   1.673   3.484
 3697TIP3    H111097   5.744   1.659   3.499
 3697TIP3    H211098   5.842   1.701   3.392
 3698TIP3   OH211099   4.197   0.669   1.809
 3698TIP3    H111100   4.122   0.622   1.772
 3698TIP3    H211101   4.239   0.711   1.734
 3699TIP3   OH211102   2.529   4.621   0.891
 3699TIP3    H111103   2.591   4.691   0.909
 3699TIP3    H211104   2.579   4.540   0.904
 3700TIP3   OH211105   5.828   1.761   0.089
 3700TIP3    H111106   5.879   1.747   0.169
 3700TIP3    H211107   5.789   1.848   0.100
 3701TIP3   OH211108   0.353   1.798   3.874
 3701TIP3    H111109   0.356   1.893   3.877
 3701TIP3    H211110   0.313   1.772   3.957
 3702TIP3   OH211111   4.295   2.651   4.667
 3702TIP3    H111112   4.318   2.700   4.588
 3702TIP3    H211113   4.322   2.561   4.648
 3703TIP3   OH211114   4.518   1.614   2.787
 3703TIP3    H111115   4.548   1.625   2.696
 3703TIP3    H211116   4.444   1.674   2.794
 3704TIP3   OH211117   2.418   0.717   2.147
 3704TIP3    H111118   2.336   0.751   2.111
 3704TIP3    H211119   2.450   0.787   2.204
 3705TIP3   OH211120   0.460   0.625   1.937
 3705TIP3    H111121   0.470   0.603   2.030
 3705TIP3    H211122   0.542   0.670   1.914
 3706TIP3   OH211123   1.941   0.195   4.232
 3706TIP3    H111124   1.996   0.130   4.276
 3706TIP3    H211125   1.973   0.195   4.141
 3707TIP3   OH211126   2.607   0.895   2.844
 3707TIP3    H111127   2.598   0.989   2.829
 3707TIP3    H211128   2.533   0.856   2.798
 3708TIP3   OH211129   4.827   5.218   3.121
 3708TIP3    H111130   4.841   5.216   3.216
 3708TIP3    H211131   4.736   5.190   3.110
 3709TIP3   OH211132   5.688   5.375   2.584
 3709TIP3    H111133   5.770   5.409   2.548
 3709TIP3    H211134   5.709   5.353   2.675
 3710TIP3   OH211135   4.187   0.401   0.864
 3710TIP3    H111136   4.149   0.469   0.809
 3710TIP3    H211137   4.257   0.444   0.912
 3711TIP3   OH211138   4.837   1.057   2.861
 3711TIP3    H111139   4.782   1.043   2.784
 3711TIP3    H211140   4.836   1.152   2.874
 3712TIP3   OH211141   0.721   2.187   3.387
 3712TIP3    H111142   0.653   2.250   3.411
 3712TIP3    H211143   0.794   2.207   3.446
 3713TIP3   OH211144   5.694   5.926   1.317
 3713TIP3    H111145   5.679   6.012   1.278
 3713TIP3    H211146   5.622   5.871   1.286
 3714TIP3   OH211147   4.454   4.771   1.308
 3714TIP3    H111148   4.405   4.850   1.331
 3714TIP3    H211149   4.481   4.734   1.392
 3715TIP3   OH211150   4.558   5.375   3.847
 3715TIP3    H111151   4.478   5.381   3.899
 3715TIP3    H211152   4.622   5.425   3.896
 3716TIP3   OH211153   2.994   0.790   2.073
 3716TIP3    H111154   3.014   0.721   2.136
 3716TIP3    H211155   2.952   0.745   1.999
 3717TIP3   OH211156   6.264   4.823   3.906
 3717TIP3    H111157   6.289   4.803   3.816
 3717TIP3    H211158   6.278   4.741   3.954
 3718TIP3   OH211159   3.774   1.899   2.402
 3718TIP3    H111160   3.732   1.815   2.386
 3718TIP3    H211161   3.722   1.962   2.351
 3719TIP3   OH211162   1.675   2.865   3.247
 3719TIP3    H111163   1.681   2.907   3.333
 3719TIP3    H211164   1.765   2.843   3.225
 3720TIP3   OH211165   4.293   0.400   2.802
 3720TIP3    H111166   4.202   0.375   2.787
 3720TIP3    H211167   4.331   0.407   2.714
 3721TIP3   OH211168   1.880   4.764   2.937
 3721TIP3    H111169   1.817   4.693   2.942
 3721TIP3    H211170   1.828   4.844   2.950
 3722TIP3   OH211171   3.832   4.035   2.647
 3722TIP3    H111172   3.914   3.985   2.646
 3722TIP3    H211173   3.847   4.104   2.712
 3723TIP3   OH211174   0.368   2.613   0.516
 3723TIP3    H111175   0.439   2.577   0.463
 3723TIP3    H211176   0.359   2.552   0.589
 3724TIP3   OH211177   4.899   0.091   1.750
 3724TIP3    H111178   4.972   0.116   1.693
 3724TIP3    H211179   4.829   0.066   1.690
 3725TIP3   OH211180   3.735   4.652   4.971
 3725TIP3    H111181   3.729   4.556   4.974
 3725TIP3    H211182   3.740   4.672   4.878
 3726TIP3   OH211183   0.274   2.813   2.761
 3726TIP3    H111184   0.186   2.837   2.789
 3726TIP3    H211185   0.274   2.717   2.762
 3727TIP3   OH211186   1.150   2.685   3.824
 3727TIP3    H111187   1.239   2.712   3.845
 3727TIP3    H211188   1.151   2.672   3.729
 3728TIP3   OH211189   0.460   4.182   2.934
 3728TIP3    H111190   0.525   4.156   2.870
 3728TIP3    H211191   0.429   4.100   2.972
 3729TIP3   OH211192   4.622   1.109   0.192
 3729TIP3    H111193   4.684   1.161   0.140
 3729TIP3    H211194   4.665   1.099   0.277
 3730TIP3   OH211195   0.007   0.787   3.342
 3730TIP3    H111196  -0.047   0.866   3.345
 3730TIP3    H211197  -0.055   0.715   3.331
 3731TIP3   OH211198   5.803   4.706   0.973
 3731TIP3    H111199   5.811   4.706   0.878
 3731TIP3    H211200   5.858   4.780   1.001
 3732TIP3   OH211201   5.651   4.673   3.367
 3732TIP3    H111202   5.701   4.598   3.334
 3732TIP3    H211203   5.617   4.644   3.451
 3733TIP3   OH211204   1.561   3.000   1.417
 3733TIP3    H111205   1.621   3.038   1.481
 3733TIP3    H211206   1.617   2.956   1.354
 3734TIP3   OH211207   4.267   1.628   2.500
 3734TIP3    H111208   4.234   1.692   2.563
 3734TIP3    H211209   4.189   1.593   2.458
 3735TIP3   OH211210   4.466  -0.008   0.998
 3735TIP3    H111211   4.378   0.029   0.998
 3735TIP3    H211212   4.518   0.053   1.050
 3736TIP3   OH211213   0.937   1.756   5.069
 3736TIP3    H111214   0.898   1.767   5.156
 3736TIP3    H211215   1.027   1.787   5.079
 3737TIP3   OH211216   2.031   4.469   0.878
 3737TIP3    H111217   2.096   4.538   0.873
 3737TIP3    H211218   1.967   4.490   0.810
 3738TIP3   OH211219   4.804   4.158   2.922
 3738TIP3    H111220   4.867   4.224   2.951
 3738TIP3    H211221   4.856   4.095   2.873
 3739TIP3   OH211222   1.835   0.216   0.624
 3739TIP3    H111223   1.854   0.307   0.601
 3739TIP3    H211224   1.913   0.186   0.671
 3740TIP3   OH211225   5.758   5.152   4.502
 3740TIP3    H111226   5.765   5.236   4.457
 3740TIP3    H211227   5.757   5.087   4.431
 3741TIP3   OH211228   3.862   5.173   2.622
 3741TIP3    H111229   3.949   5.141   2.642
 3741TIP3    H211230   3.803   5.102   2.649
 3742TIP3   OH211231   5.574   2.233   2.776
 3742TIP3    H111232   5.668   2.219   2.771
 3742TIP3    H211233   5.559   2.313   2.726
 3743TIP3   OH211234   3.623   2.562   0.432
 3743TIP3    H111235   3.707   2.604   0.418
 3743TIP3    H211236   3.634   2.509   0.511
 3744TIP3   OH211237   1.489   5.008   4.137
 3744TIP3    H111238   1.515   5.076   4.199
 3744TIP3    H211239   1.536   4.930   4.166
 3745TIP3   OH211240   1.981   3.108   2.625
 3745TIP3    H111241   2.045   3.038   2.632
 3745TIP3    H211242   1.932   3.105   2.707
 3746TIP3   OH211243   1.706   4.964   1.806
 3746TIP3    H111244   1.731   4.874   1.826
 3746TIP3    H211245   1.780   5.017   1.838
 3747TIP3   OH211246   4.350   4.571   0.184
 3747TIP3    H111247   4.296   4.622   0.245
 3747TIP3    H211248   4.297   4.494   0.163
 3748TIP3   OH211249   1.766   2.674   2.439
 3748TIP3    H111250   1.730   2.593   2.403
 3748TIP3    H211251   1.847   2.647   2.482
 3749TIP3   OH211252   5.542   3.990   0.799
 3749TIP3    H111253   5.542   3.897   0.776
 3749TIP3    H211254   5.621   4.002   0.851
 3750TIP3   OH211255   5.904   5.611   3.237
 3750TIP3    H111256   5.957   5.655   3.303
 3750TIP3    H211257   5.906   5.670   3.162
 3751TIP3   OH211258   4.055   2.213   1.053
 3751TIP3    H111259   4.065   2.136   1.110
 3751TIP3    H211260   3.961   2.223   1.043
 3752TIP3   OH211261   6.202   0.724   0.125
 3752TIP3    H111262   6.204   0.718   0.220
 3752TIP3    H211263   6.269   0.790   0.104
 3753TIP3   OH211264   3.522   3.922   2.057
 3753TIP3    H111265   3.449   3.979   2.032
 3753TIP3    H211266   3.574   3.915   1.977
 3754TIP3   OH211267   2.067   1.804   1.070
 3754TIP3    H111268   2.105   1.793   0.983
 3754TIP3    H211269   2.142   1.823   1.127
 3755TIP3   OH211270   0.056   5.126   1.683
 3755TIP3    H111271  -0.033   5.093   1.691
 3755TIP3    H211272   0.090   5.123   1.773
 3756TIP3   OH211273   5.109   2.680   0.984
 3756TIP3    H111274   5.037   2.723   1.031
 3756TIP3    H211275   5.160   2.637   1.053
 3757TIP3   OH211276   3.375   5.153   0.542
 3757TIP3    H111277   3.428   5.191   0.473
 3757TIP3    H211278   3.351   5.066   0.509
 3758TIP3   OH211279   3.787   5.733   3.402
 3758TIP3    H111280   3.775   5.660   3.342
 3758TIP3    H211281   3.807   5.693   3.487
 3759TIP3   OH211282   4.413   2.746   2.724
 3759TIP3    H111283   4.349   2.719   2.791
 3759TIP3    H211284   4.493   2.765   2.774
 3760TIP3   OH211285   5.000   0.944   2.280
 3760TIP3    H111286   5.088   0.931   2.315
 3760TIP3    H211287   5.014   0.983   2.194
 3761TIP3   OH211288   2.428   1.423   1.896
 3761TIP3    H111289   2.468   1.350   1.943
 3761TIP3    H211290   2.374   1.467   1.962
 3762TIP3   OH211291   2.011   0.204   3.946
 3762TIP3    H111292   1.941   0.266   3.927
 3762TIP3    H211293   1.988   0.125   3.897
 3763TIP3   OH211294   5.877   0.384   2.508
 3763TIP3    H111295   5.929   0.337   2.574
 3763TIP3    H211296   5.923   0.467   2.497
 3764TIP3   OH211297   6.257   1.931   2.252
 3764TIP3    H111298   6.204   2.000   2.211
 3764TIP3    H211299   6.258   1.861   2.188
 3765TIP3   OH211300   4.866   4.185   3.911
 3765TIP3    H111301   4.930   4.128   3.869
 3765TIP3    H211302   4.842   4.139   3.992
 3766TIP3   OH211303   2.661   4.481   3.179
 3766TIP3    H111304   2.639   4.408   3.121
 3766TIP3    H211305   2.649   4.559   3.125
 3767TIP3   OH211306   1.916   0.973   0.187
 3767TIP3    H111307   1.872   0.924   0.118
 3767TIP3    H211308   1.978   1.029   0.140
 3768TIP3   OH211309   1.225   4.019   3.694
 3768TIP3    H111310   1.167   3.979   3.758
 3768TIP3    H211311   1.247   4.105   3.731
 3769TIP3   OH211312   4.618   4.708   1.094
 3769TIP3    H111313   4.547   4.722   1.156
 3769TIP3    H211314   4.574   4.689   1.011
 3770TIP3   OH211315   0.482   4.730   1.664
 3770TIP3    H111316   0.390   4.728   1.638
 3770TIP3    H211317   0.516   4.812   1.629
 3771TIP3   OH211318   0.607   0.084   0.189
 3771TIP3    H111319   0.637   0.045   0.271
 3771TIP3    H211320   0.638   0.174   0.193
 3772TIP3   OH211321   3.871   5.174   4.611
 3772TIP3    H111322   3.788   5.202   4.649
 3772TIP3    H211323   3.933   5.242   4.635
 3773TIP3   OH211324   4.718   2.409   2.281
 3773TIP3    H111325   4.659   2.435   2.211
 3773TIP3    H211326   4.661   2.379   2.351
 3774TIP3   OH211327   1.152   4.307   0.324
 3774TIP3    H111328   1.101   4.275   0.250
 3774TIP3    H211329   1.164   4.230   0.380
 3775TIP3   OH211330   3.694   2.326   3.559
 3775TIP3    H111331   3.719   2.275   3.635
 3775TIP3    H211332   3.761   2.307   3.493
 3776TIP3   OH211333   1.950   2.468   0.631
 3776TIP3    H111334   2.002   2.396   0.594
 3776TIP3    H211335   2.013   2.520   0.681
 3777TIP3   OH211336   4.794   3.610   1.980
 3777TIP3    H111337   4.713   3.591   1.932
 3777TIP3    H211338   4.850   3.534   1.965
 3778TIP3   OH211339   0.381   1.418   3.087
 3778TIP3    H111340   0.454   1.383   3.037
 3778TIP3    H211341   0.350   1.493   3.036
 3779TIP3   OH211342   1.451   0.215   3.522
 3779TIP3    H111343   1.357   0.220   3.539
 3779TIP3    H211344   1.482   0.305   3.535
 3780TIP3   OH211345   4.744   3.646   1.562
 3780TIP3    H111346   4.759   3.652   1.468
 3780TIP3    H211347   4.831   3.652   1.601
 3781TIP3   OH211348   6.086   5.885   4.798
 3781TIP3    H111349   6.176   5.879   4.766
 3781TIP3    H211350   6.064   5.978   4.789
 3782TIP3   OH211351   2.874   0.227   1.028
 3782TIP3    H111352   2.942   0.268   1.081
 3782TIP3    H211353   2.799   0.219   1.087
 3783TIP3   OH211354   4.892   2.177   0.742
 3783TIP3    H111355   4.927   2.205   0.828
 3783TIP3    H211356   4.952   2.108   0.713
 3784TIP3   OH211357   2.010   0.463   4.289
 3784TIP3    H111358   2.014   0.486   4.382
 3784TIP3    H211359   1.967   0.378   4.286
 3785TIP3   OH211360   6.190   5.105   0.997
 3785TIP3    H111361   6.283   5.127   0.994
 3785TIP3    H211362   6.146   5.182   0.959
 3786TIP3   OH211363   5.738   0.307   3.279
 3786TIP3    H111364   5.710   0.392   3.247
 3786TIP3    H211365   5.656   0.260   3.295
 3787TIP3   OH211366   2.972   5.772   1.595
 3787TIP3    H111367   2.936   5.750   1.509
 3787TIP3    H211368   3.036   5.841   1.578
 3788TIP3   OH211369   6.084   2.128   1.007
 3788TIP3    H111370   6.024   2.070   1.055
 3788TIP3    H211371   6.075   2.101   0.916
 3789TIP3   OH211372   1.378   1.303   1.994
 3789TIP3    H111373   1.361   1.261   1.910
 3789TIP3    H211374   1.472   1.295   2.006
 3790TIP3   OH211375   0.859   4.077   3.000
 3790TIP3    H111376   0.915   4.037   3.066
 3790TIP3    H211377   0.918   4.100   2.929
 3791TIP3   OH211378   2.623   0.017   2.210
 3791TIP3    H111379   2.620   0.100   2.258
 3791TIP3    H211380   2.532  -0.014   2.212
 3792TIP3   OH211381   1.142   2.827   1.407
 3792TIP3    H111382   1.076   2.850   1.473
 3792TIP3    H211383   1.100   2.849   1.324
 3793TIP3   OH211384   5.441   4.334   2.772
 3793TIP3    H111385   5.358   4.310   2.730
 3793TIP3    H211386   5.438   4.291   2.857
 3794TIP3   OH211387   5.732   4.878   0.442
 3794TIP3    H111388   5.741   4.890   0.347
 3794TIP3    H211389   5.654   4.823   0.451
 3795TIP3   OH211390   0.545   0.298   3.928
 3795TIP3    H111391   0.536   0.267   4.018
 3795TIP3    H211392   0.619   0.358   3.930
 3796TIP3   OH211393   5.733   0.288   1.108
 3796TIP3    H111394   5.754   0.237   1.030
 3796TIP3    H211395   5.710   0.222   1.174
 3797TIP3   OH211396   1.001   4.942   0.240
 3797TIP3    H111397   1.089   4.941   0.277
 3797TIP3    H211398   0.963   4.858   0.266
 3798TIP3   OH211399   5.801  -0.005   3.962
 3798TIP3    H111400   5.778  -0.055   3.884
 3798TIP3    H211401   5.839   0.076   3.928
 3799TIP3   OH211402   4.740   1.928   3.488
 3799TIP3    H111403   4.815   1.880   3.526
 3799TIP3    H211404   4.685   1.950   3.563
 3800TIP3   OH211405   0.584   3.202   3.749
 3800TIP3    H111406   0.665   3.235   3.710
 3800TIP3    H211407   0.613   3.151   3.824
 3801TIP3   OH211408   0.434   2.504   1.991
 3801TIP3    H111409   0.510   2.467   2.035
 3801TIP3    H211410   0.469   2.575   1.937
 3802TIP3   OH211411   2.939   0.816   4.606
 3802TIP3    H111412   2.945   0.897   4.556
 3802TIP3    H211413   2.852   0.781   4.586
 3803TIP3   OH211414   3.943   1.057   1.206
 3803TIP3    H111415   3.915   1.111   1.132
 3803TIP3    H211416   3.996   1.116   1.259
 3804TIP3   OH211417   5.321   0.384   0.672
 3804TIP3    H111418   5.277   0.441   0.609
 3804TIP3    H211419   5.251   0.343   0.721
 3805TIP3   OH211420   4.445   2.125   3.837
 3805TIP3    H111421   4.406   2.204   3.875
 3805TIP3    H211422   4.419   2.054   3.896
 3806TIP3   OH211423   5.696   4.622   0.715
 3806TIP3    H111424   5.657   4.543   0.679
 3806TIP3    H211425   5.623   4.670   0.754
 3807TIP3   OH211426   5.997   3.381   4.196
 3807TIP3    H111427   6.013   3.319   4.124
 3807TIP3    H211428   6.085   3.404   4.228
 3808TIP3   OH211429   2.170   5.044   2.659
 3808TIP3    H111430   2.157   5.068   2.567
 3808TIP3    H211431   2.252   5.087   2.683
 3809TIP3   OH211432   2.337   4.747   2.500
 3809TIP3    H111433   2.359   4.835   2.529
 3809TIP3    H211434   2.278   4.713   2.567
 3810TIP3   OH211435   1.683   5.715   3.352
 3810TIP3    H111436   1.685   5.751   3.263
 3810TIP3    H211437   1.620   5.770   3.398
 3811TIP3   OH211438   4.403   3.027   1.510
 3811TIP3    H111439   4.359   3.051   1.429
 3811TIP3    H211440   4.496   3.022   1.488
 3812TIP3   OH211441   0.630   1.596   2.221
 3812TIP3    H111442   0.702   1.594   2.284
 3812TIP3    H211443   0.592   1.508   2.225
 3813TIP3   OH211444   0.445   1.527   1.424
 3813TIP3    H111445   0.429   1.451   1.480
 3813TIP3    H211446   0.359   1.570   1.416
 3814TIP3   OH211447   2.676   4.566   1.218
 3814TIP3    H111448   2.584   4.592   1.227
 3814TIP3    H211449   2.724   4.649   1.211
 3815TIP3   OH211450   1.164   2.683   0.874
 3815TIP3    H111451   1.162   2.778   0.884
 3815TIP3    H211452   1.097   2.650   0.933
 3816TIP3   OH211453   2.101   3.362   4.762
 3816TIP3    H111454   2.138   3.322   4.683
 3816TIP3    H211455   2.069   3.289   4.814
 3817TIP3   OH211456   1.571   2.283   1.245
 3817TIP3    H111457   1.607   2.306   1.331
 3817TIP3    H211458   1.645   2.294   1.185
 3818TIP3   OH211459   4.409   5.878   1.415
 3818TIP3    H111460   4.376   5.893   1.504
 3818TIP3    H211461   4.476   5.811   1.425
 3819TIP3   OH211462   0.544   0.211   2.092
 3819TIP3    H111463   0.476   0.227   2.158
 3819TIP3    H211464   0.508   0.144   2.035
 3820TIP3   OH211465   5.324   2.309   4.552
 3820TIP3    H111466   5.234   2.289   4.577
 3820TIP3    H211467   5.339   2.255   4.474
 3821TIP3   OH211468   3.261   2.407   0.621
 3821TIP3    H111469   3.175   2.378   0.591
 3821TIP3    H211470   3.313   2.414   0.541
 3822TIP3   OH211471   3.018   5.062   0.629
 3822TIP3    H111472   3.107   5.079   0.658
 3822TIP3    H211473   2.966   5.134   0.666
 3823TIP3   OH211474   0.532   2.499   0.307
 3823TIP3    H111475   0.545   2.457   0.222
 3823TIP3    H211476   0.566   2.436   0.370
 3824TIP3   OH211477   3.237   3.705   3.011
 3824TIP3    H111478   3.308   3.741   2.958
 3824TIP3    H211479   3.184   3.781   3.035
 3825TIP3   OH211480   6.167   4.820   1.477
 3825TIP3    H111481   6.172   4.902   1.429
 3825TIP3    H211482   6.222   4.760   1.426
 3826TIP3   OH211483   1.195   4.948   1.109
 3826TIP3    H111484   1.210   4.856   1.128
 3826TIP3    H211485   1.106   4.951   1.073
 3827TIP3   OH211486   5.163   5.937   4.127
 3827TIP3    H111487   5.186   5.850   4.160
 3827TIP3    H211488   5.073   5.951   4.155
 3828TIP3   OH211489   5.164   3.905   0.849
 3828TIP3    H111490   5.218   3.961   0.794
 3828TIP3    H211491   5.135   3.962   0.921
 3829TIP3   OH211492   3.393   5.538   2.365
 3829TIP3    H111493   3.426   5.592   2.436
 3829TIP3    H211494   3.349   5.465   2.408
 3830TIP3   OH211495   1.583   4.593   1.891
 3830TIP3    H111496   1.547   4.678   1.865
 3830TIP3    H211497   1.677   4.600   1.872
 3831TIP3   OH211498   5.338   2.774   1.626
 3831TIP3    H111499   5.385   2.692   1.608
 3831TIP3    H211500   5.245   2.751   1.619
 3832TIP3   OH211501   2.846   0.974   1.266
 3832TIP3    H111502   2.814   1.061   1.292
 3832TIP3    H211503   2.890   0.940   1.344
 3833TIP3   OH211504   1.032   4.995   3.781
 3833TIP3    H111505   1.016   5.066   3.719
 3833TIP3    H211506   1.124   5.006   3.807
 3834TIP3   OH211507   1.280   4.583   2.422
 3834TIP3    H111508   1.212   4.536   2.471
 3834TIP3    H211509   1.255   4.675   2.429
 3835TIP3   OH211510   5.457   4.874   3.332
 3835TIP3    H111511   5.472   4.932   3.406
 3835TIP3    H211512   5.515   4.799   3.348
 3836TIP3   OH211513   6.163   5.475   4.646
 3836TIP3    H111514   6.090   5.482   4.708
 3836TIP3    H211515   6.216   5.402   4.681
 3837TIP3   OH211516   3.594   2.808   1.193
 3837TIP3    H111517   3.619   2.886   1.145
 3837TIP3    H211518   3.626   2.735   1.140
 3838TIP3   OH211519   5.795   2.181   0.835
 3838TIP3    H111520   5.792   2.275   0.820
 3838TIP3    H211521   5.882   2.155   0.805
 3839TIP3   OH211522   4.406   0.819   4.335
 3839TIP3    H111523   4.383   0.743   4.282
 3839TIP3    H211524   4.459   0.784   4.407
 3840TIP3   OH211525   2.725   2.072   1.519
 3840TIP3    H111526   2.749   2.000   1.461
 3840TIP3    H211527   2.676   2.031   1.590
 3841TIP3   OH211528   1.143   3.671   4.107
 3841TIP3    H111529   1.236   3.685   4.124
 3841TIP3    H211530   1.115   3.751   4.063
 3842TIP3   OH211531   4.112   5.009   2.272
 3842TIP3    H111532   4.169   5.074   2.312
 3842TIP3    H211533   4.027   5.023   2.312
 3843TIP3   OH211534   2.753   2.854   2.757
 3843TIP3    H111535   2.792   2.897   2.681
 3843TIP3    H211536   2.751   2.922   2.824
 3844TIP3   OH211537   1.519   0.985   3.758
 3844TIP3    H111538   1.503   1.065   3.709
 3844TIP3    H211539   1.614   0.973   3.755
 3845TIP3   OH211540   0.106   4.004   2.698
 3845TIP3    H111541   0.010   4.008   2.705
 3845TIP3    H211542   0.125   4.024   2.607
 3846TIP3   OH211543   4.585   3.910   1.706
 3846TIP3    H111544   4.523   3.981   1.687
 3846TIP3    H211545   4.667   3.938   1.666
 3847TIP3   OH211546   1.485   1.262   0.111
 3847TIP3    H111547   1.567   1.304   0.138
 3847TIP3    H211548   1.463   1.204   0.184
 3848TIP3   OH211549   5.647   4.743   3.823
 3848TIP3    H111550   5.691   4.766   3.904
 3848TIP3    H211551   5.699   4.784   3.754
 3849TIP3   OH211552   2.366   3.028   1.497
 3849TIP3    H111553   2.336   2.985   1.577
 3849TIP3    H211554   2.328   2.975   1.426
 3850TIP3   OH211555   4.261   2.624   3.372
 3850TIP3    H111556   4.322   2.660   3.436
 3850TIP3    H211557   4.177   2.622   3.419
 3851TIP3   OH211558   0.975   5.158   1.198
 3851TIP3    H111559   1.063   5.174   1.164
 3851TIP3    H211560   0.954   5.237   1.246
 3852TIP3   OH211561   5.662   0.646   2.846
 3852TIP3    H111562   5.721   0.572   2.827
 3852TIP3    H211563   5.601   0.648   2.773
 3853TIP3   OH211564   5.942   1.703   1.895
 3853TIP3    H111565   5.893   1.695   1.977
 3853TIP3    H211566   5.947   1.614   1.860
 3854TIP3   OH211567   3.701   0.483   3.077
 3854TIP3    H111568   3.782   0.449   3.115
 3854TIP3    H211569   3.729   0.523   2.995
 3855TIP3   OH211570   4.194   3.756   0.286
 3855TIP3    H111571   4.259   3.815   0.247
 3855TIP3    H211572   4.221   3.748   0.378
 3856TIP3   OH211573   1.253   0.816   0.463
 3856TIP3    H111574   1.175   0.834   0.411
 3856TIP3    H211575   1.282   0.730   0.433
 3857TIP3   OH211576   1.287   3.272   1.935
 3857TIP3    H111577   1.298   3.199   1.996
 3857TIP3    H211578   1.316   3.237   1.850
 3858TIP3   OH211579   1.144   3.156   4.576
 3858TIP3    H111580   1.058   3.112   4.579
 3858TIP3    H211581   1.136   3.219   4.505
 3859TIP3   OH211582   4.057   1.056   3.031
 3859TIP3    H111583   4.148   1.043   3.004
 3859TIP3    H211584   4.019   0.969   3.033
 3860TIP3   OH211585   6.099   3.163   5.088
 3860TIP3    H111586   6.116   3.235   5.149
 3860TIP3    H211587   6.037   3.107   5.135
 3861TIP3   OH211588   5.573   2.036   0.903
 3861TIP3    H111589   5.527   1.989   0.834
 3861TIP3    H211590   5.654   2.067   0.861
 3862TIP3   OH211591   4.038   5.045   3.639
 3862TIP3    H111592   4.102   5.032   3.709
 3862TIP3    H211593   4.068   5.123   3.592
 3863TIP3   OH211594   3.219   0.982   2.032
 3863TIP3    H111595   3.183   1.030   1.958
 3863TIP3    H211596   3.143   0.938   2.071
 3864TIP3   OH211597   1.170   1.967   3.538
 3864TIP3    H111598   1.143   2.041   3.484
 3864TIP3    H211599   1.162   1.891   3.480
 3865TIP3   OH211600   0.851   2.205   1.895
 3865TIP3    H111601   0.932   2.160   1.916
 3865TIP3    H211602   0.795   2.138   1.857
 3866TIP3   OH211603   4.045   5.184   1.144
 3866TIP3    H111604   4.038   5.094   1.111
 3866TIP3    H211605   4.090   5.231   1.075
 3867TIP3   OH211606   0.898   2.309   0.426
 3867TIP3    H111607   0.978   2.360   0.429
 3867TIP3    H211608   0.899   2.269   0.339
 3868TIP3   OH211609   2.928   3.653   3.102
 3868TIP3    H111610   2.983   3.579   3.079
 3868TIP3    H211611   2.864   3.617   3.164
 3869TIP3   OH211612   5.261   5.825   2.577
 3869TIP3    H111613   5.331   5.760   2.578
 3869TIP3    H211614   5.258   5.858   2.667
 3870TIP3   OH211615   0.199   0.207   2.806
 3870TIP3    H111616   0.195   0.124   2.854
 3870TIP3    H211617   0.250   0.186   2.727
 3871TIP3   OH211618   0.193   0.076   4.718
 3871TIP3    H111619   0.099   0.063   4.712
 3871TIP3    H211620   0.225  -0.002   4.764
 3872TIP3   OH211621   1.415   4.380   1.440
 3872TIP3    H111622   1.466   4.441   1.385
 3872TIP3    H211623   1.449   4.294   1.418
 3873TIP3   OH211624   1.396   1.379   4.309
 3873TIP3    H111625   1.303   1.400   4.312
 3873TIP3    H211626   1.424   1.376   4.400
 3874TIP3   OH211627   4.438   5.124   3.451
 3874TIP3    H111628   4.469   5.120   3.360
 3874TIP3    H211629   4.478   5.048   3.493
 3875TIP3   OH211630   4.471   3.161   3.038
 3875TIP3    H111631   4.393   3.109   3.058
 3875TIP3    H211632   4.542   3.096   3.031
 3876TIP3   OH211633   0.750   4.183   0.018
 3876TIP3    H111634   0.697   4.165  -0.060
 3876TIP3    H211635   0.714   4.264   0.054
 3877TIP3   OH211636   3.326   5.913   2.534
 3877TIP3    H111637   3.326   5.967   2.454
 3877TIP3    H211638   3.330   5.977   2.605
 3878TIP3   OH211639   4.586   5.739   1.842
 3878TIP3    H111640   4.543   5.660   1.809
 3878TIP3    H211641   4.676   5.732   1.813
 3879TIP3   OH211642   0.612   4.430   0.114
 3879TIP3    H111643   0.600   4.508   0.059
 3879TIP3    H211644   0.524   4.394   0.125
 3880TIP3   OH211645   6.139   3.858   0.721
 3880TIP3    H111646   6.065   3.868   0.662
 3880TIP3    H211647   6.123   3.921   0.791
 3881TIP3   OH211648   0.685   3.910   3.258
 3881TIP3    H111649   0.665   3.825   3.298
 3881TIP3    H211650   0.616   3.923   3.193
 3882TIP3   OH211651   5.617   3.277   1.904
 3882TIP3    H111652   5.675   3.207   1.876
 3882TIP3    H211653   5.613   3.336   1.828
 3883TIP3   OH211654   6.068   0.895   1.279
 3883TIP3    H111655   6.096   0.939   1.198
 3883TIP3    H211656   6.145   0.896   1.335
 3884TIP3   OH211657   5.238   2.271   0.163
 3884TIP3    H111658   5.201   2.308   0.243
 3884TIP3    H211659   5.195   2.319   0.092
 3885TIP3   OH211660   2.348   2.743   4.890
 3885TIP3    H111661   2.439   2.772   4.885
 3885TIP3    H211662   2.343   2.670   4.829
 3886TIP3   OH211663   0.958   5.509   4.266
 3886TIP3    H111664   0.907   5.504   4.185
 3886TIP3    H211665   1.034   5.562   4.243
 3887TIP3   OH211666   3.928   1.199   2.583
 3887TIP3    H111667   3.985   1.233   2.514
 3887TIP3    H211668   3.970   1.118   2.610
 3888TIP3   OH211669   0.681   3.144   0.998
 3888TIP3    H111670   0.729   3.198   1.060
 3888TIP3    H211671   0.667   3.061   1.044
 3889TIP3   OH211672   3.268   1.601   3.489
 3889TIP3    H111673   3.229   1.686   3.507
 3889TIP3    H211674   3.269   1.557   3.574
 3890TIP3   OH211675   5.815   2.348   2.354
 3890TIP3    H111676   5.734   2.376   2.309
 3890TIP3    H211677   5.785   2.305   2.434
 3891TIP3   OH211678   1.178   2.753   3.141
 3891TIP3    H111679   1.191   2.764   3.235
 3891TIP3    H211680   1.266   2.746   3.105
 3892TIP3   OH211681   3.253   1.409   0.776
 3892TIP3    H111682   3.206   1.325   0.779
 3892TIP3    H211683   3.216   1.455   0.701
 3893TIP3   OH211684  -0.026   1.536   4.845
 3893TIP3    H111685   0.045   1.530   4.780
 3893TIP3    H211686  -0.072   1.617   4.822
 3894TIP3   OH211687   1.544   2.980   0.275
 3894TIP3    H111688   1.515   2.901   0.229
 3894TIP3    H211689   1.466   3.011   0.321
 3895TIP3   OH211690   6.045   3.429   4.930
 3895TIP3    H111691   6.037   3.345   4.975
 3895TIP3    H211692   6.041   3.407   4.837
 3896TIP3   OH211693   2.906   5.775   4.962
 3896TIP3    H111694   2.990   5.756   4.921
 3896TIP3    H211695   2.908   5.869   4.980
 3897TIP3   OH211696   5.714   2.047   1.996
 3897TIP3    H111697   5.749   2.135   1.985
 3897TIP3    H211698   5.749   1.997   1.922
 3898TIP3   OH211699   4.062   3.890   3.951
 3898TIP3    H111700   3.973   3.903   3.918
 3898TIP3    H211701   4.095   3.979   3.965
 3899TIP3   OH211702   0.019   4.687   3.315
 3899TIP3    H111703  -0.066   4.724   3.339
 3899TIP3    H211704   0.069   4.762   3.282
 3900TIP3   OH211705   0.274   2.365   3.931
 3900TIP3    H111706   0.240   2.417   4.004
 3900TIP3    H211707   0.344   2.419   3.894
 3901TIP3   OH211708   1.462   3.715   0.817
 3901TIP3    H111709   1.440   3.673   0.900
 3901TIP3    H211710   1.521   3.653   0.773
 3902TIP3   OH211711   4.470   1.079   4.281
 3902TIP3    H111712   4.544   1.044   4.230
 3902TIP3    H211713   4.423   1.001   4.311
 3903TIP3   OH211714   5.429   4.035   1.879
 3903TIP3    H111715   5.404   4.081   1.960
 3903TIP3    H211716   5.525   4.032   1.882
 3904TIP3   OH211717   3.359   4.769   1.876
 3904TIP3    H111718   3.452   4.784   1.866
 3904TIP3    H211719   3.327   4.845   1.925
 3905TIP3   OH211720   1.174   2.637   2.884
 3905TIP3    H111721   1.135   2.666   2.967
 3905TIP3    H211722   1.108   2.579   2.846
 3906TIP3   OH211723   5.555   1.326   3.373
 3906TIP3    H111724   5.615   1.306   3.301
 3906TIP3    H211725   5.490   1.385   3.334
 3907TIP3   OH211726   3.561   1.829   2.984
 3907TIP3    H111727   3.506   1.810   2.908
 3907TIP3    H211728   3.581   1.923   2.977
 3908TIP3   OH211729   6.140   4.393   5.091
 3908TIP3    H111730   6.081   4.453   5.136
 3908TIP3    H211731   6.156   4.323   5.155
 3909TIP3   OH211732   6.234   3.716   4.080
 3909TIP3    H111733   6.243   3.635   4.130
 3909TIP3    H211734   6.161   3.762   4.122
 3910TIP3   OH211735   1.031   3.300   2.286
 3910TIP3    H111736   1.027   3.236   2.357
 3910TIP3    H211737   0.960   3.361   2.304
 3911TIP3   OH211738   1.388   3.650   3.821
 3911TIP3    H111739   1.390   3.655   3.917
 3911TIP3    H211740   1.426   3.733   3.792
 3912TIP3   OH211741   1.152   0.339   4.683
 3912TIP3    H111742   1.176   0.429   4.706
 3912TIP3    H211743   1.090   0.348   4.611
 3913TIP3   OH211744   0.156   4.947   5.103
 3913TIP3    H111745   0.159   4.989   5.189
 3913TIP3    H211746   0.246   4.954   5.070
 3914TIP3   OH211747   4.961   3.937   3.454
 3914TIP3    H111748   4.940   3.870   3.389
 3914TIP3    H211749   4.973   3.889   3.535
 3915TIP3   OH211750   4.093   1.452   0.405
 3915TIP3    H111751   4.031   1.387   0.370
 3915TIP3    H211752   4.172   1.402   0.424
 3916TIP3   OH211753   3.766   1.749   0.959
 3916TIP3    H111754   3.697   1.711   0.905
 3916TIP3    H211755   3.772   1.840   0.929
 3917TIP3   OH211756   2.634   0.485   1.054
 3917TIP3    H111757   2.670   0.568   1.085
 3917TIP3    H211758   2.703   0.449   0.997
 3918TIP3   OH211759   3.040   3.125   0.495
 3918TIP3    H111760   3.082   3.051   0.452
 3918TIP3    H211761   3.083   3.202   0.459
 3919TIP3   OH211762   1.123   3.504   0.427
 3919TIP3    H111763   1.183   3.445   0.381
 3919TIP3    H211764   1.036   3.474   0.401
 3920TIP3   OH211765   5.304   2.690   3.463
 3920TIP3    H111766   5.254   2.706   3.543
 3920TIP3    H211767   5.272   2.756   3.401
 3921TIP3   OH211768   2.510   4.991   3.030
 3921TIP3    H111769   2.569   5.025   2.963
 3921TIP3    H211770   2.482   5.068   3.079
 3922TIP3   OH211771   4.379   5.710   0.108
 3922TIP3    H111772   4.427   5.786   0.077
 3922TIP3    H211773   4.443   5.661   0.160
 3923TIP3   OH211774   4.342   1.668   4.239
 3923TIP3    H111775   4.366   1.750   4.281
 3923TIP3    H211776   4.391   1.601   4.287
 3924TIP3   OH211777   5.363   1.912   3.840
 3924TIP3    H111778   5.357   1.943   3.931
 3924TIP3    H211779   5.276   1.877   3.821
 3925TIP3   OH211780   4.763   1.637   2.892
 3925TIP3    H111781   4.825   1.646   2.819
 3925TIP3    H211782   4.681   1.609   2.850
 3926TIP3   OH211783   6.273   3.556   0.732
 3926TIP3    H111784   6.270   3.460   0.724
 3926TIP3    H211785   6.199   3.577   0.789
 3927TIP3   OH211786   5.072   1.993   3.900
 3927TIP3    H111787   5.102   2.060   3.838
 3927TIP3    H211788   5.027   1.929   3.845
 3928TIP3   OH211789   4.152   2.653   4.263
 3928TIP3    H111790   4.136   2.734   4.312
 3928TIP3    H211791   4.245   2.657   4.241
 3929TIP3   OH211792   0.656   1.924   0.082
 3929TIP3    H111793   0.669   1.952   0.173
 3929TIP3    H211794   0.646   1.829   0.087
 3930TIP3   OH211795   4.610   1.563   0.854
 3930TIP3    H111796   4.657   1.622   0.913
 3930TIP3    H211797   4.616   1.477   0.897
 3931TIP3   OH211798   5.833   3.931   0.635
 3931TIP3    H111799   5.863   3.960   0.549
 3931TIP3    H211800   5.768   3.864   0.616
 3932TIP3   OH211801   2.263   1.334   2.852
 3932TIP3    H111802   2.233   1.258   2.801
 3932TIP3    H211803   2.183   1.383   2.872
 3933TIP3   OH211804   3.998   2.778   0.203
 3933TIP3    H111805   3.975   2.692   0.237
 3933TIP3    H211806   4.007   2.765   0.108
 3934TIP3   OH211807   5.083   1.084   4.010
 3934TIP3    H111808   5.053   1.164   4.051
 3934TIP3    H211809   5.128   1.037   4.080
 3935TIP3   OH211810   1.635   2.897   3.587
 3935TIP3    H111811   1.660   2.988   3.599
 3935TIP3    H211812   1.718   2.851   3.573
 3936TIP3   OH211813   3.147   3.488   1.300
 3936TIP3    H111814   3.223   3.467   1.354
 3936TIP3    H211815   3.156   3.432   1.223
 3937TIP3   OH211816   1.421   4.026   2.324
 3937TIP3    H111817   1.506   4.041   2.365
 3937TIP3    H211818   1.404   3.933   2.337
 3938TIP3   OH211819   4.746   3.288   4.483
 3938TIP3    H111820   4.784   3.360   4.532
 3938TIP3    H211821   4.746   3.317   4.392
 3939TIP3   OH211822   2.517   1.656   3.108
 3939TIP3    H111823   2.500   1.735   3.159
 3939TIP3    H211824   2.448   1.654   3.042
 3940TIP3   OH211825   4.704   4.870   3.884
 3940TIP3    H111826   4.763   4.835   3.951
 3940TIP3    H211827   4.762   4.912   3.821
 3941TIP3   OH211828   3.904   3.056   3.600
 3941TIP3    H111829   3.819   3.037   3.560
 3941TIP3    H211830   3.900   3.011   3.685
 3942TIP3   OH211831   3.335   5.192   2.980
 3942TIP3    H111832   3.409   5.130   2.974
 3942TIP3    H211833   3.316   5.214   2.889
 3943TIP3   OH211834   4.288   5.457   1.067
 3943TIP3    H111835   4.211   5.460   1.123
 3943TIP3    H211836   4.321   5.547   1.067
 3944TIP3   OH211837   4.466   4.267   3.575
 3944TIP3    H111838   4.548   4.219   3.560
 3944TIP3    H211839   4.418   4.214   3.639
 3945TIP3   OH211840   4.441   4.827   3.787
 3945TIP3    H111841   4.454   4.738   3.754
 3945TIP3    H211842   4.520   4.847   3.837
 3946TIP3   OH211843   5.097   1.439   2.777
 3946TIP3    H111844   5.084   1.491   2.697
 3946TIP3    H211845   5.127   1.354   2.745
 3947TIP3   OH211846   1.256   5.968   3.710
 3947TIP3    H111847   1.296   5.915   3.641
 3947TIP3    H211848   1.321   5.971   3.780
 3948TIP3   OH211849   3.277   1.714   2.228
 3948TIP3    H111850   3.219   1.649   2.189
 3948TIP3    H211851   3.258   1.710   2.322
 3949TIP3   OH211852   0.434   5.879   1.626
 3949TIP3    H111853   0.478   5.798   1.651
 3949TIP3    H211854   0.447   5.938   1.700
 3950TIP3   OH211855   4.600   5.881   4.139
 3950TIP3    H111856   4.595   5.855   4.231
 3950TIP3    H211857   4.536   5.951   4.130
 3951TIP3   OH211858   0.876   5.065   1.706
 3951TIP3    H111859   0.901   5.147   1.749
 3951TIP3    H211860   0.910   5.073   1.617
 3952TIP3   OH211861   1.291   2.145   0.694
 3952TIP3    H111862   1.360   2.156   0.760
 3952TIP3    H211863   1.283   2.232   0.654
 3953TIP3   OH211864   2.244   5.781   1.318
 3953TIP3    H111865   2.192   5.861   1.310
 3953TIP3    H211866   2.304   5.784   1.244
 3954TIP3   OH211867   3.416   4.335   1.742
 3954TIP3    H111868   3.447   4.252   1.778
 3954TIP3    H211869   3.488   4.366   1.689
 3955TIP3   OH211870   5.483   3.960   2.388
 3955TIP3    H111871   5.576   3.961   2.368
 3955TIP3    H211872   5.466   4.044   2.429
 3956TIP3   OH211873   1.150   5.295   0.039
 3956TIP3    H111874   1.077   5.313   0.099
 3956TIP3    H211875   1.152   5.199   0.032
 3957TIP3   OH211876   4.141   0.306   2.563
 3957TIP3    H111877   4.076   0.372   2.540
 3957TIP3    H211878   4.105   0.263   2.640
 3958TIP3   OH211879   6.175   4.945   1.720
 3958TIP3    H111880   6.105   4.925   1.782
 3958TIP3    H211881   6.156   4.889   1.644
 3959TIP3   OH211882   1.337   0.126   0.324
 3959TIP3    H111883   1.425   0.157   0.346
 3959TIP3    H211884   1.283   0.205   0.322
 3960TIP3   OH211885   4.562   5.715   1.082
 3960TIP3    H111886   4.611   5.650   1.033
 3960TIP3    H211887   4.482   5.729   1.031
 3961TIP3   OH211888   4.894   5.321   2.677
 3961TIP3    H111889   4.903   5.281   2.590
 3961TIP3    H211890   4.824   5.271   2.719
 3962TIP3   OH211891   1.736   1.977   2.680
 3962TIP3    H111892   1.690   1.938   2.754
 3962TIP3    H211893   1.802   2.033   2.720
 3963TIP3   OH211894   2.188   5.813   2.609
 3963TIP3    H111895   2.282   5.824   2.594
 3963TIP3    H211896   2.150   5.815   2.522
 3964TIP3   OH211897   0.165   2.353   4.763
 3964TIP3    H111898   0.092   2.404   4.800
 3964TIP3    H211899   0.173   2.385   4.673
 3965TIP3   OH211900   3.813   2.364   2.932
 3965TIP3    H111901   3.813   2.458   2.916
 3965TIP3    H211902   3.735   2.331   2.887
 3966TIP3   OH211903   0.309   3.010   1.251
 3966TIP3    H111904   0.293   2.983   1.161
 3966TIP3    H211905   0.222   3.022   1.289
 3967TIP3   OH211906   0.306   3.146   3.958
 3967TIP3    H111907   0.276   3.058   3.934
 3967TIP3    H211908   0.317   3.143   4.053
 3968TIP3   OH211909   3.554   4.557   4.622
 3968TIP3    H111910   3.625   4.619   4.638
 3968TIP3    H211911   3.488   4.579   4.687
 3969TIP3   OH211912   1.853   2.882   1.426
 3969TIP3    H111913   1.858   2.888   1.521
 3969TIP3    H211914   1.941   2.901   1.395
 3970TIP3   OH211915   5.771   5.724   2.710
 3970TIP3    H111916   5.678   5.725   2.684
 3970TIP3    H211917   5.769   5.708   2.805
 3971TIP3   OH211918   2.919   0.814   2.556
 3971TIP3    H111919   2.958   0.743   2.505
 3971TIP3    H211920   2.840   0.776   2.594
 3972TIP3   OH211921   4.544   4.147   2.280
 3972TIP3    H111922   4.448   4.156   2.276
 3972TIP3    H211923   4.565   4.083   2.213
 3973TIP3   OH211924   4.420   3.328   5.060
 3973TIP3    H111925   4.422   3.252   5.119
 3973TIP3    H211926   4.334   3.323   5.018
 3974TIP3   OH211927   6.038   2.030   4.317
 3974TIP3    H111928   5.994   1.963   4.370
 3974TIP3    H211929   6.130   2.005   4.318
 3975TIP3   OH211930   1.468   4.519   1.195
 3975TIP3    H111931   1.448   4.466   1.118
 3975TIP3    H211932   1.554   4.556   1.177
 3976TIP3   OH211933   0.574   1.309   1.233
 3976TIP3    H111934   0.615   1.378   1.285
 3976TIP3    H211935   0.541   1.247   1.297
 3977TIP3   OH211936   4.844   4.937   2.814
 3977TIP3    H111937   4.905   4.917   2.885
 3977TIP3    H211938   4.857   4.868   2.750
 3978TIP3   OH211939   2.274   0.857   3.452
 3978TIP3    H111940   2.261   0.924   3.385
 3978TIP3    H211941   2.221   0.887   3.526
 3979TIP3   OH211942   2.406   4.383   3.829
 3979TIP3    H111943   2.345   4.329   3.779
 3979TIP3    H211944   2.355   4.460   3.853
 3980TIP3   OH211945   3.074   3.105   3.481
 3980TIP3    H111946   3.009   3.138   3.542
 3980TIP3    H211947   3.055   3.011   3.475
 3981TIP3   OH211948   6.278   5.931   4.450
 3981TIP3    H111949   6.188   5.907   4.426
 3981TIP3    H211950   6.319   5.849   4.477
 3982TIP3   OH211951   2.134   1.162   1.625
 3982TIP3    H111952   2.161   1.088   1.570
 3982TIP3    H211953   2.177   1.146   1.709
 3983TIP3   OH211954   5.033  -0.007   1.275
 3983TIP3    H111955   5.058   0.074   1.319
 3983TIP3    H211956   4.937  -0.007   1.277
 3984TIP3   OH211957   5.733   5.696   4.987
 3984TIP3    H111958   5.761   5.778   5.029
 3984TIP3    H211959   5.644   5.714   4.957
 3985TIP3   OH211960   5.760   2.527   1.609
 3985TIP3    H111961   5.835   2.522   1.668
 3985TIP3    H211962   5.787   2.474   1.533
 3986TIP3   OH211963   5.251   1.971   4.102
 3986TIP3    H111964   5.183   1.980   4.035
 3986TIP3    H211965   5.263   1.877   4.112
 3987TIP3   OH211966   4.756  -0.018   1.268
 3987TIP3    H111967   4.717   0.054   1.219
 3987TIP3    H211968   4.725  -0.007   1.358
 3988TIP3   OH211969   5.935   5.071   0.224
 3988TIP3    H111970   5.882   5.122   0.162
 3988TIP3    H211971   5.929   4.981   0.193
 3989TIP3   OH211972   5.218   1.292   2.176
 3989TIP3    H111973   5.246   1.259   2.261
 3989TIP3    H211974   5.300   1.310   2.129
 3990TIP3   OH211975   0.789   1.735   1.931
 3990TIP3    H111976   0.881   1.750   1.908
 3990TIP3    H211977   0.759   1.820   1.965
 3991TIP3   OH211978   4.472   2.173   0.950
 3991TIP3    H111979   4.409   2.228   0.904
 3991TIP3    H211980   4.420   2.103   0.987
 3992TIP3   OH211981   6.275   1.869   0.503
 3992TIP3    H111982   6.204   1.835   0.557
 3992TIP3    H211983   6.237   1.944   0.458
 3993TIP3   OH211984   1.479   3.943   3.118
 3993TIP3    H111985   1.501   3.962   3.027
 3993TIP3    H211986   1.564   3.929   3.160
 3994TIP3   OH211987   4.707   2.735   2.818
 3994TIP3    H111988   4.779   2.709   2.875
 3994TIP3    H211989   4.735   2.709   2.730
 3995TIP3   OH211990   2.209   0.904   4.513
 3995TIP3    H111991   2.220   0.839   4.443
 3995TIP3    H211992   2.156   0.858   4.579
 3996TIP3   OH211993   2.552   4.513   4.433
 3996TIP3    H111994   2.547   4.577   4.362
 3996TIP3    H211995   2.585   4.434   4.392
 3997TIP3   OH211996   2.013   0.368   3.638
 3997TIP3    H111997   2.056   0.399   3.558
 3997TIP3    H211998   2.016   0.443   3.697
 3998TIP3   OH211999   2.933   0.181   5.073
 3998TIP3    H112000   2.940   0.087   5.092
 3998TIP3    H212001   2.940   0.223   5.159
 3999TIP3   OH212002   1.134   0.825   0.030
 3999TIP3    H112003   1.155   0.856  -0.059
 3999TIP3    H212004   1.069   0.756   0.017
 4000TIP3   OH212005   0.254   3.809   3.319
 4000TIP3    H112006   0.158   3.798   3.318
 4000TIP3    H212007   0.269   3.871   3.390
 4001TIP3   OH212008   3.332   3.678   2.592
 4001TIP3    H112009   3.391   3.644   2.524
 4001TIP3    H212010   3.375   3.759   2.622
 4002TIP3   OH212011   3.269   4.443   1.923
 4002TIP3    H112012   3.335   4.402   1.868
 4002TIP3    H212013   3.287   4.537   1.917
 4003TIP3   OH212014   6.170   4.931   4.479
 4003TIP3    H112015   6.238   4.924   4.546
 4003TIP3    H212016   6.108   4.994   4.514
 4004TIP3   OH212017   1.321   5.589   0.037
 4004TIP3    H112018   1.316   5.546   0.123
 4004TIP3    H212019   1.279   5.674   0.050
 4005TIP3   OH212020   6.142   4.399   0.762
 4005TIP3    H112021   6.048   4.387   0.779
 4005TIP3    H212022   6.172   4.455   0.833
 4006TIP3   OH212023   0.751   5.434   4.064
 4006TIP3    H112024   0.710   5.365   4.116
 4006TIP3    H212025   0.691   5.508   4.070
 4007TIP3   OH212026   0.449   2.784   3.963
 4007TIP3    H112027   0.501   2.830   3.897
 4007TIP3    H212028   0.359   2.813   3.948
 4008TIP3   OH212029   4.501   3.286   2.372
 4008TIP3    H112030   4.590   3.299   2.404
 4008TIP3    H212031   4.512   3.232   2.293
 4009TIP3   OH212032   1.064   4.385   3.970
 4009TIP3    H112033   1.065   4.468   3.921
 4009TIP3    H212034   1.153   4.375   4.003
 4010TIP3   OH212035   5.079   2.820   4.409
 4010TIP3    H112036   5.097   2.746   4.467
 4010TIP3    H212037   5.061   2.893   4.468
 4011TIP3   OH212038   1.879   1.808   0.507
 4011TIP3    H112039   1.880   1.851   0.592
 4011TIP3    H212040   1.935   1.862   0.452
 4012TIP3   OH212041   3.170   5.288   4.322
 4012TIP3    H112042   3.234   5.223   4.351
 4012TIP3    H212043   3.136   5.254   4.239
 4013TIP3   OH212044   0.130   1.769   4.541
 4013TIP3    H112045   0.161   1.683   4.570
 4013TIP3    H212046   0.037   1.770   4.564
 4014TIP3   OH212047   3.488   2.729   4.591
 4014TIP3    H112048   3.398   2.697   4.597
 4014TIP3    H212049   3.480   2.815   4.549
 4015TIP3   OH212050   1.306   0.446   4.968
 4015TIP3    H112051   1.274   0.504   4.899
 4015TIP3    H212052   1.239   0.378   4.977
 4016TIP3   OH212053   5.695   4.422   3.264
 4016TIP3    H112054   5.656   4.431   3.177
 4016TIP3    H212055   5.631   4.371   3.313
 4017TIP3   OH212056   0.068   0.413   3.099
 4017TIP3    H112057   0.084   0.326   3.136
 4017TIP3    H212058   0.137   0.467   3.136
 4018TIP3   OH212059   5.706   5.277   4.164
 4018TIP3    H112060   5.742   5.329   4.235
 4018TIP3    H212061   5.723   5.329   4.085
 4019TIP3   OH212062   4.746   0.711   1.078
 4019TIP3    H112063   4.718   0.638   1.022
 4019TIP3    H212064   4.745   0.787   1.021
 4020TIP3   OH212065   5.649   3.723   3.342
 4020TIP3    H112066   5.718   3.777   3.380
 4020TIP3    H212067   5.630   3.657   3.409
 4021TIP3   OH212068   2.234   5.052   3.782
 4021TIP3    H112069   2.238   5.051   3.686
 4021TIP3    H212070   2.185   5.130   3.803
 4022TIP3   OH212071   3.007   0.586   3.504
 4022TIP3    H112072   3.004   0.533   3.584
 4022TIP3    H212073   3.087   0.558   3.460
 4023TIP3   OH212074   5.227   0.941   4.195
 4023TIP3    H112075   5.199   0.944   4.286
 4023TIP3    H212076   5.309   0.991   4.194
 4024TIP3   OH212077   0.860   1.740   0.496
 4024TIP3    H112078   0.774   1.739   0.538
 4024TIP3    H212079   0.920   1.772   0.564
 4025TIP3   OH212080   1.289   4.428   4.669
 4025TIP3    H112081   1.208   4.427   4.618
 4025TIP3    H212082   1.266   4.386   4.752
 4026TIP3   OH212083   2.678   0.773   4.177
 4026TIP3    H112084   2.718   0.808   4.098
 4026TIP3    H212085   2.661   0.681   4.157
 4027TIP3   OH212086   2.248   0.468   2.900
 4027TIP3    H112087   2.250   0.487   2.806
 4027TIP3    H212088   2.197   0.387   2.908
 4028TIP3   OH212089   5.350   1.288   2.445
 4028TIP3    H112090   5.334   1.210   2.498
 4028TIP3    H212091   5.301   1.358   2.489
 4029TIP3   OH212092   2.119   3.624   4.837
 4029TIP3    H112093   2.081   3.620   4.925
 4029TIP3    H212094   2.122   3.532   4.808
 4030TIP3   OH212095   0.510   4.709   0.461
 4030TIP3    H112096   0.524   4.695   0.367
 4030TIP3    H212097   0.507   4.804   0.471
 4031TIP3   OH212098   4.437   5.184   1.662
 4031TIP3    H112099   4.413   5.205   1.571
 4031TIP3    H212100   4.365   5.130   1.693
 4032TIP3   OH212101   6.317   4.813   4.274
 4032TIP3    H112102   6.273   4.861   4.344
 4032TIP3    H212103   6.257   4.741   4.254
 4033TIP3   OH212104   2.593   1.469   0.645
 4033TIP3    H112105   2.681   1.494   0.674
 4033TIP3    H212106   2.581   1.516   0.563
 4034TIP3   OH212107   5.489   5.511   1.402
 4034TIP3    H112108   5.524   5.480   1.318
 4034TIP3    H212109   5.567   5.527   1.455
 4035TIP3   OH212110   0.030   5.371   2.119
 4035TIP3    H112111  -0.005   5.457   2.142
 4035TIP3    H212112   0.099   5.355   2.184
 4036TIP3   OH212113   5.115   2.262   1.334
 4036TIP3    H112114   5.171   2.185   1.323
 4036TIP3    H212115   5.028   2.233   1.306
 4037TIP3   OH212116   1.624   5.752   0.079
 4037TIP3    H112117   1.536   5.738   0.044
 4037TIP3    H212118   1.624   5.706   0.163
 4038TIP3   OH212119   4.530   4.768   4.709
 4038TIP3    H112120   4.606   4.782   4.765
 4038TIP3    H212121   4.565   4.766   4.620
 4039TIP3   OH212122   1.331   4.841   0.216
 4039TIP3    H112123   1.403   4.791   0.255
 4039TIP3    H212124   1.280   4.776   0.168
 4040TIP3   OH212125   2.547   0.411   0.404
 4040TIP3    H112126   2.610   0.446   0.341
 4040TIP3    H212127   2.582   0.438   0.489
 4041TIP3   OH212128   5.240   2.027   1.272
 4041TIP3    H112129   5.317   1.972   1.257
 4041TIP3    H212130   5.170   1.985   1.222
 4042TIP3   OH212131   2.659   5.888   3.210
 4042TIP3    H112132   2.698   5.877   3.296
 4042TIP3    H212133   2.582   5.831   3.211
 4043TIP3   OH212134   2.078   3.880   3.279
 4043TIP3    H112135   2.115   3.958   3.238
 4043TIP3    H212136   2.080   3.899   3.373
 4044TIP3   OH212137   0.326   3.022   2.309
 4044TIP3    H112138   0.289   3.003   2.223
 4044TIP3    H212139   0.302   2.946   2.363
 4045TIP3   OH212140   5.027   1.387   0.926
 4045TIP3    H112141   5.019   1.301   0.885
 4045TIP3    H212142   5.045   1.367   1.018
 4046TIP3   OH212143   1.449   4.124   4.057
 4046TIP3    H112144   1.503   4.046   4.064
 4046TIP3    H212145   1.432   4.150   4.148
 4047TIP3   OH212146   5.763   5.530   0.738
 4047TIP3    H112147   5.798   5.522   0.649
 4047TIP3    H212148   5.692   5.595   0.730
 4048TIP3   OH212149   4.333   1.390   2.619
 4048TIP3    H112150   4.299   1.473   2.584
 4048TIP3    H212151   4.402   1.415   2.679
 4049TIP3   OH212152   5.258   3.768   0.082
 4049TIP3    H112153   5.320   3.835   0.056
 4049TIP3    H212154   5.211   3.746   0.001
 4050TIP3   OH212155   5.723   2.987   1.142
 4050TIP3    H112156   5.673   2.968   1.062
 4050TIP3    H212157   5.677   2.940   1.211
 4051TIP3   OH212158   2.871   3.880   1.773
 4051TIP3    H112159   2.928   3.805   1.758
 4051TIP3    H212160   2.823   3.890   1.691
 4052TIP3   OH212161   5.466   1.010   1.434
 4052TIP3    H112162   5.485   0.990   1.342
 4052TIP3    H212163   5.473   0.925   1.478
 4053TIP3   OH212164   4.254   0.113   0.295
 4053TIP3    H112165   4.249   0.200   0.255
 4053TIP3    H212166   4.179   0.111   0.356
 4054TIP3   OH212167   3.009   0.397   3.150
 4054TIP3    H112168   2.978   0.485   3.171
 4054TIP3    H212169   3.099   0.395   3.184
 4055TIP3   OH212170   2.710   5.703   0.483
 4055TIP3    H112171   2.719   5.628   0.542
 4055TIP3    H212172   2.799   5.718   0.449
 4056TIP3   OH212173   3.252   2.981   1.967
 4056TIP3    H112174   3.274   2.890   1.946
 4056TIP3    H212175   3.229   3.020   1.883
 4057TIP3   OH212176   3.818   0.342   3.317
 4057TIP3    H112177   3.737   0.298   3.344
 4057TIP3    H212178   3.868   0.352   3.398
 4058TIP3   OH212179   1.365   0.151   4.865
 4058TIP3    H112180   1.292   0.212   4.850
 4058TIP3    H212181   1.443   0.204   4.850
 4059TIP3   OH212182   0.885   2.486   2.126
 4059TIP3    H112183   0.934   2.567   2.142
 4059TIP3    H212184   0.934   2.442   2.056
 4060TIP3   OH212185   0.102   5.714   1.627
 4060TIP3    H112186   0.013   5.679   1.614
 4060TIP3    H212187   0.104   5.794   1.575
 4061TIP3   OH212188   1.149   3.013   3.087
 4061TIP3    H112189   1.154   3.022   2.992
 4061TIP3    H212190   1.151   2.919   3.102
 4062TIP3   OH212191   0.118   3.371   5.096
 4062TIP3    H112192   0.042   3.350   5.150
 4062TIP3    H212193   0.127   3.466   5.104
 4063TIP3   OH212194   0.485   2.389   1.660
 4063TIP3    H112195   0.483   2.485   1.667
 4063TIP3    H212196   0.567   2.364   1.702
 4064TIP3   OH212197   2.059   5.358   2.190
 4064TIP3    H112198   1.968   5.384   2.207
 4064TIP3    H212199   2.081   5.302   2.264
 4065TIP3   OH212200   6.175   2.542   4.631
 4065TIP3    H112201   6.222   2.535   4.714
 4065TIP3    H212202   6.083   2.526   4.654
 4066TIP3   OH212203   1.263   1.460   3.599
 4066TIP3    H112204   1.315   1.532   3.562
 4066TIP3    H212205   1.222   1.497   3.677
 4067TIP3   OH212206   5.834   0.952   0.219
 4067TIP3    H112207   5.861   0.921   0.133
 4067TIP3    H212208   5.778   0.883   0.254
 4068TIP3   OH212209   3.968   5.890   4.269
 4068TIP3    H112210   4.053   5.873   4.228
 4068TIP3    H212211   3.910   5.825   4.231
 4069TIP3   OH212212   0.552   5.030   1.616
 4069TIP3    H112213   0.630   5.059   1.664
 4069TIP3    H212214   0.480   5.076   1.659
 4070TIP3   OH212215   1.875   2.713   2.754
 4070TIP3    H112216   1.956   2.712   2.702
 4070TIP3    H212217   1.898   2.670   2.836
 4071TIP3   OH212218   4.764   5.863   4.679
 4071TIP3    H112219   4.704   5.804   4.723
 4071TIP3    H212220   4.801   5.917   4.749
 4072TIP3   OH212221   2.214   1.639   4.271
 4072TIP3    H112222   2.215   1.583   4.349
 4072TIP3    H212223   2.122   1.644   4.246
 4073TIP3   OH212224   5.549   5.735   2.466
 4073TIP3    H112225   5.568   5.730   2.372
 4073TIP3    H212226   5.539   5.644   2.493
 4074TIP3   OH212227   5.771   4.111   2.975
 4074TIP3    H112228   5.731   4.040   3.025
 4074TIP3    H212229   5.735   4.101   2.887
 4075TIP3   OH212230   1.661   3.712   3.645
 4075TIP3    H112231   1.637   3.678   3.731
 4075TIP3    H212232   1.596   3.780   3.627
 4076TIP3   OH212233   1.019   4.210   0.098
 4076TIP3    H112234   1.068   4.128   0.097
 4076TIP3    H212235   0.933   4.188   0.064
 4077TIP3   OH212236   5.675   1.255   3.923
 4077TIP3    H112237   5.730   1.291   3.993
 4077TIP3    H212238   5.628   1.183   3.964
 4078TIP3   OH212239   2.806   4.363   0.437
 4078TIP3    H112240   2.787   4.450   0.472
 4078TIP3    H212241   2.782   4.303   0.508
 4079TIP3   OH212242   2.492   3.768   4.939
 4079TIP3    H112243   2.433   3.705   4.980
 4079TIP3    H212244   2.568   3.716   4.914
 4080TIP3   OH212245   5.938   5.069   4.180
 4080TIP3    H112246   5.944   5.061   4.084
 4080TIP3    H212247   5.935   5.163   4.196
 4081TIP3   OH212248   2.819   4.432   2.354
 4081TIP3    H112249   2.777   4.431   2.440
 4081TIP3    H212250   2.772   4.367   2.303
 4082TIP3   OH212251   2.598   3.615   1.785
 4082TIP3    H112252   2.591   3.708   1.764
 4082TIP3    H212253   2.690   3.594   1.769
 4083TIP3   OH212254   6.254   3.462   4.190
 4083TIP3    H112255   6.265   3.397   4.259
 4083TIP3    H212256   6.268   3.413   4.108
 4084TIP3   OH212257   6.272   2.592   3.975
 4084TIP3    H112258   6.215   2.669   3.977
 4084TIP3    H212259   6.308   2.591   3.886
 4085TIP3   OH212260   2.644   5.702   1.160
 4085TIP3    H112261   2.668   5.793   1.180
 4085TIP3    H212262   2.601   5.671   1.239
 4086TIP3   OH212263   4.560   2.616   5.111
 4086TIP3    H112264   4.472   2.608   5.074
 4086TIP3    H212265   4.600   2.687   5.062
 4087TIP3   OH212266   2.802   3.837   0.475
 4087TIP3    H112267   2.755   3.802   0.551
 4087TIP3    H212268   2.895   3.825   0.497
 4088TIP3   OH212269   2.668   2.227   0.734
 4088TIP3    H112270   2.601   2.280   0.778
 4088TIP3    H212271   2.713   2.289   0.676
 4089TIP3   OH212272   5.195   2.225   3.779
 4089TIP3    H112273   5.232   2.265   3.858
 4089TIP3    H212274   5.189   2.296   3.716
 4090TIP3   OH212275   4.408   2.175   4.935
 4090TIP3    H112276   4.488   2.228   4.931
 4090TIP3    H212277   4.340   2.236   4.963
 4091TIP3   OH212278   4.705   2.826   1.062
 4091TIP3    H112279   4.737   2.906   1.103
 4091TIP3    H212280   4.612   2.842   1.047
 4092TIP3   OH212281   0.348   4.853   3.463
 4092TIP3    H112282   0.287   4.891   3.399
 4092TIP3    H212283   0.308   4.769   3.486
 4093TIP3   OH212284   4.496   2.764   0.295
 4093TIP3    H112285   4.506   2.859   0.289
 4093TIP3    H212286   4.417   2.751   0.347
 4094TIP3   OH212287   2.520  -0.004   4.490
 4094TIP3    H112288   2.509   0.084   4.453
 4094TIP3    H212289   2.602   0.001   4.539
 4095TIP3   OH212290   2.155   1.839   0.054
 4095TIP3    H112291   2.242   1.836   0.014
 4095TIP3    H212292   2.103   1.893  -0.006
 4096TIP3   OH212293   3.285   4.648   4.181
 4096TIP3    H112294   3.314   4.577   4.124
 4096TIP3    H212295   3.200   4.619   4.214
 4097TIP3   OH212296   5.188   2.618   0.079
 4097TIP3    H112297   5.161   2.542   0.027
 4097TIP3    H212298   5.277   2.596   0.107
 4098TIP3   OH212299   1.681   5.796   3.102
 4098TIP3    H112300   1.595   5.761   3.079
 4098TIP3    H212301   1.678   5.888   3.075
 4099TIP3   OH212302   4.985   3.336   2.610
 4099TIP3    H112303   4.999   3.420   2.566
 4099TIP3    H212304   5.062   3.284   2.587
 4100TIP3   OH212305   3.376   4.100   4.553
 4100TIP3    H112306   3.411   4.186   4.527
 4100TIP3    H212307   3.401   4.042   4.481
 4101TIP3   OH212308   5.989   5.651   0.130
 4101TIP3    H112309   5.921   5.585   0.142
 4101TIP3    H212310   6.015   5.643   0.039
 4102TIP3   OH212311   3.584   0.099   0.610
 4102TIP3    H112312   3.527   0.048   0.668
 4102TIP3    H212313   3.542   0.184   0.603
 4103TIP3   OH212314   4.136   4.419   2.880
 4103TIP3    H112315   4.207   4.482   2.872
 4103TIP3    H212316   4.115   4.418   2.973
 4104TIP3   OH212317   3.234   2.727   0.134
 4104TIP3    H112318   3.213   2.784   0.060
 4104TIP3    H212319   3.330   2.720   0.132
 4105TIP3   OH212320   5.798   1.681   2.122
 4105TIP3    H112321   5.781   1.767   2.162
 4105TIP3    H212322   5.781   1.618   2.192
 4106TIP3   OH212323   5.601   0.348   2.516
 4106TIP3    H112324   5.575   0.320   2.429
 4106TIP3    H212325   5.689   0.384   2.505
 4107TIP3   OH212326   0.357   0.546   1.435
 4107TIP3    H112327   0.349   0.554   1.531
 4107TIP3    H212328   0.309   0.467   1.413
 4108TIP3   OH212329   3.570   4.140   0.667
 4108TIP3    H112330   3.603   4.107   0.584
 4108TIP3    H212331   3.524   4.065   0.706
 4109TIP3   OH212332   2.826   3.332   1.084
 4109TIP3    H112333   2.760   3.265   1.064
 4109TIP3    H212334   2.906   3.283   1.100
 4110TIP3   OH212335   3.340   5.889   2.877
 4110TIP3    H112336   3.417   5.937   2.847
 4110TIP3    H212337   3.267   5.926   2.827
 4111TIP3   OH212338   4.579   0.443   2.438
 4111TIP3    H112339   4.488   0.469   2.451
 4111TIP3    H212340   4.618   0.515   2.390
 4112TIP3   OH212341   5.252   3.923   4.280
 4112TIP3    H112342   5.179   3.983   4.266
 4112TIP3    H212343   5.300   3.960   4.354
 4113TIP3   OH212344   0.741   3.892   4.293
 4113TIP3    H112345   0.813   3.835   4.266
 4113TIP3    H212346   0.665   3.861   4.243
 4114TIP3   OH212347   2.460   4.130   1.056
 4114TIP3    H112348   2.502   4.071   1.120
 4114TIP3    H212349   2.394   4.177   1.106
 4115TIP3   OH212350   3.373   5.183   1.385
 4115TIP3    H112351   3.456   5.137   1.400
 4115TIP3    H212352   3.368   5.247   1.456
 4116TIP3   OH212353   4.573   1.873   0.486
 4116TIP3    H112354   4.566   1.964   0.456
 4116TIP3    H212355   4.651   1.872   0.542
 4117TIP3   OH212356   2.533   2.596   3.414
 4117TIP3    H112357   2.524   2.640   3.329
 4117TIP3    H212358   2.600   2.529   3.398
 4118TIP3   OH212359   0.172   2.756   4.523
 4118TIP3    H112360   0.146   2.719   4.607
 4118TIP3    H212361   0.142   2.847   4.526
 4119TIP3   OH212362   1.896   5.811   3.488
 4119TIP3    H112363   1.925   5.746   3.552
 4119TIP3    H212364   1.839   5.763   3.428
 4120TIP3   OH212365   1.654   0.066   2.052
 4120TIP3    H112366   1.586   0.071   1.985
 4120TIP3    H212367   1.656   0.154   2.090
 4121TIP3   OH212368   3.242   1.579   2.890
 4121TIP3    H112369   3.311   1.520   2.923
 4121TIP3    H212370   3.231   1.554   2.798
 4122TIP3   OH212371   0.178   4.680   5.201
 4122TIP3    H112372   0.164   4.772   5.177
 4122TIP3    H212373   0.245   4.650   5.140
 4123TIP3   OH212374   0.125   4.002   4.244
 4123TIP3    H112375   0.063   3.951   4.296
 4123TIP3    H212376   0.170   4.058   4.307
 4124TIP3   OH212377   5.761   1.168   0.863
 4124TIP3    H112378   5.829   1.129   0.918
 4124TIP3    H212379   5.700   1.097   0.845
 4125TIP3   OH212380   3.131   3.353   2.539
 4125TIP3    H112381   3.089   3.352   2.625
 4125TIP3    H212382   3.225   3.351   2.558
 4126TIP3   OH212383   2.402   4.394   0.592
 4126TIP3    H112384   2.320   4.350   0.612
 4126TIP3    H212385   2.389   4.484   0.622
 4127TIP3   OH212386   4.454   5.250   1.399
 4127TIP3    H112387   4.529   5.193   1.417
 4127TIP3    H212388   4.386   5.190   1.369
 4128TIP3   OH212389   0.679   3.848   3.821
 4128TIP3    H112390   0.746   3.848   3.753
 4128TIP3    H212391   0.612   3.908   3.788
 4129TIP3   OH212392   5.875   4.306   0.805
 4129TIP3    H112393   5.838   4.362   0.874
 4129TIP3    H212394   5.830   4.333   0.725
 4130TIP3   OH212395   3.448   0.368   0.913
 4130TIP3    H112396   3.359   0.334   0.913
 4130TIP3    H212397   3.463   0.399   1.002
 4131TIP3   OH212398   2.647   3.959   3.701
 4131TIP3    H112399   2.650   3.953   3.796
 4131TIP3    H212400   2.738   3.972   3.674
 4132TIP3   OH212401   4.843   1.764   4.146
 4132TIP3    H112402   4.813   1.738   4.233
 4132TIP3    H212403   4.804   1.851   4.132
 4133TIP3   OH212404   4.277   0.238   3.705
 4133TIP3    H112405   4.224   0.303   3.752
 4133TIP3    H212406   4.215   0.191   3.650
 4134TIP3   OH212407   6.253   1.761   2.057
 4134TIP3    H112408   6.270   1.670   2.083
 4134TIP3    H212409   6.248   1.758   1.962
 4135TIP3   OH212410   0.972   3.954   3.222
 4135TIP3    H112411   1.004   3.889   3.284
 4135TIP3    H212412   0.877   3.950   3.230
 4136TIP3   OH212413   2.134   5.803   3.843
 4136TIP3    H112414   2.166   5.750   3.916
 4136TIP3    H212415   2.213   5.840   3.804
 4137TIP3   OH212416   4.172   4.932   3.399
 4137TIP3    H112417   4.225   4.995   3.447
 4137TIP3    H212418   4.144   4.978   3.320
 4138TIP3   OH212419   1.053   3.664   0.641
 4138TIP3    H112420   1.071   3.633   0.730
 4138TIP3    H212421   1.096   3.600   0.584
 4139TIP3   OH212422   5.280   2.673   3.169
 4139TIP3    H112423   5.218   2.616   3.124
 4139TIP3    H212424   5.345   2.614   3.207
 4140TIP3   OH212425   3.014   0.296   2.124
 4140TIP3    H112426   3.045   0.226   2.181
 4140TIP3    H212427   3.012   0.257   2.036
 4141TIP3   OH212428   0.784   0.837   2.957
 4141TIP3    H112429   0.828   0.785   2.889
 4141TIP3    H212430   0.762   0.773   3.025
 4142TIP3   OH212431   1.297   1.554   5.037
 4142TIP3    H112432   1.344   1.478   5.073
 4142TIP3    H212433   1.266   1.602   5.113
 4143TIP3   OH212434   1.420   0.201   5.122
 4143TIP3    H112435   1.390   0.121   5.164
 4143TIP3    H212436   1.390   0.194   5.032
 4144TIP3   OH212437   5.039   2.767   2.931
 4144TIP3    H112438   5.090   2.841   2.963
 4144TIP3    H212439   5.076   2.747   2.845
 4145TIP3   OH212440   6.245   5.653   0.301
 4145TIP3    H112441   6.165   5.663   0.250
 4145TIP3    H212442   6.216   5.622   0.387
 4146TIP3   OH212443   1.438   4.284   1.022
 4146TIP3    H112444   1.415   4.224   0.951
 4146TIP3    H212445   1.354   4.314   1.056
 4147TIP3   OH212446   4.288   3.992   4.821
 4147TIP3    H112447   4.200   4.012   4.853
 4147TIP3    H212448   4.344   4.000   4.897
 4148TIP3   OH212449   4.102   5.412   1.261
 4148TIP3    H112450   4.082   5.330   1.217
 4148TIP3    H212451   4.019   5.440   1.300
 4149TIP3   OH212452   0.035   2.940   3.543
 4149TIP3    H112453   0.005   2.857   3.505
 4149TIP3    H212454   0.085   2.982   3.473
 4150TIP3   OH212455   2.496   3.558   0.361
 4150TIP3    H112456   2.542   3.535   0.280
 4150TIP3    H212457   2.409   3.520   0.351
 4151TIP3   OH212458   4.469   3.967   5.018
 4151TIP3    H112459   4.498   3.879   4.994
 4151TIP3    H212460   4.550   4.019   5.022
 4152TIP3   OH212461   3.216   3.876   4.910
 4152TIP3    H112462   3.160   3.913   4.842
 4152TIP3    H212463   3.305   3.893   4.879
 4153TIP3   OH212464   5.572   2.720   4.319
 4153TIP3    H112465   5.639   2.789   4.324
 4153TIP3    H212466   5.516   2.735   4.395
 4154TIP3   OH212467   2.790   4.719   2.221
 4154TIP3    H112468   2.880   4.741   2.196
 4154TIP3    H212469   2.799   4.648   2.284
 4155TIP3   OH212470   2.098   2.899   3.600
 4155TIP3    H112471   2.121   2.980   3.556
 4155TIP3    H212472   2.019   2.869   3.555
 4156TIP3   OH212473   3.763   0.067   3.009
 4156TIP3    H112474   3.701   0.080   2.937
 4156TIP3    H212475   3.821   0.142   3.005
 4157TIP3   OH212476   3.109   0.053   1.060
 4157TIP3    H112477   3.084  -0.027   1.013
 4157TIP3    H212478   3.048   0.057   1.133
 4158TIP3   OH212479   1.345   4.483   0.701
 4158TIP3    H112480   1.405   4.477   0.626
 4158TIP3    H212481   1.396   4.527   0.769
 4159TIP3   OH212482   1.510   1.239   1.236
 4159TIP3    H112483   1.538   1.242   1.327
 4159TIP3    H212484   1.590   1.219   1.187
 4160TIP3   OH212485   1.408   2.371   2.034
 4160TIP3    H112486   1.436   2.281   2.047
 4160TIP3    H212487   1.321   2.363   1.994
 4161TIP3   OH212488   1.506   0.225   3.993
 4161TIP3    H112489   1.555   0.177   4.060
 4161TIP3    H212490   1.434   0.166   3.969
 4162TIP3   OH212491   3.293   2.036   3.775
 4162TIP3    H112492   3.388   2.038   3.763
 4162TIP3    H212493   3.280   1.989   3.857
 4163TIP3   OH212494   0.117   5.578   3.629
 4163TIP3    H112495   0.063   5.580   3.708
 4163TIP3    H212496   0.169   5.658   3.633
 4164TIP3   OH212497   3.980   3.340   2.680
 4164TIP3    H112498   3.904   3.389   2.712
 4164TIP3    H212499   4.055   3.389   2.714
 4165TIP3   OH212500   3.677   0.425   1.421
 4165TIP3    H112501   3.746   0.490   1.432
 4165TIP3    H212502   3.671   0.381   1.506
 4166TIP3   OH212503   2.144   1.579   0.476
 4166TIP3    H112504   2.196   1.534   0.542
 4166TIP3    H212505   2.206   1.633   0.428
 4167TIP3   OH212506   3.300   3.736   0.436
 4167TIP3    H112507   3.347   3.740   0.353
 4167TIP3    H212508   3.219   3.690   0.415
 4168TIP3   OH212509   3.362   3.060   0.707
 4168TIP3    H112510   3.292   3.065   0.642
 4168TIP3    H212511   3.364   2.968   0.733
 4169TIP3   OH212512   0.265   2.341   1.831
 4169TIP3    H112513   0.307   2.379   1.909
 4169TIP3    H212514   0.329   2.356   1.761
 4170TIP3   OH212515   3.654   0.043   1.065
 4170TIP3    H112516   3.571   0.048   1.017
 4170TIP3    H212517   3.631   0.000   1.147
 4171TIP3   OH212518   1.859   1.615   1.766
 4171TIP3    H112519   1.819   1.683   1.820
 4171TIP3    H212520   1.868   1.540   1.825
 4172TIP3   OH212521   2.295   3.965   0.072
 4172TIP3    H112522   2.325   3.890   0.122
 4172TIP3    H212523   2.318   4.041   0.126
 4173TIP3   OH212524   3.926   2.815   2.640
 4173TIP3    H112525   3.946   2.902   2.674
 4173TIP3    H212526   3.862   2.779   2.701
 4174TIP3   OH212527   0.962   1.086   3.022
 4174TIP3    H112528   0.996   1.028   2.954
 4174TIP3    H212529   0.891   1.036   3.063
 4175TIP3   OH212530   5.285   4.846   5.205
 4175TIP3    H112531   5.286   4.762   5.159
 4175TIP3    H212532   5.259   4.909   5.138
 4176TIP3   OH212533   0.440   3.634   4.330
 4176TIP3    H112534   0.385   3.563   4.297
 4176TIP3    H212535   0.474   3.675   4.251
 4177TIP3   OH212536   1.763   1.070   0.810
 4177TIP3    H112537   1.692   1.008   0.793
 4177TIP3    H212538   1.734   1.151   0.768
 4178TIP3   OH212539   1.822   4.647   1.802
 4178TIP3    H112540   1.893   4.690   1.756
 4178TIP3    H212541   1.865   4.590   1.866
 4179TIP3   OH212542   4.543   4.593   1.513
 4179TIP3    H112543   4.611   4.600   1.581
 4179TIP3    H212544   4.592   4.586   1.431
 4180TIP3   OH212545   2.073   3.435   3.753
 4180TIP3    H112546   2.008   3.392   3.697
 4180TIP3    H212547   2.137   3.472   3.692
 4181TIP3   OH212548   1.248   0.321   3.108
 4181TIP3    H112549   1.186   0.341   3.179
 4181TIP3    H212550   1.272   0.407   3.073
 4182TIP3   OH212551   0.704   5.518   2.860
 4182TIP3    H112552   0.757   5.439   2.871
 4182TIP3    H212553   0.662   5.531   2.945
 4183TIP3   OH212554   1.845   2.417   2.761
 4183TIP3    H112555   1.755   2.384   2.762
 4183TIP3    H212556   1.836   2.509   2.736
 4184TIP3   OH212557   4.647   3.730  -0.010
 4184TIP3    H112558   4.653   3.636  -0.024
 4184TIP3    H212559   4.607   3.740   0.076
 4185TIP3   OH212560   4.611   5.221   0.506
 4185TIP3    H112561   4.590   5.195   0.417
 4185TIP3    H212562   4.541   5.183   0.559
 4186TIP3   OH212563   3.684   3.083   2.519
 4186TIP3    H112564   3.652   3.142   2.451
 4186TIP3    H212565   3.636   3.110   2.598
 4187TIP3   OH212566   0.226   3.336   3.423
 4187TIP3    H112567   0.270   3.251   3.419
 4187TIP3    H212568   0.252   3.372   3.508
 4188TIP3   OH212569   5.274   2.166   1.664
 4188TIP3    H112570   5.235   2.178   1.751
 4188TIP3    H212571   5.239   2.082   1.633
 4189TIP3   OH212572   4.388   3.218   0.981
 4189TIP3    H112573   4.293   3.216   0.995
 4189TIP3    H212574   4.407   3.307   0.952
 4190TIP3   OH212575   0.318   5.499   1.236
 4190TIP3    H112576   0.342   5.526   1.325
 4190TIP3    H212577   0.325   5.403   1.237
 4191TIP3   OH212578   3.818   4.961   4.966
 4191TIP3    H112579   3.908   4.965   5.000
 4191TIP3    H212580   3.805   4.869   4.944
 4192TIP3   OH212581   1.194   4.446   1.774
 4192TIP3    H112582   1.221   4.458   1.865
 4192TIP3    H212583   1.107   4.408   1.780
 4193TIP3   OH212584   5.060   5.317   0.948
 4193TIP3    H112585   5.037   5.367   0.870
 4193TIP3    H212586   5.069   5.383   1.017
 4194TIP3   OH212587   5.199   4.513   0.172
 4194TIP3    H112588   5.197   4.439   0.233
 4194TIP3    H212589   5.112   4.553   0.181
 4195TIP3   OH212590   6.260   2.360   2.140
 4195TIP3    H112591   6.337   2.401   2.179
 4195TIP3    H212592   6.286   2.339   2.051
 4196TIP3   OH212593   1.087   4.133   4.680
 4196TIP3    H112594   1.121   4.046   4.663
 4196TIP3    H212595   1.024   4.149   4.610
 4197TIP3   OH212596   4.246   0.382   4.384
 4197TIP3    H112597   4.340   0.376   4.369
 4197TIP3    H212598   4.228   0.476   4.383
 4198TIP3   OH212599   5.227   3.652   3.450
 4198TIP3    H112600   5.301   3.606   3.410
 4198TIP3    H212601   5.221   3.734   3.402
 4199TIP3   OH212602   1.890   2.965   1.041
 4199TIP3    H112603   1.938   3.042   1.012
 4199TIP3    H212604   1.932   2.892   0.994
 4200TIP3   OH212605   3.804   2.020   0.925
 4200TIP3    H112606   3.854   2.028   0.843
 4200TIP3    H212607   3.795   2.110   0.956
 4201TIP3   OH212608   0.383   2.313   4.908
 4201TIP3    H112609   0.373   2.362   4.989
 4201TIP3    H212610   0.295   2.314   4.868
 4202TIP3   OH212611   0.293   3.121   4.536
 4202TIP3    H112612   0.323   3.129   4.627
 4202TIP3    H212613   0.222   3.057   4.539
 4203TIP3   OH212614   4.482   4.251   4.733
 4203TIP3    H112615   4.519   4.301   4.806
 4203TIP3    H212616   4.553   4.193   4.705
 4204TIP3   OH212617   2.954   4.084   0.378
 4204TIP3    H112618   2.964   4.005   0.430
 4204TIP3    H212619   3.026   4.140   0.404
 4205TIP3   OH212620   3.704   4.305   3.012
 4205TIP3    H112621   3.779   4.253   2.984
 4205TIP3    H212622   3.630   4.269   2.964
 4206TIP3   OH212623   0.446   2.774   1.613
 4206TIP3    H112624   0.523   2.717   1.624
 4206TIP3    H212625   0.477   2.844   1.556
 4207TIP3   OH212626   3.317   4.274   4.799
 4207TIP3    H112627   3.299   4.184   4.826
 4207TIP3    H212628   3.394   4.299   4.850
 4208TIP3   OH212629   5.412   4.637   3.946
 4208TIP3    H112630   5.493   4.650   3.897
 4208TIP3    H212631   5.389   4.724   3.979
 4209TIP3   OH212632   1.058   2.478   4.611
 4209TIP3    H112633   1.016   2.536   4.674
 4209TIP3    H212634   1.121   2.534   4.565
 4210TIP3   OH212635   3.119   3.932   0.196
 4210TIP3    H112636   3.063   3.978   0.258
 4210TIP3    H212637   3.142   3.998   0.131
 4211TIP3   OH212638   3.647   1.422   3.298
 4211TIP3    H112639   3.649   1.360   3.226
 4211TIP3    H212640   3.651   1.508   3.255
 4212TIP3   OH212641   3.421   1.823   0.546
 4212TIP3    H112642   3.387   1.912   0.558
 4212TIP3    H212643   3.402   1.803   0.454
 4213TIP3   OH212644   5.588   3.140   2.385
 4213TIP3    H112645   5.627   3.188   2.458
 4213TIP3    H212646   5.622   3.184   2.307
 4214TIP3   OH212647   1.988   1.400   2.443
 4214TIP3    H112648   2.050   1.329   2.453
 4214TIP3    H212649   1.903   1.360   2.462
 4215TIP3   OH212650   0.852   2.061   3.812
 4215TIP3    H112651   0.929   2.103   3.848
 4215TIP3    H212652   0.870   2.054   3.718
 4216TIP3   OH212653   5.101   5.619   3.017
 4216TIP3    H112654   5.030   5.672   3.052
 4216TIP3    H212655   5.073   5.597   2.928
 4217TIP3   OH212656   3.654   5.793   3.716
 4217TIP3    H112657   3.728   5.737   3.690
 4217TIP3    H212658   3.587   5.731   3.746
 4218TIP3   OH212659   5.271   4.615   5.087
 4218TIP3    H112660   5.176   4.612   5.088
 4218TIP3    H212661   5.298   4.523   5.082
 4219TIP3   OH212662   2.014   4.748   1.025
 4219TIP3    H112663   2.086   4.733   0.964
 4219TIP3    H212664   2.040   4.702   1.105
 4220TIP3   OH212665   1.099   5.235   4.758
 4220TIP3    H112666   1.046   5.168   4.800
 4220TIP3    H212667   1.164   5.187   4.708
 4221TIP3   OH212668   1.532   2.833   2.859
 4221TIP3    H112669   1.613   2.837   2.909
 4221TIP3    H212670   1.553   2.875   2.775
 4222TIP3   OH212671   1.964   1.675   4.203
 4222TIP3    H112672   1.958   1.750   4.144
 4222TIP3    H212673   1.898   1.613   4.171
 4223TIP3   OH212674   3.800   4.465   0.643
 4223TIP3    H112675   3.880   4.469   0.695
 4223TIP3    H212676   3.748   4.396   0.685
 4224TIP3   OH212677   0.619   1.767   3.536
 4224TIP3    H112678   0.581   1.853   3.519
 4224TIP3    H212679   0.661   1.743   3.454
 4225TIP3   OH212680   2.324   4.323   0.889
 4225TIP3    H112681   2.419   4.327   0.877
 4225TIP3    H212682   2.309   4.236   0.926
 4226TIP3   OH212683   4.585   5.106   3.206
 4226TIP3    H112684   4.543   5.111   3.120
 4226TIP3    H212685   4.617   5.015   3.212
 4227TIP3   OH212686   2.263   0.504   4.138
 4227TIP3    H112687   2.178   0.477   4.173
 4227TIP3    H212688   2.304   0.422   4.110
 4228TIP3   OH212689   0.662   2.898   1.150
 4228TIP3    H112690   0.589   2.838   1.163
 4228TIP3    H212691   0.739   2.849   1.178
 4229TIP3   OH212692   1.725   1.848   4.110
 4229TIP3    H112693   1.652   1.815   4.059
 4229TIP3    H212694   1.718   1.943   4.105
 4230TIP3   OH212695   6.160   0.696   0.475
 4230TIP3    H112696   6.103   0.627   0.511
 4230TIP3    H212697   6.103   0.773   0.471
 4231TIP3   OH212698   2.159   1.757   2.343
 4231TIP3    H112699   2.092   1.776   2.277
 4231TIP3    H212700   2.160   1.834   2.399
 4232TIP3   OH212701   4.321   3.724   0.525
 4232TIP3    H112702   4.400   3.682   0.490
 4232TIP3    H212703   4.352   3.808   0.558
 4233TIP3   OH212704   0.284   5.036   4.635
 4233TIP3    H112705   0.373   5.067   4.619
 4233TIP3    H212706   0.238   5.053   4.553
 4234TIP3   OH212707   1.125   0.463   2.843
 4234TIP3    H112708   1.206   0.445   2.795
 4234TIP3    H212709   1.135   0.554   2.873
 4235TIP3   OH212710   2.122   0.081   4.923
 4235TIP3    H112711   2.130  -0.003   4.879
 4235TIP3    H212712   2.039   0.116   4.891
 4236TIP3   OH212713   4.063   0.012   0.452
 4236TIP3    H112714   3.976   0.020   0.492
 4236TIP3    H212715   4.123   0.027   0.525
 4237TIP3   OH212716   3.174   5.576   4.309
 4237TIP3    H112717   3.228   5.601   4.384
 4237TIP3    H212718   3.169   5.481   4.313
 4238TIP3   OH212719   5.082   2.069   2.206
 4238TIP3    H112720   5.051   1.982   2.182
 4238TIP3    H212721   5.052   2.126   2.135
 4239TIP3   OH212722   0.079   4.426   0.645
 4239TIP3    H112723   0.128   4.349   0.615
 4239TIP3    H212724  -0.004   4.391   0.677
 4240TIP3   OH212725   2.430   1.575   4.784
 4240TIP3    H112726   2.514   1.546   4.748
 4240TIP3    H212727   2.395   1.635   4.719
 4241TIP3   OH212728   0.583   1.276   4.316
 4241TIP3    H112729   0.492   1.280   4.345
 4241TIP3    H212730   0.627   1.222   4.381
 4242TIP3   OH212731   0.321   5.705   4.348
 4242TIP3    H112732   0.271   5.650   4.408
 4242TIP3    H212733   0.374   5.761   4.405
 4243TIP3   OH212734   3.754   3.209   3.889
 4243TIP3    H112735   3.779   3.291   3.846
 4243TIP3    H212736   3.673   3.182   3.844
 4244TIP3   OH212737   4.745   1.661   0.090
 4244TIP3    H112738   4.731   1.658   0.185
 4244TIP3    H212739   4.725   1.751   0.066
 4245TIP3   OH212740   0.338   3.759   4.559
 4245TIP3    H112741   0.361   3.705   4.483
 4245TIP3    H212742   0.377   3.844   4.540
 4246TIP3   OH212743   1.414   1.504   1.284
 4246TIP3    H112744   1.461   1.435   1.236
 4246TIP3    H212745   1.457   1.585   1.258
 4247TIP3   OH212746   4.342   5.897   1.669
 4247TIP3    H112747   4.399   5.879   1.744
 4247TIP3    H212748   4.296   5.814   1.654
 4248TIP3   OH212749   5.822   5.531   4.789
 4248TIP3    H112750   5.791   5.580   4.712
 4248TIP3    H212751   5.812   5.592   4.862
 4249TIP3   OH212752   6.033   2.363   0.237
 4249TIP3    H112753   6.127   2.375   0.251
 4249TIP3    H212754   5.992   2.419   0.303
 4250TIP3   OH212755   1.064   5.222   1.472
 4250TIP3    H112756   1.118   5.193   1.546
 4250TIP3    H212757   1.104   5.180   1.395
 4251TIP3   OH212758   5.431   1.797   1.660
 4251TIP3    H112759   5.484   1.782   1.738
 4251TIP3    H212760   5.489   1.773   1.587
 4252TIP3   OH212761   1.628   3.987   1.090
 4252TIP3    H112762   1.592   3.910   1.132
 4252TIP3    H212763   1.608   3.976   0.997
 4253TIP3   OH212764   4.884   0.342   1.639
 4253TIP3    H112765   4.898   0.409   1.571
 4253TIP3    H212766   4.802   0.299   1.613
 4254TIP3   OH212767   0.925   4.580   2.805
 4254TIP3    H112768   0.986   4.630   2.859
 4254TIP3    H212769   0.901   4.640   2.734
 4255TIP3   OH212770   0.613   0.895   3.638
 4255TIP3    H112771   0.546   0.914   3.573
 4255TIP3    H212772   0.632   0.980   3.678
 4256TIP3   OH212773   2.274   4.633   3.841
 4256TIP3    H112774   2.357   4.678   3.823
 4256TIP3    H212775   2.221   4.648   3.762
 4257TIP3   OH212776   5.170   3.911   2.759
 4257TIP3    H112777   5.135   3.825   2.734
 4257TIP3    H212778   5.094   3.970   2.752
 4258TIP3   OH212779   2.571   0.888   3.635
 4258TIP3    H112780   2.555   0.855   3.546
 4258TIP3    H212781   2.653   0.846   3.662
 4259TIP3   OH212782   5.666   0.417   4.928
 4259TIP3    H112783   5.572   0.415   4.913
 4259TIP3    H212784   5.698   0.336   4.888
 4260TIP3   OH212785   3.531   5.690   4.256
 4260TIP3    H112786   3.470   5.760   4.275
 4260TIP3    H212787   3.477   5.611   4.252
 4261TIP3   OH212788   2.893   5.865   2.167
 4261TIP3    H112789   2.936   5.880   2.083
 4261TIP3    H212790   2.965   5.870   2.231
 4262TIP3   OH212791   3.800   5.659   2.021
 4262TIP3    H112792   3.809   5.564   2.010
 4262TIP3    H212793   3.741   5.669   2.095
 4263TIP3   OH212794   1.545   5.233   3.366
 4263TIP3    H112795   1.606   5.307   3.366
 4263TIP3    H212796   1.568   5.182   3.289
 4264TIP3   OH212797   6.039   1.077   4.383
 4264TIP3    H112798   6.036   0.985   4.358
 4264TIP3    H212799   6.071   1.077   4.473
 4265TIP3   OH212800   1.926   5.999   2.209
 4265TIP3    H112801   1.841   6.023   2.172
 4265TIP3    H212802   1.976   5.965   2.135
 4266TIP3   OH212803   1.835   2.518   5.056
 4266TIP3    H112804   1.907   2.580   5.067
 4266TIP3    H212805   1.876   2.432   5.062
 4267TIP3   OH212806   0.342   3.002   3.697
 4267TIP3    H112807   0.338   3.056   3.617
 4267TIP3    H212808   0.412   3.041   3.748
 4268TIP3   OH212809   0.679   2.487   3.477
 4268TIP3    H112810   0.673   2.549   3.405
 4268TIP3    H212811   0.761   2.508   3.521
 4269TIP3   OH212812   0.536   3.509   2.145
 4269TIP3    H112813   0.532   3.491   2.051
 4269TIP3    H212814   0.572   3.429   2.183
 4270TIP3   OH212815   3.646   3.268   4.498
 4270TIP3    H112816   3.599   3.227   4.569
 4270TIP3    H212817   3.602   3.352   4.485
 4271TIP3   OH212818   3.620   2.916   2.149
 4271TIP3    H112819   3.701   2.966   2.141
 4271TIP3    H212820   3.648   2.824   2.140
 4272TIP3   OH212821   3.043   6.002   3.237
 4272TIP3    H112822   3.109   5.939   3.207
 4272TIP3    H212823   2.991   5.953   3.301
 4273TIP3   OH212824   0.516   2.405   2.417
 4273TIP3    H112825   0.545   2.407   2.326
 4273TIP3    H212826   0.572   2.339   2.458
 4274TIP3   OH212827   3.744   4.880   4.181
 4274TIP3    H112828   3.679   4.826   4.225
 4274TIP3    H212829   3.712   4.970   4.193
 4275TIP3   OH212830   5.032   4.480   5.059
 4275TIP3    H112831   5.037   4.391   5.094
 4275TIP3    H212832   4.948   4.514   5.089
 4276TIP3   OH212833   5.097   4.341   0.395
 4276TIP3    H112834   5.079   4.247   0.401
 4276TIP3    H212835   5.028   4.382   0.448
 4277TIP3   OH212836   0.667   2.486   1.352
 4277TIP3    H112837   0.724   2.445   1.287
 4277TIP3    H212838   0.620   2.414   1.393
 4278TIP3   OH212839   3.493   2.611   2.969
 4278TIP3    H112840   3.513   2.558   3.046
 4278TIP3    H212841   3.539   2.694   2.984
 4279TIP3   OH212842   2.595   0.046   3.065
 4279TIP3    H112843   2.651   0.088   3.000
 4279TIP3    H212844   2.518   0.102   3.071
 4280TIP3   OH212845   1.488   2.245   3.827
 4280TIP3    H112846   1.439   2.196   3.760
 4280TIP3    H212847   1.420   2.293   3.875
 4281TIP3   OH212848   0.050   3.693   5.071
 4281TIP3    H112849   0.039   3.783   5.102
 4281TIP3    H212850  -0.031   3.674   5.024
 4282TIP3   OH212851   1.256   4.461   3.002
 4282TIP3    H112852   1.237   4.420   3.087
 4282TIP3    H212853   1.217   4.402   2.938
 4283TIP3   OH212854   3.678   5.588   0.905
 4283TIP3    H112855   3.725   5.653   0.958
 4283TIP3    H212856   3.743   5.519   0.890
 4284TIP3   OH212857   2.809   0.446   0.867
 4284TIP3    H112858   2.795   0.413   0.778
 4284TIP3    H212859   2.863   0.379   0.909
 4285TIP3   OH212860   5.919   1.736   1.568
 4285TIP3    H112861   5.889   1.805   1.508
 4285TIP3    H212862   5.920   1.777   1.654
 4286TIP3   OH212863   4.254   5.494   3.376
 4286TIP3    H112864   4.265   5.589   3.371
 4286TIP3    H212865   4.215   5.470   3.292
 4287TIP3   OH212866   3.594   2.579   3.514
 4287TIP3    H112867   3.651   2.502   3.524
 4287TIP3    H212868   3.620   2.638   3.584
 4288TIP3   OH212869   0.582   2.059   1.247
 4288TIP3    H112870   0.514   2.099   1.193
 4288TIP3    H212871   0.539   1.985   1.289
 4289TIP3   OH212872   1.272   1.836   0.821
 4289TIP3    H112873   1.203   1.788   0.866
 4289TIP3    H212874   1.276   1.921   0.866
 4290TIP3   OH212875   6.158   2.396   2.799
 4290TIP3    H112876   6.122   2.330   2.859
 4290TIP3    H212877   6.230   2.435   2.847
 4291TIP3   OH212878   1.992   2.389   4.199
 4291TIP3    H112879   2.014   2.411   4.289
 4291TIP3    H212880   2.040   2.452   4.146
 4292TIP3   OH212881   2.068   3.177   0.935
 4292TIP3    H112882   2.022   3.257   0.961
 4292TIP3    H212883   2.160   3.198   0.945
 4293TIP3   OH212884   0.807   3.117   2.054
 4293TIP3    H112885   0.853   3.033   2.056
 4293TIP3    H212886   0.876   3.181   2.033
 4294TIP3   OH212887   3.555   3.201   2.746
 4294TIP3    H112888   3.616   3.213   2.819
 4294TIP3    H212889   3.482   3.153   2.784
 4295TIP3   OH212890   2.253   5.385   4.957
 4295TIP3    H112891   2.340   5.346   4.952
 4295TIP3    H212892   2.193   5.311   4.960
 4296TIP3   OH212893   1.263   0.943   1.338
 4296TIP3    H112894   1.231   0.863   1.296
 4296TIP3    H212895   1.187   1.000   1.343
 4297TIP3   OH212896   2.364   0.852   1.096
 4297TIP3    H112897   2.368   0.756   1.092
 4297TIP3    H212898   2.390   0.881   1.008
 4298TIP3   OH212899   4.170   5.177   1.552
 4298TIP3    H112900   4.137   5.266   1.567
 4298TIP3    H212901   4.098   5.120   1.578
 4299TIP3   OH212902   5.994   4.045   2.370
 4299TIP3    H112903   5.950   4.015   2.449
 4299TIP3    H212904   6.061   3.978   2.352
 4300TIP3   OH212905   2.269   1.768   1.487
 4300TIP3    H112906   2.184   1.745   1.525
 4300TIP3    H212907   2.305   1.834   1.546
 4301TIP3   OH212908   1.557   0.421   1.688
 4301TIP3    H112909   1.577   0.498   1.636
 4301TIP3    H212910   1.628   0.414   1.750
 4302TIP3   OH212911   0.508   1.800   4.484
 4302TIP3    H112912   0.437   1.844   4.437
 4302TIP3    H212913   0.540   1.734   4.422
 4303TIP3   OH212914   2.483   2.684   0.191
 4303TIP3    H112915   2.495   2.747   0.262
 4303TIP3    H212916   2.508   2.600   0.230
 4304TIP3   OH212917   4.503   0.815   5.131
 4304TIP3    H112918   4.487   0.774   5.046
 4304TIP3    H212919   4.573   0.878   5.115
 4305TIP3   OH212920   2.099   4.719   1.921
 4305TIP3    H112921   2.087   4.786   1.854
 4305TIP3    H212922   2.192   4.696   1.917
 4306TIP3   OH212923   0.825   3.133   2.494
 4306TIP3    H112924   0.853   3.043   2.476
 4306TIP3    H212925   0.742   3.142   2.447
 4307TIP3   OH212926   5.289   1.984   5.153
 4307TIP3    H112927   5.224   1.994   5.222
 4307TIP3    H212928   5.240   1.953   5.077
 4308TIP3   OH212929   6.030   2.877   3.358
 4308TIP3    H112930   6.113   2.831   3.375
 4308TIP3    H212931   5.984   2.820   3.296
 4309TIP3   OH212932   0.828   1.545   3.149
 4309TIP3    H112933   0.815   1.628   3.196
 4309TIP3    H212934   0.809   1.567   3.058
 4310TIP3   OH212935   6.029   5.299   1.671
 4310TIP3    H112936   6.110   5.311   1.721
 4310TIP3    H212937   5.981   5.231   1.718
 4311TIP3   OH212938   3.642   5.070   0.197
 4311TIP3    H112939   3.597   5.057   0.281
 4311TIP3    H212940   3.623   5.161   0.174
 4312TIP3   OH212941   6.003   4.817   1.889
 4312TIP3    H112942   6.031   4.729   1.866
 4312TIP3    H212943   5.913   4.806   1.920
 4313TIP3   OH212944   1.873   1.632   0.264
 4313TIP3    H112945   1.801   1.645   0.203
 4313TIP3    H212946   1.951   1.632   0.208
 4314TIP3   OH212947   2.619   5.926   1.563
 4314TIP3    H112948   2.552   5.871   1.603
 4314TIP3    H212949   2.699   5.873   1.565
 4315TIP3   OH212950   4.973   3.488   4.518
 4315TIP3    H112951   5.060   3.528   4.516
 4315TIP3    H212952   4.918   3.547   4.466
 4316TIP3   OH212953   4.189   0.378   0.186
 4316TIP3    H112954   4.161   0.351   0.273
 4316TIP3    H212955   4.235   0.461   0.200
 4317TIP3   OH212956   0.369   2.064   3.905
 4317TIP3    H112957   0.331   2.129   3.964
 4317TIP3    H212958   0.444   2.109   3.866
 4318TIP3   OH212959   2.481   1.400   4.447
 4318TIP3    H112960   2.543   1.451   4.499
 4318TIP3    H212961   2.492   1.310   4.477
 4319TIP3   OH212962   4.255   1.577   3.505
 4319TIP3    H112963   4.298   1.497   3.478
 4319TIP3    H212964   4.314   1.616   3.570
 4320TIP3   OH212965   5.510   0.996   3.975
 4320TIP3    H112966   5.515   0.985   3.880
 4320TIP3    H212967   5.455   0.923   4.004
 4321TIP3   OH212968   2.159   5.397   3.070
 4321TIP3    H112969   2.245   5.435   3.050
 4321TIP3    H212970   2.119   5.383   2.984
 4322TIP3   OH212971   2.567   0.129   0.291
 4322TIP3    H112972   2.587   0.203   0.349
 4322TIP3    H212973   2.548   0.057   0.351
 4323TIP3   OH212974   4.428   2.751   2.106
 4323TIP3    H112975   4.519   2.775   2.093
 4323TIP3    H212976   4.399   2.804   2.180
 4324TIP3   OH212977   5.077   5.550   2.235
 4324TIP3    H112978   5.104   5.511   2.318
 4324TIP3    H212979   4.983   5.566   2.246
 4325TIP3   OH212980   6.265   1.426   1.027
 4325TIP3    H112981   6.305   1.339   1.019
 4325TIP3    H212982   6.184   1.411   1.075
 4326TIP3   OH212983   0.998   5.314   1.798
 4326TIP3    H112984   1.084   5.333   1.762
 4326TIP3    H212985   0.963   5.399   1.823
 4327TIP3   OH212986   4.489   0.323   4.289
 4327TIP3    H112987   4.487   0.261   4.216
 4327TIP3    H212988   4.528   0.402   4.253
 4328TIP3   OH212989   1.300   4.887   3.976
 4328TIP3    H112990   1.363   4.916   4.041
 4328TIP3    H212991   1.350   4.832   3.917
 4329TIP3   OH212992   2.571   3.688   4.554
 4329TIP3    H112993   2.622   3.613   4.586
 4329TIP3    H212994   2.621   3.764   4.583
 4330TIP3   OH212995   3.899   2.011   1.387
 4330TIP3    H112996   3.805   1.994   1.401
 4330TIP3    H212997   3.902   2.061   1.306
 4331TIP3   OH212998   1.516   4.359   3.108
 4331TIP3    H112999   1.501   4.337   3.016
 4331TIP3    H213000   1.435   4.335   3.152
 4332TIP3   OH213001   6.258   5.955   1.483
 4332TIP3    H113002   6.242   6.001   1.400
 4332TIP3    H213003   6.352   5.967   1.498
 4333TIP3   OH213004   0.122   1.325   3.170
 4333TIP3    H113005   0.147   1.253   3.227
 4333TIP3    H213006   0.205   1.368   3.147
 4334TIP3   OH213007   4.795   3.215   2.071
 4334TIP3    H113008   4.721   3.194   2.014
 4334TIP3    H213009   4.841   3.285   2.025
 4335TIP3   OH213010   5.668   0.751   0.246
 4335TIP3    H113011   5.703   0.676   0.198
 4335TIP3    H213012   5.605   0.791   0.185
 4336TIP3   OH213013   5.736   1.300   1.623
 4336TIP3    H113014   5.699   1.262   1.703
 4336TIP3    H213015   5.821   1.257   1.614
 4337TIP3   OH213016   3.555   1.043   1.162
 4337TIP3    H113017   3.469   1.022   1.123
 4337TIP3    H213018   3.618   1.017   1.094
 4338TIP3   OH213019   4.585   1.299   2.764
 4338TIP3    H113020   4.579   1.220   2.709
 4338TIP3    H213021   4.632   1.362   2.710
 4339TIP3   OH213022   3.281   3.765   2.235
 4339TIP3    H113023   3.282   3.849   2.189
 4339TIP3    H213024   3.198   3.765   2.282
 4340TIP3   OH213025   0.722   0.952   0.448
 4340TIP3    H113026   0.671   0.874   0.428
 4340TIP3    H213027   0.663   1.007   0.500
 4341TIP3   OH213028   2.116   1.584   0.088
 4341TIP3    H113029   2.130   1.675   0.062
 4341TIP3    H213030   2.069   1.545   0.014
 4342TIP3   OH213031   0.185   4.939   1.272
 4342TIP3    H113032   0.194   4.852   1.234
 4342TIP3    H213033   0.155   4.924   1.362
 4343TIP3   OH213034   4.506   0.710   2.770
 4343TIP3    H113035   4.498   0.772   2.844
 4343TIP3    H213036   4.573   0.648   2.799
 4344TIP3   OH213037   0.764   1.246   0.145
 4344TIP3    H113038   0.797   1.326   0.104
 4344TIP3    H213039   0.786   1.255   0.238
 4345TIP3   OH213040   4.953   2.335   2.398
 4345TIP3    H113041   5.014   2.326   2.324
 4345TIP3    H213042   4.868   2.352   2.357
 4346TIP3   OH213043   2.117   2.818   1.966
 4346TIP3    H113044   2.147   2.803   2.055
 4346TIP3    H213045   2.109   2.913   1.958
 4347TIP3   OH213046   5.992   5.900   2.796
 4347TIP3    H113047   5.931   5.837   2.758
 4347TIP3    H213048   6.076   5.879   2.756
 4348TIP3   OH213049   0.491   5.515   4.930
 4348TIP3    H113050   0.422   5.564   4.975
 4348TIP3    H213051   0.496   5.432   4.979
 4349TIP3   OH213052   0.835   1.505   4.992
 4349TIP3    H113053   0.890   1.583   4.996
 4349TIP3    H213054   0.746   1.538   5.000
 4350TIP3   OH213055   4.868   0.926   0.082
 4350TIP3    H113056   4.904   0.992   0.141
 4350TIP3    H213057   4.798   0.885   0.132
 4351TIP3   OH213058   5.042   0.862   0.467
 4351TIP3    H113059   4.987   0.936   0.446
 4351TIP3    H213060   4.993   0.785   0.437
 4352TIP3   OH213061   3.735   1.581   0.608
 4352TIP3    H113062   3.786   1.526   0.669
 4352TIP3    H213063   3.801   1.635   0.565
 4353TIP3   OH213064   1.782   5.971   2.456
 4353TIP3    H113065   1.816   5.884   2.478
 4353TIP3    H213066   1.831   5.998   2.379
 4354TIP3   OH213067   5.755   0.749   4.254
 4354TIP3    H113068   5.705   0.749   4.172
 4354TIP3    H213069   5.846   0.745   4.226
 4355TIP3   OH213070   3.041   4.012   2.395
 4355TIP3    H113071   3.098   4.045   2.326
 4355TIP3    H213072   2.961   4.063   2.387
 4356TIP3   OH213073   3.087   0.890   4.833
 4356TIP3    H113074   3.050   0.864   4.748
 4356TIP3    H213075   3.051   0.977   4.849
 4357TIP3   OH213076   3.512   5.075   2.379
 4357TIP3    H113077   3.438   5.101   2.433
 4357TIP3    H213078   3.566   5.020   2.436
 4358TIP3   OH213079   0.829   0.599   3.677
 4358TIP3    H113080   0.746   0.628   3.716
 4358TIP3    H213081   0.805   0.524   3.623
 4359TIP3   OH213082   1.477   4.607   3.284
 4359TIP3    H113083   1.427   4.526   3.279
 4359TIP3    H213084   1.465   4.637   3.375
 4360TIP3   OH213085   0.710   0.134   0.643
 4360TIP3    H113086   0.714   0.057   0.700
 4360TIP3    H213087   0.732   0.100   0.556
 4361TIP3   OH213088   0.543   4.022   1.667
 4361TIP3    H113089   0.463   3.972   1.683
 4361TIP3    H213090   0.525   4.072   1.587
 4362TIP3   OH213091   3.105   1.006   2.606
 4362TIP3    H113092   3.039   0.939   2.590
 4362TIP3    H213093   3.091   1.072   2.538
 4363TIP3   OH213094   0.581   5.056   4.530
 4363TIP3    H113095   0.638   5.001   4.585
 4363TIP3    H213096   0.589   5.144   4.568
 4364TIP3   OH213097   0.831   0.058   1.320
 4364TIP3    H113098   0.793  -0.025   1.351
 4364TIP3    H213099   0.757   0.104   1.280
 4365TIP3   OH213100   5.654   5.030   1.548
 4365TIP3    H113101   5.699   5.109   1.518
 4365TIP3    H213102   5.601   5.060   1.622
 4366TIP3   OH213103   4.367   1.269   3.107
 4366TIP3    H113104   4.289   1.278   3.162
 4366TIP3    H213105   4.382   1.357   3.073
 4367TIP3   OH213106   2.791   3.635   1.588
 4367TIP3    H113107   2.793   3.569   1.519
 4367TIP3    H213108   2.883   3.651   1.609
 4368TIP3   OH213109   1.104   2.065   3.930
 4368TIP3    H113110   1.098   2.157   3.954
 4368TIP3    H213111   1.134   2.021   4.010
 4369TIP3   OH213112   5.822   0.102   2.543
 4369TIP3    H113113   5.901   0.152   2.562
 4369TIP3    H213114   5.755   0.140   2.601
 4370TIP3   OH213115   5.309   5.406   1.930
 4370TIP3    H113116   5.320   5.375   2.020
 4370TIP3    H213117   5.289   5.328   1.880
 4371TIP3   OH213118   0.773   4.144   4.117
 4371TIP3    H113119   0.771   4.127   4.023
 4371TIP3    H213120   0.823   4.070   4.153
 4372TIP3   OH213121   4.713   0.323   3.732
 4372TIP3    H113122   4.665   0.367   3.662
 4372TIP3    H213123   4.662   0.245   3.751
 4373TIP3   OH213124   1.374   2.171   3.599
 4373TIP3    H113125   1.338   2.083   3.591
 4373TIP3    H213126   1.309   2.228   3.558
 4374TIP3   OH213127   4.910   1.871   1.852
 4374TIP3    H113128   4.883   1.780   1.861
 4374TIP3    H213129   4.987   1.868   1.796
 4375TIP3   OH213130   1.627   4.839   0.782
 4375TIP3    H113131   1.670   4.782   0.718
 4375TIP3    H213132   1.698   4.869   0.838
 4376TIP3   OH213133   4.670   2.210   3.717
 4376TIP3    H113134   4.579   2.196   3.744
 4376TIP3    H213135   4.672   2.299   3.682
 4377TIP3   OH213136   3.453   5.865   1.184
 4377TIP3    H113137   3.358   5.853   1.184
 4377TIP3    H213138   3.465   5.960   1.183
 4378TIP3   OH213139   2.985   2.680   2.868
 4378TIP3    H113140   2.993   2.640   2.781
 4378TIP3    H213141   2.896   2.716   2.869
 4379TIP3   OH213142   6.248   2.733   3.422
 4379TIP3    H113143   6.211   2.670   3.484
 4379TIP3    H213144   6.303   2.680   3.364
 4380TIP3   OH213145   0.852   3.104   0.342
 4380TIP3    H113146   0.905   3.182   0.356
 4380TIP3    H213147   0.875   3.075   0.254
 4381TIP3   OH213148   0.718   3.431   1.872
 4381TIP3    H113149   0.770   3.460   1.797
 4381TIP3    H213150   0.629   3.461   1.852
 4382TIP3   OH213151   1.559   4.017   0.549
 4382TIP3    H113152   1.558   4.003   0.455
 4382TIP3    H213153   1.651   4.008   0.574
 4383TIP3   OH213154   3.023   0.145   2.824
 4383TIP3    H113155   2.937   0.109   2.801
 4383TIP3    H213156   3.008   0.239   2.831
 4384TIP3   OH213157   1.167   0.589   4.796
 4384TIP3    H113158   1.162   0.641   4.716
 4384TIP3    H213159   1.097   0.623   4.852
 4385TIP3   OH213160   4.499   3.927   1.237
 4385TIP3    H113161   4.485   3.834   1.258
 4385TIP3    H213162   4.427   3.949   1.179
 4386TIP3   OH213163   5.359   2.120   4.345
 4386TIP3    H113164   5.316   2.097   4.263
 4386TIP3    H213165   5.452   2.100   4.331
 4387TIP3   OH213166   4.709   3.521   4.065
 4387TIP3    H113167   4.640   3.525   3.998
 4387TIP3    H213168   4.689   3.442   4.115
 4388TIP3   OH213169   4.614   4.223   1.764
 4388TIP3    H113170   4.640   4.314   1.749
 4388TIP3    H213171   4.667   4.173   1.701
 4389TIP3   OH213172   2.074   1.152   4.594
 4389TIP3    H113173   2.120   1.068   4.588
 4389TIP3    H213174   2.027   1.160   4.511
 4390TIP3   OH213175   3.976   0.473   4.803
 4390TIP3    H113176   4.043   0.472   4.872
 4390TIP3    H213177   3.934   0.387   4.811
 4391TIP3   OH213178   6.113   5.520   4.927
 4391TIP3    H113179   6.173   5.567   4.985
 4391TIP3    H213180   6.035   5.505   4.980
 4392TIP3   OH213181   1.233   2.657   4.554
 4392TIP3    H113182   1.208   2.729   4.496
 4392TIP3    H213183   1.301   2.695   4.611
 4393TIP3   OH213184   0.169   3.197   1.615
 4393TIP3    H113185   0.239   3.243   1.661
 4393TIP3    H213186   0.096   3.195   1.677
 4394TIP3   OH213187   3.481   1.502   0.944
 4394TIP3    H113188   3.416   1.480   0.877
 4394TIP3    H213189   3.553   1.441   0.929
 4395TIP3   OH213190   4.969   2.159   3.409
 4395TIP3    H113191   4.886   2.127   3.373
 4395TIP3    H213192   4.979   2.246   3.373
 4396TIP3   OH213193   0.266   3.536   1.141
 4396TIP3    H113194   0.237   3.466   1.082
 4396TIP3    H213195   0.309   3.490   1.213
 4397TIP3   OH213196   1.298   5.765   0.691
 4397TIP3    H113197   1.235   5.837   0.688
 4397TIP3    H213198   1.247   5.687   0.671
 4398TIP3   OH213199   1.089   4.989   4.118
 4398TIP3    H113200   1.171   4.957   4.080
 4398TIP3    H213201   1.100   4.976   4.212
 4399TIP3   OH213202   5.560   2.010   5.145
 4399TIP3    H113203   5.464   2.001   5.141
 4399TIP3    H213204   5.587   1.946   5.211
 4400TIP3   OH213205   0.193   0.770   4.428
 4400TIP3    H113206   0.186   0.684   4.387
 4400TIP3    H213207   0.130   0.824   4.381
 4401TIP3   OH213208   4.566   1.106   3.502
 4401TIP3    H113209   4.622   1.030   3.489
 4401TIP3    H213210   4.530   1.096   3.590
 4402TIP3   OH213211   2.261   2.199   1.043
 4402TIP3    H113212   2.303   2.138   0.983
 4402TIP3    H213213   2.173   2.163   1.055
 4403TIP3   OH213214   1.951   3.783   0.054
 4403TIP3    H113215   1.869   3.748   0.019
 4403TIP3    H213216   1.984   3.715   0.112
 4404TIP3   OH213217   5.253   2.996   1.998
 4404TIP3    H113218   5.208   2.913   2.015
 4404TIP3    H213219   5.212   3.030   1.918
 4405TIP3   OH213220   1.461   1.577   0.634
 4405TIP3    H113221   1.394   1.645   0.640
 4405TIP3    H213222   1.469   1.543   0.724
 4406TIP3   OH213223   4.857   2.027   4.578
 4406TIP3    H113224   4.764   2.043   4.599
 4406TIP3    H213225   4.892   1.986   4.657
 4407TIP3   OH213226   3.734   3.494   0.473
 4407TIP3    H113227   3.774   3.423   0.423
 4407TIP3    H213228   3.667   3.452   0.526
 4408TIP3   OH213229   5.140   1.125   0.580
 4408TIP3    H113230   5.156   1.031   0.585
 4408TIP3    H213231   5.081   1.136   0.505
 4409TIP3   OH213232   4.602   3.651   3.098
 4409TIP3    H113233   4.627   3.612   3.014
 4409TIP3    H213234   4.569   3.578   3.149
 4410TIP3   OH213235   0.732   2.521   2.591
 4410TIP3    H113236   0.784   2.457   2.544
 4410TIP3    H213237   0.678   2.563   2.524
 4411TIP3   OH213238   1.337   1.301   4.671
 4411TIP3    H113239   1.287   1.291   4.590
 4411TIP3    H213240   1.271   1.311   4.739
 4412TIP3   OH213241   3.887   3.566   2.289
 4412TIP3    H113242   3.802   3.523   2.277
 4412TIP3    H213243   3.870   3.635   2.354
 4413TIP3   OH213244   6.063   0.110  -0.010
 4413TIP3    H113245   6.044   0.144   0.078
 4413TIP3    H213246   6.145   0.152  -0.035
 4414TIP3   OH213247   3.717   4.768   4.731
 4414TIP3    H113248   3.809   4.788   4.711
 4414TIP3    H213249   3.667   4.823   4.671
 4415TIP3   OH213250   1.599   0.585   2.754
 4415TIP3    H113251   1.516   0.541   2.738
 4415TIP3    H213252   1.661   0.543   2.693
 4416TIP3   OH213253   0.960   0.221   2.821
 4416TIP3    H113254   1.031   0.283   2.841
 4416TIP3    H213255   0.982   0.187   2.734
 4417TIP3   OH213256   4.654   5.314   4.994
 4417TIP3    H113257   4.727   5.271   4.949
 4417TIP3    H213258   4.688   5.399   5.020
 4418TIP3   OH213259   3.213   4.270   3.140
 4418TIP3    H113260   3.184   4.353   3.179
 4418TIP3    H213261   3.270   4.296   3.068
 4419TIP3   OH213262   2.976   3.017   1.758
 4419TIP3    H113263   3.009   2.928   1.764
 4419TIP3    H213264   2.882   3.010   1.773
 4420TIP3   OH213265   1.722   1.143   1.937
 4420TIP3    H113266   1.691   1.122   1.849
 4420TIP3    H213267   1.712   1.061   1.985
 4421TIP3   OH213268   0.974   4.236   3.421
 4421TIP3    H113269   1.061   4.233   3.382
 4421TIP3    H213270   0.914   4.218   3.349
 4422TIP3   OH213271   1.502   1.473   3.766
 4422TIP3    H113272   1.501   1.523   3.848
 4422TIP3    H213273   1.513   1.539   3.698
 4423TIP3   OH213274   3.147   3.277   0.292
 4423TIP3    H113275   3.178   3.364   0.318
 4423TIP3    H213276   3.143   3.280   0.197
 4424TIP3   OH213277   4.053   4.038   4.948
 4424TIP3    H113278   3.998   4.107   4.985
 4424TIP3    H213279   3.995   3.963   4.938
 4425TIP3   OH213280   6.337   4.289   0.253
 4425TIP3    H113281   6.248   4.256   0.259
 4425TIP3    H213282   6.384   4.222   0.203
 4426TIP3   OH213283   0.734   1.548   1.054
 4426TIP3    H113284   0.730   1.509   1.141
 4426TIP3    H213285   0.669   1.500   1.003
 4427TIP3   OH213286   2.619   2.066   2.482
 4427TIP3    H113287   2.594   1.984   2.525
 4427TIP3    H213288   2.654   2.120   2.553
 4428TIP3   OH213289   5.072   0.332   0.435
 4428TIP3    H113290   5.139   0.374   0.380
 4428TIP3    H213291   5.042   0.257   0.384
 4429TIP3   OH213292   4.819   4.779   0.398
 4429TIP3    H113293   4.756   4.800   0.329
 4429TIP3    H213294   4.851   4.691   0.375
 4430TIP3   OH213295   5.075   2.842   3.347
 4430TIP3    H113296   4.997   2.848   3.291
 4430TIP3    H213297   5.071   2.920   3.402
 4431TIP3   OH213298   2.730   4.108   0.205
 4431TIP3    H113299   2.806   4.089   0.260
 4431TIP3    H213300   2.743   4.198   0.176
 4432TIP3   OH213301   1.654   2.545   4.193
 4432TIP3    H113302   1.632   2.595   4.272
 4432TIP3    H213303   1.714   2.477   4.223
 4433TIP3   OH213304   3.234   0.529   4.825
 4433TIP3    H113305   3.231   0.593   4.896
 4433TIP3    H213306   3.141   0.509   4.808
 4434TIP3   OH213307   3.919   3.738   0.109
 4434TIP3    H113308   3.997   3.683   0.113
 4434TIP3    H213309   3.925   3.794   0.187
 4435TIP3   OH213310   2.018   0.058   0.801
 4435TIP3    H113311   1.939   0.007   0.823
 4435TIP3    H213312   2.068   0.001   0.743
 4436TIP3   OH213313   1.436   0.550   0.641
 4436TIP3    H113314   1.396   0.464   0.634
 4436TIP3    H213315   1.454   0.576   0.550
 4437TIP3   OH213316   3.212   0.248   0.906
 4437TIP3    H113317   3.172   0.208   0.984
 4437TIP3    H213318   3.139   0.290   0.860
 4438TIP3   OH213319   4.709   3.977   0.439
 4438TIP3    H113320   4.706   4.007   0.348
 4438TIP3    H213321   4.757   3.895   0.435
 4439TIP3   OH213322   0.582   1.683   0.515
 4439TIP3    H113323   0.544   1.734   0.444
 4439TIP3    H213324   0.534   1.600   0.514
 4440TIP3   OH213325   1.328   5.835   4.874
 4440TIP3    H113326   1.243   5.804   4.844
 4440TIP3    H213327   1.378   5.755   4.893
 4441TIP3   OH213328   1.328   4.949   2.134
 4441TIP3    H113329   1.319   4.858   2.160
 4441TIP3    H213330   1.246   4.970   2.089
 4442TIP3   OH213331   2.359   0.700   4.335
 4442TIP3    H113332   2.413   0.759   4.281
 4442TIP3    H213333   2.308   0.650   4.271
 4443TIP3   OH213334   4.768   5.374   2.009
 4443TIP3    H113335   4.834   5.330   2.062
 4443TIP3    H213336   4.766   5.325   1.927
 4444TIP3   OH213337   5.826   0.132   0.895
 4444TIP3    H113338   5.821   0.124   0.800
 4444TIP3    H213339   5.913   0.098   0.918
 4445TIP3   OH213340   3.429   1.714   3.878
 4445TIP3    H113341   3.516   1.749   3.855
 4445TIP3    H213342   3.436   1.692   3.971
 4446TIP3   OH213343   4.640   3.141   1.072
 4446TIP3    H113344   4.552   3.155   1.037
 4446TIP3    H213345   4.698   3.176   1.005
 4447TIP3   OH213346   2.029   5.700   4.727
 4447TIP3    H113347   2.039   5.703   4.823
 4447TIP3    H213348   2.103   5.646   4.698
 4448TIP3   OH213349   4.021   1.133   0.747
 4448TIP3    H113350   4.086   1.198   0.771
 4448TIP3    H213351   3.947   1.184   0.714
 4449TIP3   OH213352   1.760   3.046   0.110
 4449TIP3    H113353   1.823   2.980   0.139
 4449TIP3    H213354   1.675   3.015   0.141
 4450TIP3   OH213355   0.295   2.435   3.474
 4450TIP3    H113356   0.349   2.500   3.429
 4450TIP3    H213357   0.230   2.409   3.408
 4451TIP3   OH213358   2.498   1.179   0.248
 4451TIP3    H113359   2.589   1.149   0.254
 4451TIP3    H213360   2.446   1.105   0.278
 4452TIP3   OH213361   3.987   0.076   2.708
 4452TIP3    H113362   3.957   0.028   2.631
 4452TIP3    H213363   3.947   0.163   2.699
 4453TIP3   OH213364   1.505   0.231   3.163
 4453TIP3    H113365   1.515   0.292   3.236
 4453TIP3    H213366   1.411   0.226   3.148
 4454TIP3   OH213367   1.083   1.044   3.621
 4454TIP3    H113368   1.089   1.131   3.659
 4454TIP3    H213369   1.042   1.057   3.535
 4455TIP3   OH213370   0.049   3.182   0.423
 4455TIP3    H113371  -0.003   3.111   0.462
 4455TIP3    H213372  -0.016   3.249   0.401
 4456TIP3   OH213373   2.249   4.666   0.865
 4456TIP3    H113374   2.333   4.637   0.901
 4456TIP3    H213375   2.270   4.691   0.775
 4457TIP3   OH213376   5.909   2.787   1.778
 4457TIP3    H113377   5.987   2.836   1.805
 4457TIP3    H213378   5.890   2.820   1.690
 4458TIP3   OH213379   3.820   3.900   0.884
 4458TIP3    H113380   3.842   3.862   0.969
 4458TIP3    H213381   3.734   3.863   0.863
 4459TIP3   OH213382   0.148   5.206   3.261
 4459TIP3    H113383   0.195   5.253   3.330
 4459TIP3    H213384   0.153   5.263   3.184
 4460TIP3   OH213385   1.336   1.809   1.181
 4460TIP3    H113386   1.337   1.718   1.151
 4460TIP3    H213387   1.316   1.860   1.103
 4461TIP3   OH213388   3.068   4.436   2.252
 4461TIP3    H113389   2.983   4.448   2.295
 4461TIP3    H213390   3.130   4.427   2.324
 4462TIP3   OH213391   3.931   1.931   3.570
 4462TIP3    H113392   3.945   1.845   3.529
 4462TIP3    H213393   3.925   1.992   3.497
 4463TIP3   OH213394   5.198   0.118   4.358
 4463TIP3    H113395   5.229   0.068   4.433
 4463TIP3    H213396   5.187   0.207   4.392
 4464TIP3   OH213397   2.392   5.623   1.963
 4464TIP3    H113398   2.305   5.663   1.967
 4464TIP3    H213399   2.409   5.595   2.053
 4465TIP3   OH213400   0.759   4.264   0.662
 4465TIP3    H113401   0.835   4.319   0.643
 4465TIP3    H213402   0.782   4.216   0.742
 4466TIP3   OH213403   5.810   3.485   1.324
 4466TIP3    H113404   5.855   3.514   1.244
 4466TIP3    H213405   5.879   3.484   1.391
 4467TIP3   OH213406   1.005   1.301   0.690
 4467TIP3    H113407   0.927   1.248   0.706
 4467TIP3    H213408   1.034   1.274   0.602
 4468TIP3   OH213409   1.464   4.816   3.758
 4468TIP3    H113410   1.531   4.751   3.779
 4468TIP3    H213411   1.513   4.890   3.723
 4469TIP3   OH213412   6.356   4.547   0.335
 4469TIP3    H113413   6.290   4.544   0.405
 4469TIP3    H213414   6.377   4.455   0.318
 4470TIP3   OH213415   0.972   0.760   4.931
 4470TIP3    H113416   0.930   0.845   4.943
 4470TIP3    H213417   0.907   0.696   4.962
 4471TIP3   OH213418   1.452   5.219   2.735
 4471TIP3    H113419   1.396   5.287   2.698
 4471TIP3    H213420   1.535   5.263   2.752
 4472TIP3   OH213421   4.244   4.396   0.757
 4472TIP3    H113422   4.162   4.355   0.728
 4472TIP3    H213423   4.310   4.327   0.748
 4473TIP3   OH213424   2.857   0.870   3.971
 4473TIP3    H113425   2.924   0.909   3.915
 4473TIP3    H213426   2.774   0.897   3.931
 4474TIP3   OH213427   3.890   0.409   4.138
 4474TIP3    H113428   3.818   0.378   4.083
 4474TIP3    H213429   3.956   0.440   4.076
 4475TIP3   OH213430   2.583   4.991   3.369
 4475TIP3    H113431   2.656   4.941   3.333
 4475TIP3    H213432   2.507   4.964   3.316
 4476TIP3   OH213433   2.178   4.049   3.077
 4476TIP3    H113434   2.191   4.117   3.011
 4476TIP3    H213435   2.241   3.981   3.055
 4477TIP3   OH213436   4.732   3.473   4.733
 4477TIP3    H113437   4.787   3.397   4.749
 4477TIP3    H213438   4.655   3.438   4.687
 4478TIP3   OH213439   4.522   1.468   4.804
 4478TIP3    H113440   4.551   1.534   4.867
 4478TIP3    H213441   4.465   1.409   4.855
 4479TIP3   OH213442   3.996   1.761   4.587
 4479TIP3    H113443   3.952   1.760   4.672
 4479TIP3    H213444   4.006   1.854   4.566
 4480TIP3   OH213445   4.757   4.181   1.271
 4480TIP3    H113446   4.679   4.219   1.231
 4480TIP3    H213447   4.823   4.250   1.266
 4481TIP3   OH213448   4.883   2.180   0.371
 4481TIP3    H113449   4.952   2.245   0.387
 4481TIP3    H213450   4.917   2.099   0.410
 4482TIP3   OH213451   6.357   5.655   0.825
 4482TIP3    H113452   6.282   5.698   0.867
 4482TIP3    H213453   6.339   5.562   0.833
 4483TIP3   OH213454   2.349   4.717   0.590
 4483TIP3    H113455   2.329   4.802   0.629
 4483TIP3    H213456   2.320   4.725   0.499
 4484TIP3   OH213457   0.193   1.418   2.337
 4484TIP3    H113458   0.230   1.415   2.425
 4484TIP3    H213459   0.100   1.396   2.349
 4485TIP3   OH213460   5.169   4.915   2.371
 4485TIP3    H113461   5.229   4.961   2.313
 4485TIP3    H213462   5.225   4.871   2.435
 4486TIP3   OH213463   5.126   3.118   1.166
 4486TIP3    H113464   5.043   3.094   1.208
 4486TIP3    H213465   5.114   3.094   1.074
 4487TIP3   OH213466   0.807   2.788   4.052
 4487TIP3    H113467   0.758   2.823   3.978
 4487TIP3    H213468   0.749   2.800   4.127
 4488TIP3   OH213469   0.604   3.708   3.407
 4488TIP3    H113470   0.648   3.682   3.488
 4488TIP3    H213471   0.523   3.657   3.406
 4489TIP3   OH213472   5.355   2.082   2.851
 4489TIP3    H113473   5.431   2.129   2.816
 4489TIP3    H213474   5.302   2.062   2.774
 4490TIP3   OH213475  -0.006   4.676   0.090
 4490TIP3    H113476   0.088   4.667   0.076
 4490TIP3    H213477  -0.022   4.634   0.174
 4491TIP3   OH213478   5.909   2.384   1.426
 4491TIP3    H113479   5.990   2.421   1.392
 4491TIP3    H213480   5.917   2.290   1.410
 4492TIP3   OH213481   5.141   2.897   0.070
 4492TIP3    H113482   5.227   2.936   0.057
 4492TIP3    H213483   5.159   2.803   0.078
 4493TIP3   OH213484   3.044   2.501   1.535
 4493TIP3    H113485   3.044   2.430   1.600
 4493TIP3    H213486   3.136   2.513   1.513
 4494TIP3   OH213487   1.981   0.397   4.556
 4494TIP3    H113488   2.011   0.465   4.617
 4494TIP3    H213489   2.052   0.332   4.557
 4495TIP3   OH213490   1.435   1.790   2.893
 4495TIP3    H113491   1.481   1.872   2.913
 4495TIP3    H213492   1.350   1.818   2.859
 4496TIP3   OH213493   5.056   5.865   3.868
 4496TIP3    H113494   5.001   5.826   3.936
 4496TIP3    H213495   5.137   5.887   3.912
 4497TIP3   OH213496   0.842   4.379   1.223
 4497TIP3    H113497   0.832   4.462   1.271
 4497TIP3    H213498   0.880   4.404   1.139
 4498TIP3   OH213499   3.237   2.977   3.778
 4498TIP3    H113500   3.277   2.997   3.862
 4498TIP3    H213501   3.192   2.893   3.792
 4499TIP3   OH213502   3.981   0.594   0.229
 4499TIP3    H113503   3.931   0.523   0.189
 4499TIP3    H213504   3.962   0.670   0.174
 4500TIP3   OH213505   3.532   0.289   1.211
 4500TIP3    H113506   3.603   0.244   1.167
 4500TIP3    H213507   3.573   0.333   1.286
 4501TIP3   OH213508   0.566   5.324   1.335
 4501TIP3    H113509   0.616   5.389   1.286
 4501TIP3    H213510   0.622   5.301   1.409
 4502TIP3   OH213511   5.392   3.056   0.079
 4502TIP3    H113512   5.469   3.070   0.025
 4502TIP3    H213513   5.385   3.135   0.133
 4503TIP3   OH213514   4.916   0.725   2.149
 4503TIP3    H113515   4.922   0.779   2.228
 4503TIP3    H213516   4.829   0.742   2.114
 4504TIP3   OH213517   1.866   4.119   2.792
 4504TIP3    H113518   1.892   4.202   2.751
 4504TIP3    H213519   1.803   4.144   2.859
 4505TIP3   OH213520   3.148   0.691   2.956
 4505TIP3    H113521   3.132   0.612   2.905
 4505TIP3    H213522   3.216   0.666   3.019
 4506TIP3   OH213523   2.523   0.501   3.568
 4506TIP3    H113524   2.559   0.459   3.647
 4506TIP3    H213525   2.590   0.486   3.501
 4507TIP3   OH213526   2.372   3.192   0.219
 4507TIP3    H113527   2.419   3.161   0.141
 4507TIP3    H213528   2.293   3.234   0.185
 4508TIP3   OH213529   1.967   0.993   0.981
 4508TIP3    H113530   1.918   1.033   0.910
 4508TIP3    H213531   1.905   0.986   1.053
 4509TIP3   OH213532   3.795   5.718   2.335
 4509TIP3    H113533   3.720   5.671   2.299
 4509TIP3    H213534   3.782   5.716   2.430
 4510TIP3   OH213535   3.530   2.530   1.332
 4510TIP3    H113536   3.531   2.521   1.428
 4510TIP3    H213537   3.578   2.611   1.315
 4511TIP3   OH213538   3.426   5.536   2.840
 4511TIP3    H113539   3.411   5.573   2.753
 4511TIP3    H213540   3.342   5.546   2.885
 4512TIP3   OH213541   2.224   1.474   4.492
 4512TIP3    H113542   2.239   1.542   4.557
 4512TIP3    H213543   2.312   1.440   4.473
 4513TIP3   OH213544   1.163   3.984   0.134
 4513TIP3    H113545   1.169   3.986   0.230
 4513TIP3    H213546   1.254   3.987   0.105
 4514TIP3   OH213547   1.545   2.517   3.717
 4514TIP3    H113548   1.555   2.505   3.811
 4514TIP3    H213549   1.515   2.432   3.685
 4515TIP3   OH213550   3.659   4.170   2.413
 4515TIP3    H113551   3.688   4.107   2.479
 4515TIP3    H213552   3.733   4.230   2.402
 4516TIP3   OH213553   1.942   1.710   4.663
 4516TIP3    H113554   1.853   1.742   4.681
 4516TIP3    H213555   1.929   1.625   4.621
 4517TIP3   OH213556   2.366   0.262   1.508
 4517TIP3    H113557   2.364   0.314   1.588
 4517TIP3    H213558   2.336   0.322   1.440
 4518TIP3   OH213559   0.038   3.293   4.824
 4518TIP3    H113560   0.081   3.332   4.900
 4518TIP3    H213561   0.103   3.297   4.754
 4519TIP3   OH213562   2.304   5.894   4.249
 4519TIP3    H113563   2.333   5.888   4.340
 4519TIP3    H213564   2.253   5.975   4.245
 4520TIP3   OH213565   4.022   1.046   4.008
 4520TIP3    H113566   3.969   1.066   4.085
 4520TIP3    H213567   4.069   0.967   4.032
 4521TIP3   OH213568   5.557   5.716   0.654
 4521TIP3    H113569   5.509   5.758   0.582
 4521TIP3    H213570   5.534   5.767   0.731
 4522TIP3   OH213571   3.051   4.045   3.859
 4522TIP3    H113572   3.031   4.132   3.824
 4522TIP3    H213573   3.095   4.062   3.942
 4523TIP3   OH213574   1.885   3.818   3.561
 4523TIP3    H113575   1.948   3.771   3.616
 4523TIP3    H213576   1.800   3.788   3.592
 4524TIP3   OH213577   2.526   1.759   3.765
 4524TIP3    H113578   2.564   1.672   3.775
 4524TIP3    H213579   2.561   1.791   3.681
 4525TIP3   OH213580   5.623   5.332   2.158
 4525TIP3    H113581   5.565   5.401   2.191
 4525TIP3    H213582   5.683   5.378   2.099
 4526TIP3   OH213583   5.199   4.071   3.563
 4526TIP3    H113584   5.130   4.032   3.510
 4526TIP3    H213585   5.232   4.000   3.617
 4527TIP3   OH213586   3.052   3.660   0.736
 4527TIP3    H113587   3.129   3.614   0.769
 4527TIP3    H213588   2.994   3.668   0.811
 4528TIP3   OH213589   5.988   5.412   1.161
 4528TIP3    H113590   6.021   5.429   1.249
 4528TIP3    H213591   5.931   5.487   1.142
 4529TIP3   OH213592   1.761   2.597   0.510
 4529TIP3    H113593   1.770   2.584   0.416
 4529TIP3    H213594   1.828   2.542   0.549
 4530TIP3   OH213595   3.992   0.570   1.266
 4530TIP3    H113596   3.933   0.496   1.254
 4530TIP3    H213597   3.990   0.616   1.182
 4531TIP3   OH213598   3.220   5.879   2.003
 4531TIP3    H113599   3.207   5.899   1.911
 4531TIP3    H213600   3.204   5.785   2.010
 4532TIP3   OH213601   2.902   3.746   4.969
 4532TIP3    H113602   2.931   3.716   5.055
 4532TIP3    H213603   2.932   3.837   4.963
 4533TIP3   OH213604   4.604   1.706   4.429
 4533TIP3    H113605   4.694   1.737   4.430
 4533TIP3    H213606   4.605   1.627   4.483
 4534TIP3   OH213607   3.878   5.356   2.298
 4534TIP3    H113608   3.853   5.320   2.213
 4534TIP3    H213609   3.974   5.347   2.300
 4535TIP3   OH213610   2.146   4.207   2.643
 4535TIP3    H113611   2.127   4.178   2.554
 4535TIP3    H213612   2.077   4.270   2.663
 4536TIP3   OH213613   1.149   2.629   3.542
 4536TIP3    H113614   1.206   2.573   3.489
 4536TIP3    H213615   1.084   2.662   3.480
 4537TIP3   OH213616   3.230   0.104   3.353
 4537TIP3    H113617   3.152   0.158   3.361
 4537TIP3    H213618   3.303   0.167   3.357
 4538TIP3   OH213619   5.368   5.920   4.419
 4538TIP3    H113620   5.285   5.960   4.443
 4538TIP3    H213621   5.344   5.834   4.384
 4539TIP3   OH213622   5.905   0.642   4.508
 4539TIP3    H113623   5.852   0.719   4.491
 4539TIP3    H213624   5.992   0.676   4.529
 4540TIP3   OH213625   5.281   2.439   1.992
 4540TIP3    H113626   5.206   2.424   1.934
 4540TIP3    H213627   5.248   2.418   2.079
 4541TIP3   OH213628   4.308   2.786   0.674
 4541TIP3    H113629   4.401   2.767   0.665
 4541TIP3    H213630   4.272   2.775   0.586
 4542TIP3   OH213631   1.375   5.835   2.856
 4542TIP3    H113632   1.452   5.842   2.800
 4542TIP3    H213633   1.360   5.924   2.888
 4543TIP3   OH213634   3.706   0.556   4.912
 4543TIP3    H113635   3.794   0.529   4.888
 4543TIP3    H213636   3.648   0.490   4.875
 4544TIP3   OH213637   1.691   5.534   1.065
 4544TIP3    H113638   1.606   5.552   1.105
 4544TIP3    H213639   1.691   5.440   1.048
 4545TIP3   OH213640   3.682   1.812   1.227
 4545TIP3    H113641   3.593   1.778   1.217
 4545TIP3    H213642   3.722   1.800   1.141
 4546TIP3   OH213643   5.684   5.009   0.952
 4546TIP3    H113644   5.776   4.985   0.955
 4546TIP3    H213645   5.657   4.990   0.863
 4547TIP3   OH213646   5.839   5.390   3.395
 4547TIP3    H113647   5.844   5.462   3.333
 4547TIP3    H213648   5.929   5.359   3.403
 4548TIP3   OH213649   2.463   1.989   4.682
 4548TIP3    H113650   2.540   1.995   4.625
 4548TIP3    H213651   2.388   2.003   4.623
 4549TIP3   OH213652   2.378   4.840   2.847
 4549TIP3    H113653   2.394   4.900   2.920
 4549TIP3    H213654   2.289   4.806   2.864
 4550TIP3   OH213655   2.539   0.096   0.894
 4550TIP3    H113656   2.514   0.137   0.977
 4550TIP3    H213657   2.497   0.150   0.827
 4551TIP3   OH213658   4.638   1.942   0.840
 4551TIP3    H113659   4.576   1.925   0.769
 4551TIP3    H213660   4.593   2.004   0.897
 4552TIP3   OH213661   4.961   5.600   3.974
 4552TIP3    H113662   4.915   5.556   3.903
 4552TIP3    H213663   5.054   5.588   3.953
 4553TIP3   OH213664   0.547   1.419   2.709
 4553TIP3    H113665   0.561   1.382   2.796
 4553TIP3    H213666   0.633   1.447   2.680
 4554TIP3   OH213667   4.075   0.933   2.540
 4554TIP3    H113668   4.147   0.976   2.586
 4554TIP3    H213669   4.117   0.891   2.465
 4555TIP3   OH213670   5.908   1.667   1.157
 4555TIP3    H113671   5.905   1.605   1.230
 4555TIP3    H213672   5.822   1.661   1.116
 4556TIP3   OH213673   2.709   1.259   4.919
 4556TIP3    H113674   2.691   1.192   4.853
 4556TIP3    H213675   2.628   1.265   4.970
 4557TIP3   OH213676   4.852   4.370   4.161
 4557TIP3    H113677   4.848   4.401   4.070
 4557TIP3    H213678   4.786   4.301   4.166
 4558TIP3   OH213679   5.381   5.417   4.282
 4558TIP3    H113680   5.444   5.346   4.268
 4558TIP3    H213681   5.418   5.468   4.355
 4559TIP3   OH213682   3.515   5.105   4.193
 4559TIP3    H113683   3.486   5.100   4.102
 4559TIP3    H213684   3.436   5.093   4.245
 4560TIP3   OH213685   4.087   0.953   0.573
 4560TIP3    H113686   4.078   1.024   0.635
 4560TIP3    H213687   4.171   0.969   0.530
 4561TIP3   OH213688   2.727   0.682   2.134
 4561TIP3    H113689   2.687   0.637   2.209
 4561TIP3    H213690   2.742   0.613   2.069
 4562TIP3   OH213691   1.812   3.981   1.861
 4562TIP3    H113692   1.890   3.992   1.808
 4562TIP3    H213693   1.748   4.042   1.824
 4563TIP3   OH213694   1.665   1.917   3.761
 4563TIP3    H113695   1.576   1.902   3.795
 4563TIP3    H213696   1.656   1.908   3.666
 4564TIP3   OH213697   3.681   3.771   0.454
 4564TIP3    H113698   3.587   3.779   0.470
 4564TIP3    H213699   3.701   3.679   0.472
 4565TIP3   OH213700   0.158   4.225   2.895
 4565TIP3    H113701   0.185   4.142   2.933
 4565TIP3    H213702   0.066   4.211   2.870
 4566TIP3   OH213703   4.163   0.333   4.980
 4566TIP3    H113704   4.218   0.255   4.981
 4566TIP3    H213705   4.152   0.356   5.073
 4567TIP3   OH213706   0.776   5.216   1.962
 4567TIP3    H113707   0.794   5.259   1.878
 4567TIP3    H213708   0.718   5.143   1.940
 4568TIP3   OH213709   4.362   1.903   1.372
 4568TIP3    H113710   4.342   1.989   1.336
 4568TIP3    H213711   4.278   1.870   1.406
 4569TIP3   OH213712   1.632   3.536   1.970
 4569TIP3    H113713   1.705   3.598   1.968
 4569TIP3    H213714   1.566   3.574   1.912
 4570TIP3   OH213715   6.284   2.990   0.610
 4570TIP3    H113716   6.364   2.957   0.650
 4570TIP3    H213717   6.218   2.985   0.679
 4571TIP3   OH213718   5.058   3.338   1.549
 4571TIP3    H113719   5.052   3.369   1.639
 4571TIP3    H213720   5.067   3.417   1.496
 4572TIP3   OH213721   3.853   5.106   1.345
 4572TIP3    H113722   3.880   5.154   1.266
 4572TIP3    H213723   3.933   5.062   1.373
 4573TIP3   OH213724   5.372   5.836   1.339
 4573TIP3    H113725   5.343   5.890   1.265
 4573TIP3    H213726   5.402   5.754   1.298
 4574TIP3   OH213727   2.367   3.501   1.482
 4574TIP3    H113728   2.283   3.547   1.475
 4574TIP3    H213729   2.433   3.570   1.481
 4575TIP3   OH213730   0.759   4.143   3.724
 4575TIP3    H113731   0.742   4.129   3.630
 4575TIP3    H213732   0.675   4.170   3.760
 4576TIP3   OH213733   4.286   0.048   1.227
 4576TIP3    H113734   4.228   0.101   1.172
 4576TIP3    H213735   4.374   0.063   1.191
 4577TIP3   OH213736   5.362   3.184   0.745
 4577TIP3    H113737   5.328   3.097   0.724
 4577TIP3    H213738   5.325   3.204   0.831
 4578TIP3   OH213739   2.632   4.088   0.476
 4578TIP3    H113740   2.679   4.005   0.471
 4578TIP3    H213741   2.630   4.120   0.386
 4579TIP3   OH213742   5.955   2.997   4.547
 4579TIP3    H113743   6.028   3.058   4.533
 4579TIP3    H213744   5.960   2.975   4.639
 4580TIP3   OH213745   1.126   5.795   2.731
 4580TIP3    H113746   1.149   5.836   2.648
 4580TIP3    H213747   1.210   5.781   2.775
 4581TIP3   OH213748   1.583   0.743   3.507
 4581TIP3    H113749   1.598   0.714   3.597
 4581TIP3    H213750   1.487   0.743   3.498
 4582TIP3   OH213751   4.734   0.230   2.104
 4582TIP3    H113752   4.761   0.141   2.083
 4582TIP3    H213753   4.667   0.219   2.172
 4583TIP3   OH213754   4.873   1.808   4.427
 4583TIP3    H113755   4.863   1.887   4.479
 4583TIP3    H213756   4.961   1.814   4.390
 4584TIP3   OH213757   4.824   3.151   3.831
 4584TIP3    H113758   4.794   3.100   3.756
 4584TIP3    H213759   4.761   3.223   3.839
 4585TIP3   OH213760   1.627   4.700   2.511
 4585TIP3    H113761   1.696   4.636   2.495
 4585TIP3    H213762   1.608   4.737   2.425
 4586TIP3   OH213763   3.544   4.510   2.344
 4586TIP3    H113764   3.572   4.559   2.267
 4586TIP3    H213765   3.481   4.446   2.310
 4587TIP3   OH213766   5.627   5.170   2.389
 4587TIP3    H113767   5.628   5.235   2.318
 4587TIP3    H213768   5.622   5.222   2.469
 4588TIP3   OH213769   4.463   0.862   4.832
 4588TIP3    H113770   4.440   0.778   4.793
 4588TIP3    H213771   4.423   0.927   4.774
 4589TIP3   OH213772   3.998   4.321   1.744
 4589TIP3    H113773   3.935   4.295   1.812
 4589TIP3    H213774   4.079   4.338   1.792
 4590TIP3   OH213775   0.015   0.124   3.501
 4590TIP3    H113776  -0.019   0.209   3.528
 4590TIP3    H213777   0.007   0.069   3.578
 4591TIP3   OH213778   2.131   1.209   0.298
 4591TIP3    H113779   2.137   1.155   0.219
 4591TIP3    H213780   2.176   1.290   0.275
 4592TIP3   OH213781   2.051   5.007   0.330
 4592TIP3    H113782   2.062   5.056   0.411
 4592TIP3    H213783   1.971   4.956   0.343
 4593TIP3   OH213784   4.345   3.114   4.578
 4593TIP3    H113785   4.255   3.108   4.613
 4593TIP3    H213786   4.334   3.111   4.483
 4594TIP3   OH213787   1.994   2.692   0.015
 4594TIP3    H113788   1.986   2.602   0.049
 4594TIP3    H213789   2.081   2.694  -0.026
 4595TIP3   OH213790   5.688   4.223   3.973
 4595TIP3    H113791   5.635   4.260   4.044
 4595TIP3    H213792   5.629   4.216   3.899
 4596TIP3   OH213793   2.320   5.666   5.057
 4596TIP3    H113794   2.295   5.583   5.015
 4596TIP3    H213795   2.243   5.722   5.047
 4597TIP3   OH213796   0.430   5.760   2.669
 4597TIP3    H113797   0.479   5.682   2.645
 4597TIP3    H213798   0.378   5.733   2.745
 4598TIP3   OH213799   2.740   2.647   2.240
 4598TIP3    H113800   2.738   2.560   2.281
 4598TIP3    H213801   2.648   2.675   2.242
 4599TIP3   OH213802   2.015   1.077   3.498
 4599TIP3    H113803   1.939   1.022   3.518
 4599TIP3    H213804   1.997   1.111   3.410
 4600TIP3   OH213805   0.637   2.012   1.809
 4600TIP3    H113806   0.619   1.969   1.725
 4600TIP3    H213807   0.550   2.026   1.847
 4601TIP3   OH213808   1.781   5.915   5.083
 4601TIP3    H113809   1.725   5.992   5.096
 4601TIP3    H213810   1.725   5.852   5.037
 4602TIP3   OH213811   4.174   3.191   3.207
 4602TIP3    H113812   4.233   3.130   3.163
 4602TIP3    H213813   4.090   3.145   3.210
 4603TIP3   OH213814   6.265   0.790   1.865
 4603TIP3    H113815   6.291   0.874   1.828
 4603TIP3    H213816   6.257   0.732   1.789
 4604TIP3   OH213817   3.932   0.807   3.008
 4604TIP3    H113818   4.000   0.748   2.974
 4604TIP3    H213819   3.850   0.766   2.981
 4605TIP3   OH213820   1.081   5.667   4.977
 4605TIP3    H113821   1.109   5.702   5.062
 4605TIP3    H213822   1.135   5.589   4.965
 4606TIP3   OH213823   5.749   4.940   2.309
 4606TIP3    H113824   5.721   5.028   2.338
 4606TIP3    H213825   5.694   4.880   2.360
 4607TIP3   OH213826   3.720   1.424   4.369
 4607TIP3    H113827   3.800   1.465   4.403
 4607TIP3    H213828   3.654   1.492   4.374
 4608TIP3   OH213829   4.371   5.864   0.661
 4608TIP3    H113830   4.348   5.837   0.572
 4608TIP3    H213831   4.300   5.829   0.715
 4609TIP3   OH213832   1.398   4.700   5.078
 4609TIP3    H113833   1.371   4.769   5.017
 4609TIP3    H213834   1.398   4.742   5.164
 4610TIP3   OH213835   6.042   4.567   3.806
 4610TIP3    H113836   6.033   4.546   3.899
 4610TIP3    H213837   5.957   4.545   3.768
 4611TIP3   OH213838   2.567   1.043   4.313
 4611TIP3    H113839   2.491   1.063   4.369
 4611TIP3    H213840   2.568   0.948   4.307
 4612TIP3   OH213841   5.119   4.165   2.002
 4612TIP3    H113842   5.139   4.198   2.090
 4612TIP3    H213843   5.032   4.125   2.010
 4613TIP3   OH213844   5.766   1.736   4.693
 4613TIP3    H113845   5.712   1.802   4.735
 4613TIP3    H213846   5.705   1.687   4.638
 4614TIP3   OH213847   6.028   5.802   0.521
 4614TIP3    H113848   5.982   5.836   0.444
 4614TIP3    H213849   5.995   5.854   0.594
 4615TIP3   OH213850   4.529   4.694   0.838
 4615TIP3    H113851   4.436   4.690   0.817
 4615TIP3    H213852   4.547   4.787   0.849
 4616TIP3   OH213853   2.241   5.660  -0.011
 4616TIP3    H113854   2.227   5.702   0.074
 4616TIP3    H213855   2.184   5.709  -0.071
 4617TIP3   OH213856   5.960   5.401   2.503
 4617TIP3    H113857   5.974   5.423   2.411
 4617TIP3    H213858   6.019   5.327   2.519
 4618TIP3   OH213859   0.582   3.502   3.627
 4618TIP3    H113860   0.588   3.434   3.694
 4618TIP3    H213861   0.489   3.509   3.607
 4619TIP3   OH213862   3.080   3.516   0.475
 4619TIP3    H113863   2.991   3.499   0.446
 4619TIP3    H213864   3.070   3.547   0.565
 4620TIP3   OH213865   0.339   4.356   0.121
 4620TIP3    H113866   0.266   4.347   0.060
 4620TIP3    H213867   0.311   4.423   0.183
 4621TIP3   OH213868   5.483   5.994   2.314
 4621TIP3    H113869   5.572   6.018   2.339
 4621TIP3    H213870   5.453   5.936   2.384
 4622TIP3   OH213871   5.908   5.256   5.114
 4622TIP3    H113872   5.899   5.349   5.130
 4622TIP3    H213873   5.914   5.248   5.019
 4623TIP3   OH213874   3.337   2.557   3.447
 4623TIP3    H113875   3.428   2.578   3.469
 4623TIP3    H213876   3.328   2.582   3.355
 4624TIP3   OH213877   2.418   5.479   2.194
 4624TIP3    H113878   2.328   5.494   2.223
 4624TIP3    H213879   2.471   5.526   2.258
 4625TIP3   OH213880   2.935   5.255   1.469
 4625TIP3    H113881   2.869   5.318   1.442
 4625TIP3    H213882   3.015   5.283   1.424
 4626TIP3   OH213883   3.473   5.305   0.321
 4626TIP3    H113884   3.427   5.382   0.355
 4626TIP3    H213885   3.526   5.338   0.249
 4627TIP3   OH213886   5.161   3.275   2.848
 4627TIP3    H113887   5.075   3.315   2.836
 4627TIP3    H213888   5.219   3.324   2.790
 4628TIP3   OH213889   3.293   2.723   3.207
 4628TIP3    H113890   3.204   2.752   3.225
 4628TIP3    H213891   3.286   2.662   3.135
 4629TIP3   OH213892   1.267   2.018   3.214
 4629TIP3    H113893   1.209   1.948   3.182
 4629TIP3    H213894   1.209   2.078   3.260
 4630TIP3   OH213895   2.443   3.855   1.684
 4630TIP3    H113896   2.445   3.949   1.700
 4630TIP3    H213897   2.382   3.820   1.749
 4631TIP3   OH213898   4.007   3.605   0.520
 4631TIP3    H113899   3.918   3.573   0.533
 4631TIP3    H213900   4.019   3.669   0.590
 4632TIP3   OH213901   2.089   3.053   3.909
 4632TIP3    H113902   2.099   3.124   3.973
 4632TIP3    H213903   2.150   3.076   3.839
 4633TIP3   OH213904   3.567   3.262   2.345
 4633TIP3    H113905   3.505   3.216   2.289
 4633TIP3    H213906   3.602   3.332   2.289
 4634TIP3   OH213907   1.448   1.065   0.298
 4634TIP3    H113908   1.430   1.029   0.385
 4634TIP3    H213909   1.499   0.997   0.254
 4635TIP3   OH213910   3.781   0.061   1.976
 4635TIP3    H113911   3.807   0.143   1.934
 4635TIP3    H213912   3.819  -0.007   1.920
 4636TIP3   OH213913   2.814   4.359   4.332
 4636TIP3    H113914   2.881   4.305   4.373
 4636TIP3    H213915   2.733   4.309   4.342
 4637TIP3   OH213916   4.464   0.854   2.528
 4637TIP3    H113917   4.478   0.799   2.605
 4637TIP3    H213918   4.441   0.940   2.564
 4638TIP3   OH213919   2.111   1.988   2.529
 4638TIP3    H113920   2.104   1.962   2.621
 4638TIP3    H213921   2.198   2.027   2.522
 4639TIP3   OH213922   2.727   2.074   5.068
 4639TIP3    H113923   2.773   1.990   5.065
 4639TIP3    H213924   2.760   2.121   4.992
 4640TIP3   OH213925   0.376   1.004   2.842
 4640TIP3    H113926   0.434   1.040   2.910
 4640TIP3    H213927   0.432   0.947   2.789
 4641TIP3   OH213928   2.273   2.594   3.080
 4641TIP3    H113929   2.356   2.619   3.122
 4641TIP3    H213930   2.248   2.513   3.124
 4642TIP3   OH213931   0.779   3.967   4.584
 4642TIP3    H113932   0.708   3.921   4.539
 4642TIP3    H213933   0.859   3.936   4.542
 4643TIP3   OH213934   5.914   2.459   0.476
 4643TIP3    H113935   5.964   2.537   0.502
 4643TIP3    H213936   5.926   2.398   0.548
 4644TIP3   OH213937   0.547   3.455   2.547
 4644TIP3    H113938   0.478   3.521   2.553
 4644TIP3    H213939   0.503   3.377   2.513
 4645TIP3   OH213940   3.051   2.904   5.094
 4645TIP3    H113941   2.964   2.935   5.071
 4645TIP3    H213942   3.037   2.843   5.166
 4646TIP3   OH213943   1.851   2.187   1.365
 4646TIP3    H113944   1.777   2.152   1.414
 4646TIP3    H213945   1.904   2.110   1.344
 4647TIP3   OH213946   0.998   3.177   3.919
 4647TIP3    H113947   0.943   3.099   3.915
 4647TIP3    H213948   1.085   3.143   3.938
 4648TIP3   OH213949   0.299   0.304   4.858
 4648TIP3    H113950   0.381   0.257   4.868
 4648TIP3    H213951   0.236   0.239   4.827
 4649TIP3   OH213952   5.525   1.438   4.311
 4649TIP3    H113953   5.455   1.423   4.247
 4649TIP3    H213954   5.577   1.358   4.309
 4650TIP3   OH213955   5.459   5.936   2.046
 4650TIP3    H113956   5.438   5.970   2.134
 4650TIP3    H213957   5.536   5.882   2.059
 4651TIP3   OH213958   0.515   4.185   4.292
 4651TIP3    H113959   0.491   4.276   4.270
 4651TIP3    H213960   0.563   4.154   4.215
 4652TIP3   OH213961   0.257   3.657   2.861
 4652TIP3    H113962   0.346   3.656   2.897
 4652TIP3    H213963   0.270   3.664   2.767
 4653TIP3   OH213964   1.447   0.506   3.291
 4653TIP3    H113965   1.357   0.528   3.314
 4653TIP3    H213966   1.446   0.496   3.195
 4654TIP3   OH213967   1.145   2.275   2.234
 4654TIP3    H113968   1.174   2.366   2.229
 4654TIP3    H213969   1.092   2.263   2.155
 4655TIP3   OH213970   4.074   1.490   2.356
 4655TIP3    H113971   4.003   1.477   2.293
 4655TIP3    H213972   4.146   1.436   2.323
 4656TIP3   OH213973   4.685   5.609   4.782
 4656TIP3    H113974   4.715   5.603   4.873
 4656TIP3    H213975   4.759   5.577   4.731
 4657TIP3   OH213976   3.362   2.461   1.622
 4657TIP3    H113977   3.337   2.445   1.713
 4657TIP3    H213978   3.384   2.374   1.588
 4658TIP3   OH213979   2.825   4.639   4.489
 4658TIP3    H113980   2.746   4.602   4.450
 4658TIP3    H213981   2.793   4.698   4.557
 4659TIP3   OH213982   1.888   2.272   4.770
 4659TIP3    H113983   1.903   2.258   4.864
 4659TIP3    H213984   1.862   2.186   4.738
 4660TIP3   OH213985   3.538   3.900   1.611
 4660TIP3    H113986   3.531   3.987   1.571
 4660TIP3    H213987   3.594   3.914   1.687
 4661TIP3   OH213988   1.268   2.594   1.349
 4661TIP3    H113989   1.329   2.617   1.279
 4661TIP3    H213990   1.233   2.677   1.380
 4662TIP3   OH213991   5.229   4.489   1.696
 4662TIP3    H113992   5.246   4.490   1.602
 4662TIP3    H213993   5.228   4.396   1.719
 4663TIP3   OH213994   5.521   0.521   1.287
 4663TIP3    H113995   5.489   0.451   1.229
 4663TIP3    H213996   5.598   0.556   1.242
 4664TIP3   OH213997   4.637   4.281   5.015
 4664TIP3    H113998   4.666   4.213   4.954
 4664TIP3    H213999   4.716   4.332   5.033
 4665TIP3   OH214000   3.475   3.820   3.452
 4665TIP3    H114001   3.496   3.902   3.497
 4665TIP3    H214002   3.443   3.847   3.366
 4666TIP3   OH214003   0.999   1.710   1.304
 4666TIP3    H114004   1.048   1.628   1.316
 4666TIP3    H214005   0.937   1.711   1.378
 4667TIP3   OH214006   4.226   1.017   1.384
 4667TIP3    H114007   4.201   1.069   1.459
 4667TIP3    H214008   4.188   0.930   1.401
 4668TIP3   OH214009   0.392   4.975   0.842
 4668TIP3    H114010   0.325   4.964   0.775
 4668TIP3    H214011   0.468   4.928   0.808
 4669TIP3   OH214012   5.737   1.803   4.251
 4669TIP3    H114013   5.786   1.721   4.252
 4669TIP3    H214014   5.768   1.850   4.329
 4670TIP3   OH214015   5.268   0.732   3.198
 4670TIP3    H114016   5.282   0.649   3.244
 4670TIP3    H214017   5.179   0.726   3.164
 4671TIP3   OH214018   2.950   0.427   0.380
 4671TIP3    H114019   2.961   0.414   0.286
 4671TIP3    H214020   3.002   0.505   0.399
 4672TIP3   OH214021   3.950   4.385   4.044
 4672TIP3    H114022   3.915   4.297   4.032
 4672TIP3    H214023   3.886   4.429   4.099
 4673TIP3   OH214024   5.993   3.905   4.564
 4673TIP3    H114025   5.924   3.929   4.625
 4673TIP3    H214026   5.995   3.809   4.566
 4674TIP3   OH214027   1.384   0.063   2.585
 4674TIP3    H114028   1.353   0.067   2.676
 4674TIP3    H214029   1.383  -0.030   2.564
 4675TIP3   OH214030   0.530   5.852   1.176
 4675TIP3    H114031   0.574   5.798   1.241
 4675TIP3    H214032   0.543   5.942   1.207
 4676TIP3   OH214033   3.919   2.457   2.124
 4676TIP3    H114034   3.970   2.495   2.052
 4676TIP3    H214035   3.970   2.477   2.203
 4677TIP3   OH214036   2.721   5.376   4.742
 4677TIP3    H114037   2.665   5.349   4.670
 4677TIP3    H214038   2.748   5.465   4.720
 4678TIP3   OH214039   6.299   3.497   0.287
 4678TIP3    H114040   6.252   3.425   0.330
 4678TIP3    H214041   6.261   3.576   0.324
 4679TIP3   OH214042   1.711   1.651   1.410
 4679TIP3    H114043   1.742   1.567   1.376
 4679TIP3    H214044   1.636   1.628   1.465
 4680TIP3   OH214045   0.097   5.670   2.565
 4680TIP3    H114046   0.114   5.739   2.500
 4680TIP3    H214047   0.003   5.653   2.558
 4681TIP3   OH214048   0.567   5.813   5.147
 4681TIP3    H114049   0.592   5.795   5.238
 4681TIP3    H214050   0.625   5.759   5.095
 4682TIP3   OH214051   4.452   0.348   1.387
 4682TIP3    H114052   4.364   0.354   1.350
 4682TIP3    H214053   4.504   0.308   1.318
 4683TIP3   OH214054   5.571   1.742   3.291
 4683TIP3    H114055   5.613   1.828   3.297
 4683TIP3    H214056   5.609   1.702   3.213
 4684TIP3   OH214057   5.550   0.941   1.178
 4684TIP3    H114058   5.643   0.939   1.198
 4684TIP3    H214059   5.538   0.875   1.110
 4685TIP3   OH214060   5.623   0.357   1.496
 4685TIP3    H114061   5.581   0.388   1.577
 4685TIP3    H214062   5.594   0.419   1.429
 4686TIP3   OH214063   2.615   5.552   4.436
 4686TIP3    H114064   2.695   5.540   4.487
 4686TIP3    H214065   2.577   5.634   4.469
 4687TIP3   OH214066   6.038   4.762   0.384
 4687TIP3    H114067   6.032   4.828   0.453
 4687TIP3    H214068   6.095   4.695   0.420
 4688TIP3   OH214069   0.155   3.979   0.749
 4688TIP3    H114070   0.102   4.011   0.822
 4688TIP3    H214071   0.244   4.006   0.770
 4689TIP3   OH214072   1.601   1.994   1.141
 4689TIP3    H114073   1.604   2.086   1.168
 4689TIP3    H214074   1.515   1.983   1.101
 4690TIP3   OH214075   4.052   3.265   5.104
 4690TIP3    H114076   4.043   3.282   5.198
 4690TIP3    H214077   4.060   3.170   5.097
 4691TIP3   OH214078   1.274   4.690   1.070
 4691TIP3    H114079   1.312   4.696   0.982
 4691TIP3    H214080   1.315   4.613   1.108
 4692TIP3   OH214081   0.400   1.877   2.304
 4692TIP3    H114082   0.333   1.810   2.316
 4692TIP3    H214083   0.356   1.947   2.256
 4693TIP3   OH214084   3.804   5.365   4.057
 4693TIP3    H114085   3.840   5.285   4.094
 4693TIP3    H214086   3.847   5.373   3.972
 4694TIP3   OH214087   1.100   1.276   2.429
 4694TIP3    H114088   1.128   1.273   2.338
 4694TIP3    H214089   1.095   1.184   2.456
 4695TIP3   OH214090   5.047   3.652   2.294
 4695TIP3    H114091   5.112   3.721   2.281
 4695TIP3    H214092   4.993   3.683   2.367
 4696TIP3   OH214093   3.936   3.295   3.432
 4696TIP3    H114094   3.931   3.237   3.509
 4696TIP3    H214095   3.975   3.240   3.364
 4697TIP3   OH214096   0.111   0.792   0.420
 4697TIP3    H114097   0.135   0.848   0.346
 4697TIP3    H214098   0.022   0.818   0.443
 4698TIP3   OH214099   3.955   2.205   2.586
 4698TIP3    H114100   3.887   2.260   2.626
 4698TIP3    H214101   3.982   2.253   2.508
 4699TIP3   OH214102   2.461   5.607   0.781
 4699TIP3    H114103   2.517   5.564   0.716
 4699TIP3    H214104   2.517   5.676   0.818
 4700TIP3   OH214105   3.295   5.510   0.337
 4700TIP3    H114106   3.272   5.486   0.247
 4700TIP3    H214107   3.251   5.594   0.351
 4701TIP3   OH214108   5.049   0.467   2.107
 4701TIP3    H114109   5.067   0.495   2.017
 4701TIP3    H214110   4.990   0.534   2.141
 4702TIP3   OH214111   0.357   3.584   3.430
 4702TIP3    H114112   0.330   3.497   3.403
 4702TIP3    H214113   0.332   3.641   3.357
 4703TIP3   OH214114   3.849   4.373   2.361
 4703TIP3    H114115   3.834   4.466   2.379
 4703TIP3    H214116   3.939   4.357   2.389
 4704TIP3   OH214117   1.107   4.186   0.684
 4704TIP3    H114118   1.032   4.243   0.665
 4704TIP3    H214119   1.092   4.108   0.631
 4705TIP3   OH214120   0.838   1.678   2.915
 4705TIP3    H114121   0.835   1.768   2.948
 4705TIP3    H214122   0.802   1.683   2.827
 4706TIP3   OH214123   2.115   2.690   1.257
 4706TIP3    H114124   2.111   2.735   1.342
 4706TIP3    H214125   2.153   2.754   1.197
 4707TIP3   OH214126   0.296   3.149   5.048
 4707TIP3    H114127   0.322   3.108   5.130
 4707TIP3    H214128   0.242   3.224   5.075
 4708TIP3   OH214129   4.980   0.385   0.963
 4708TIP3    H114130   4.963   0.478   0.945
 4708TIP3    H214131   4.896   0.342   0.949
 4709TIP3   OH214132   3.148   2.382   2.825
 4709TIP3    H114133   3.204   2.311   2.858
 4709TIP3    H214134   3.208   2.440   2.778
 4710TIP3   OH214135   3.457   5.581   3.700
 4710TIP3    H114136   3.471   5.486   3.705
 4710TIP3    H214137   3.376   5.590   3.649
 4711TIP3   OH214138   4.223   3.075   3.681
 4711TIP3    H114139   4.245   3.098   3.591
 4711TIP3    H214140   4.173   3.150   3.713
 4712TIP3   OH214141   2.393   5.165   0.444
 4712TIP3    H114142   2.437   5.211   0.515
 4712TIP3    H214143   2.411   5.072   0.461
 4713TIP3   OH214144   1.644   1.080   5.080
 4713TIP3    H114145   1.641   1.111   4.990
 4713TIP3    H214146   1.633   0.985   5.074
 4714TIP3   OH214147   5.446   1.951   4.825
 4714TIP3    H114148   5.459   1.860   4.851
 4714TIP3    H214149   5.495   1.960   4.743
 4715TIP3   OH214150   5.077   4.628   1.204
 4715TIP3    H114151   5.064   4.628   1.299
 4715TIP3    H214152   4.999   4.670   1.169
 4716TIP3   OH214153   2.354   4.050   5.046
 4716TIP3    H114154   2.442   4.083   5.062
 4716TIP3    H214155   2.361   4.000   4.964
 4717TIP3   OH214156   5.413   2.577   0.915
 4717TIP3    H114157   5.441   2.485   0.920
 4717TIP3    H214158   5.321   2.572   0.888
 4718TIP3   OH214159   4.118   5.660   0.036
 4718TIP3    H114160   4.081   5.625   0.117
 4718TIP3    H214161   4.210   5.678   0.058
 4719TIP3   OH214162   2.625   0.552   4.015
 4719TIP3    H114163   2.634   0.492   3.941
 4719TIP3    H214164   2.548   0.605   3.994
 4720TIP3   OH214165   2.492   0.541   0.816
 4720TIP3    H114166   2.516   0.557   0.907
 4720TIP3    H214167   2.547   0.601   0.766
 4721TIP3   OH214168   3.136   5.356   2.746
 4721TIP3    H114169   3.151   5.335   2.654
 4721TIP3    H214170   3.127   5.451   2.748
 4722TIP3   OH214171   2.252   2.214   5.111
 4722TIP3    H114172   2.238   2.130   5.154
 4722TIP3    H214173   2.311   2.194   5.038
 4723TIP3   OH214174   4.696   4.530   1.301
 4723TIP3    H114175   4.785   4.499   1.283
 4723TIP3    H214176   4.679   4.596   1.233
 4724TIP3   OH214177   2.248   3.603   1.842
 4724TIP3    H114178   2.324   3.566   1.886
 4724TIP3    H214179   2.180   3.607   1.910
 4725TIP3   OH214180   0.089   4.090   2.424
 4725TIP3    H114181   0.135   4.020   2.377
 4725TIP3    H214182  -0.004   4.073   2.407
 4726TIP3   OH214183   0.272   3.651   2.190
 4726TIP3    H114184   0.208   3.591   2.150
 4726TIP3    H214185   0.356   3.607   2.176
 4727TIP3   OH214186   1.987   3.916   2.637
 4727TIP3    H114187   2.077   3.941   2.616
 4727TIP3    H214188   1.959   3.980   2.703
 4728TIP3   OH214189   0.896   2.740   1.150
 4728TIP3    H114190   0.901   2.677   1.077
 4728TIP3    H214191   0.908   2.687   1.228
 4729TIP3   OH214192   5.276   4.225   4.756
 4729TIP3    H114193   5.312   4.263   4.676
 4729TIP3    H214194   5.352   4.190   4.802
 4730TIP3   OH214195   4.353   0.740   1.033
 4730TIP3    H114196   4.337   0.762   0.941
 4730TIP3    H214197   4.395   0.654   1.031
 4731TIP3   OH214198   2.878   3.655   4.727
 4731TIP3    H114199   2.949   3.698   4.678
 4731TIP3    H214200   2.878   3.699   4.812
 4732TIP3   OH214201   0.894   5.105   0.805
 4732TIP3    H114202   0.913   5.036   0.741
 4732TIP3    H214203   0.975   5.157   0.808
 4733TIP3   OH214204   0.795   4.107   1.653
 4733TIP3    H114205   0.791   4.146   1.565
 4733TIP3    H214206   0.711   4.063   1.664
 4734TIP3   OH214207   1.330   3.034   2.860
 4734TIP3    H114208   1.411   3.062   2.903
 4734TIP3    H214209   1.348   2.944   2.833
 4735TIP3   OH214210   1.239   1.516   1.588
 4735TIP3    H114211   1.160   1.544   1.635
 4735TIP3    H214212   1.236   1.420   1.592
 4736TIP3   OH214213   3.202   5.619   3.617
 4736TIP3    H114214   3.160   5.635   3.701
 4736TIP3    H214215   3.192   5.701   3.568
 4737TIP3   OH214216   5.305   3.910   1.674
 4737TIP3    H114217   5.347   3.940   1.755
 4737TIP3    H214218   5.292   3.816   1.687
 4738TIP3   OH214219   0.490   5.385   0.795
 4738TIP3    H114220   0.549   5.320   0.834
 4738TIP3    H214221   0.486   5.455   0.860
 4739TIP3   OH214222   4.252   5.175   0.946
 4739TIP3    H114223   4.288   5.102   0.996
 4739TIP3    H214224   4.301   5.251   0.978
 4740TIP3   OH214225   2.378   3.797   3.818
 4740TIP3    H114226   2.460   3.838   3.845
 4740TIP3    H214227   2.358   3.735   3.888
 4741TIP3   OH214228   4.822   5.621   1.699
 4741TIP3    H114229   4.820   5.597   1.792
 4741TIP3    H214230   4.900   5.674   1.689
 4742TIP3   OH214231   6.248   1.033   3.649
 4742TIP3    H114232   6.218   1.120   3.623
 4742TIP3    H214233   6.183   0.973   3.613
 4743TIP3   OH214234   2.519   5.253   4.942
 4743TIP3    H114235   2.602   5.284   4.905
 4743TIP3    H214236   2.544   5.202   5.019
 4744TIP3   OH214237   4.944   0.268   4.995
 4744TIP3    H114238   4.964   0.281   5.088
 4744TIP3    H214239   5.029   0.273   4.952
 4745TIP3   OH214240   6.063   2.437   3.313
 4745TIP3    H114241   5.983   2.387   3.294
 4745TIP3    H214242   6.053   2.518   3.263
 4746TIP3   OH214243   0.100   1.481   4.185
 4746TIP3    H114244   0.044   1.556   4.205
 4746TIP3    H214245   0.046   1.425   4.130
 4747TIP3   OH214246   1.731   4.935   1.277
 4747TIP3    H114247   1.761   4.894   1.358
 4747TIP3    H214248   1.636   4.925   1.279
 4748TIP3   OH214249   1.553   2.370   1.638
 4748TIP3    H114250   1.554   2.464   1.617
 4748TIP3    H214251   1.632   2.357   1.690
 4749TIP3   OH214252   6.040   3.544   0.868
 4749TIP3    H114253   5.984   3.487   0.921
 4749TIP3    H214254   5.998   3.545   0.782
 4750TIP3   OH214255   3.806   3.965   3.883
 4750TIP3    H114256   3.729   3.912   3.862
 4750TIP3    H214257   3.787   4.050   3.845
 4751TIP3   OH214258   0.418   3.251   2.065
 4751TIP3    H114259   0.427   3.274   2.157
 4751TIP3    H214260   0.450   3.161   2.059
 4752TIP3   OH214261   5.264   1.484   4.164
 4752TIP3    H114262   5.253   1.408   4.106
 4752TIP3    H214263   5.202   1.469   4.235
 4753TIP3   OH214264   1.444   3.641   4.505
 4753TIP3    H114265   1.359   3.598   4.517
 4753TIP3    H214266   1.431   3.730   4.537
 4754TIP3   OH214267   1.214   3.515   4.548
 4754TIP3    H114268   1.134   3.531   4.497
 4754TIP3    H214269   1.183   3.505   4.638
 4755TIP3   OH214270   2.351   5.305   4.240
 4755TIP3    H114271   2.285   5.364   4.205
 4755TIP3    H214272   2.417   5.297   4.171
 4756TIP3   OH214273   2.317   5.989   4.876
 4756TIP3    H114274   2.358   5.905   4.855
 4756TIP3    H214275   2.223   5.974   4.862
 4757TIP3   OH214276   4.262   4.526   4.296
 4757TIP3    H114277   4.194   4.518   4.363
 4757TIP3    H214278   4.313   4.603   4.322
 4758TIP3   OH214279   2.288   2.014   4.470
 4758TIP3    H114280   2.204   1.990   4.509
 4758TIP3    H214281   2.265   2.053   4.386
 4759TIP3   OH214282   5.887   3.584   5.091
 4759TIP3    H114283   5.941   3.531   5.032
 4759TIP3    H214284   5.879   3.531   5.170
 4760TIP3   OH214285   1.439   2.674   0.284
 4760TIP3    H114286   1.410   2.603   0.227
 4760TIP3    H214287   1.533   2.661   0.293
 4761TIP3   OH214288   4.549   0.919   1.138
 4761TIP3    H114289   4.490   0.847   1.116
 4761TIP3    H214290   4.625   0.877   1.178
 4762TIP3   OH214291   0.012   5.323   1.318
 4762TIP3    H114292   0.092   5.323   1.265
 4762TIP3    H214293   0.004   5.413   1.349
 4763TIP3   OH214294   2.906   4.975   2.726
 4763TIP3    H114295   2.876   4.899   2.776
 4763TIP3    H214296   2.999   4.981   2.745
 4764TIP3   OH214297   2.318   1.434   0.672
 4764TIP3    H114298   2.412   1.447   0.681
 4764TIP3    H214299   2.307   1.341   0.654
 4765TIP3   OH214300   6.265   4.511   2.094
 4765TIP3    H114301   6.249   4.605   2.101
 4765TIP3    H214302   6.194   4.478   2.038
 4766TIP3   OH214303   1.853   3.196   1.388
 4766TIP3    H114304   1.819   3.107   1.388
 4766TIP3    H214305   1.813   3.237   1.311
 4767TIP3   OH214306   4.463   2.141   2.203
 4767TIP3    H114307   4.455   2.187   2.119
 4767TIP3    H214308   4.557   2.124   2.213
 4768TIP3   OH214309   4.662   3.553   2.858
 4768TIP3    H114310   4.607   3.475   2.847
 4768TIP3    H214311   4.680   3.582   2.768
 4769TIP3   OH214312   1.799   0.045   3.841
 4769TIP3    H114313   1.755  -0.028   3.887
 4769TIP3    H214314   1.782   0.028   3.748
 4770TIP3   OH214315   0.129   1.969   1.827
 4770TIP3    H114316   0.185   1.912   1.775
 4770TIP3    H214317   0.104   2.040   1.767
 4771TIP3   OH214318   3.005   3.403   5.084
 4771TIP3    H114319   2.934   3.461   5.057
 4771TIP3    H214320   2.978   3.369   5.169
 4772TIP3   OH214321   5.864   5.747   1.449
 4772TIP3    H114322   5.803   5.815   1.421
 4772TIP3    H214323   5.930   5.794   1.499
 4773TIP3   OH214324   3.894   3.253   4.361
 4773TIP3    H114325   3.863   3.201   4.288
 4773TIP3    H214326   3.818   3.262   4.419
 4774TIP3   OH214327   2.751   3.225   1.658
 4774TIP3    H114328   2.755   3.252   1.750
 4774TIP3    H214329   2.672   3.267   1.624
 4775TIP3   OH214330   3.920   3.100   0.167
 4775TIP3    H114331   3.987   3.045   0.208
 4775TIP3    H214332   3.968   3.150   0.101
 4776TIP3   OH214333   2.666   0.147   1.228
 4776TIP3    H114334   2.698   0.194   1.305
 4776TIP3    H214335   2.579   0.182   1.213
 4777TIP3   OH214336   4.059   1.592   4.224
 4777TIP3    H114337   4.152   1.615   4.225
 4777TIP3    H214338   4.014   1.676   4.221
 4778TIP3   OH214339   1.377   1.579   0.972
 4778TIP3    H114340   1.323   1.657   0.960
 4778TIP3    H214341   1.330   1.510   0.925
 4779TIP3   OH214342   3.381   3.330   2.931
 4779TIP3    H114343   3.427   3.372   3.003
 4779TIP3    H214344   3.383   3.236   2.952
 4780TIP3   OH214345   2.214   1.215   2.465
 4780TIP3    H114346   2.287   1.274   2.448
 4780TIP3    H214347   2.229   1.140   2.407
 4781TIP3   OH214348   5.869   3.763   2.085
 4781TIP3    H114349   5.892   3.716   2.004
 4781TIP3    H214350   5.938   3.828   2.095
 4782TIP3   OH214351   1.222   5.219   2.330
 4782TIP3    H114352   1.272   5.149   2.287
 4782TIP3    H214353   1.283   5.293   2.334
 4783TIP3   OH214354   4.781   5.758   0.725
 4783TIP3    H114355   4.851   5.807   0.768
 4783TIP3    H214356   4.759   5.688   0.786
 4784TIP3   OH214357   5.410   4.418   3.777
 4784TIP3    H114358   5.318   4.436   3.761
 4784TIP3    H214359   5.434   4.477   3.849
 4785TIP3   OH214360   3.629   4.043   0.405
 4785TIP3    H114361   3.665   4.071   0.320
 4785TIP3    H214362   3.660   3.953   0.415
 4786TIP3   OH214363   3.262   4.961   2.042
 4786TIP3    H114364   3.184   5.017   2.042
 4786TIP3    H214365   3.332   5.018   2.074
 4787TIP3   OH214366   2.645   0.344   3.822
 4787TIP3    H114367   2.639   0.273   3.886
 4787TIP3    H214368   2.719   0.319   3.766
 4788TIP3   OH214369   3.159   1.795   1.451
 4788TIP3    H114370   3.143   1.833   1.365
 4788TIP3    H214371   3.125   1.861   1.512
 4789TIP3   OH214372   0.664   2.742   0.791
 4789TIP3    H114373   0.702   2.824   0.761
 4789TIP3    H214374   0.660   2.751   0.887
 4790TIP3   OH214375   0.720   0.609   3.099
 4790TIP3    H114376   0.728   0.516   3.075
 4790TIP3    H214377   0.628   0.620   3.122
 4791TIP3   OH214378   6.135   3.286   2.848
 4791TIP3    H114379   6.119   3.309   2.939
 4791TIP3    H214380   6.101   3.197   2.839
 4792TIP3   OH214381   4.842   3.269   3.490
 4792TIP3    H114382   4.801   3.246   3.407
 4792TIP3    H214383   4.814   3.359   3.506
 4793TIP3   OH214384   3.775   3.650   3.993
 4793TIP3    H114385   3.791   3.602   4.075
 4793TIP3    H214386   3.694   3.699   4.009
 4794TIP3   OH214387   4.863   1.758   3.301
 4794TIP3    H114388   4.850   1.784   3.210
 4794TIP3    H214389   4.818   1.827   3.352
 4795TIP3   OH214390   0.414   3.883   1.172
 4795TIP3    H114391   0.326   3.855   1.198
 4795TIP3    H214392   0.444   3.814   1.113
 4796TIP3   OH214393   0.840   1.469   4.560
 4796TIP3    H114394   0.842   1.452   4.466
 4796TIP3    H214395   0.835   1.564   4.567
 4797TIP3   OH214396   0.261   0.968   3.592
 4797TIP3    H114397   0.316   0.894   3.568
 4797TIP3    H214398   0.198   0.932   3.655
 4798TIP3   OH214399   5.937   4.472   2.835
 4798TIP3    H114400   5.898   4.553   2.802
 4798TIP3    H214401   5.927   4.478   2.930
 4799TIP3   OH214402   4.901   1.915   0.443
 4799TIP3    H114403   4.898   1.858   0.365
 4799TIP3    H214404   4.849   1.869   0.508
 4800TIP3   OH214405   1.640   0.777   0.297
 4800TIP3    H114406   1.559   0.736   0.328
 4800TIP3    H214407   1.701   0.769   0.371
 4801TIP3   OH214408   3.504   2.879   3.099
 4801TIP3    H114409   3.416   2.849   3.119
 4801TIP3    H214410   3.549   2.882   3.183
 4802TIP3   OH214411   0.707   3.679   4.534
 4802TIP3    H114412   0.655   3.659   4.456
 4802TIP3    H214413   0.643   3.689   4.604
 4803TIP3   OH214414   0.158   3.726   0.204
 4803TIP3    H114415   0.208   3.761   0.130
 4803TIP3    H214416   0.087   3.788   0.217
 4804TIP3   OH214417   2.771   1.291   2.758
 4804TIP3    H114418   2.687   1.294   2.803
 4804TIP3    H214419   2.813   1.211   2.790
 4805TIP3   OH214420   5.569   3.602   2.113
 4805TIP3    H114421   5.477   3.625   2.100
 4805TIP3    H214422   5.615   3.642   2.039
 4806TIP3   OH214423   6.151   5.748   3.122
 4806TIP3    H114424   6.179   5.744   3.214
 4806TIP3    H214425   6.097   5.826   3.117
 4807TIP3   OH214426   4.949   4.889   4.029
 4807TIP3    H114427   4.940   4.976   4.069
 4807TIP3    H214428   5.026   4.896   3.973
 4808TIP3   OH214429   1.023   4.278   1.624
 4808TIP3    H114430   0.945   4.222   1.619
 4808TIP3    H214431   1.087   4.236   1.566
 4809TIP3   OH214432   4.001   1.497   4.462
 4809TIP3    H114433   4.039   1.509   4.375
 4809TIP3    H214434   4.021   1.579   4.507
 4810TIP3   OH214435   2.817   2.021   2.320
 4810TIP3    H114436   2.744   2.035   2.380
 4810TIP3    H214437   2.788   1.951   2.263
 4811TIP3   OH214438   5.332   3.254   1.866
 4811TIP3    H114439   5.422   3.267   1.893
 4811TIP3    H214440   5.333   3.170   1.820
 4812TIP3   OH214441   2.984   1.517   1.266
 4812TIP3    H114442   2.957   1.569   1.342
 4812TIP3    H214443   3.028   1.441   1.304
 4813TIP3   OH214444   6.127   0.632   4.690
 4813TIP3    H114445   6.190   0.601   4.755
 4813TIP3    H214446   6.046   0.586   4.711
 4814TIP3   OH214447   0.502   3.022   0.786
 4814TIP3    H114448   0.472   3.059   0.703
 4814TIP3    H214449   0.431   2.963   0.812
 4815TIP3   OH214450   5.579   5.297   3.811
 4815TIP3    H114451   5.578   5.361   3.740
 4815TIP3    H214452   5.641   5.332   3.875
 4816TIP3   OH214453   4.860   0.133   4.039
 4816TIP3    H114454   4.897   0.058   3.991
 4816TIP3    H214455   4.910   0.135   4.120
 4817TIP3   OH214456   5.920   0.224   3.049
 4817TIP3    H114457   5.996   0.184   3.092
 4817TIP3    H214458   5.855   0.233   3.119
 4818TIP3   OH214459   5.662   0.236   1.998
 4818TIP3    H114460   5.580   0.185   1.997
 4818TIP3    H214461   5.712   0.199   2.070
 4819TIP3   OH214462   4.620   1.334   0.989
 4819TIP3    H114463   4.539   1.308   1.034
 4819TIP3    H214464   4.689   1.289   1.038
 4820TIP3   OH214465   3.723   0.381   1.750
 4820TIP3    H114466   3.750   0.378   1.842
 4820TIP3    H214467   3.797   0.422   1.704
 4821TIP3   OH214468   2.585   4.959   1.418
 4821TIP3    H114469   2.510   4.906   1.394
 4821TIP3    H214470   2.548   5.037   1.459
 4822TIP3   OH214471   3.064   3.875   0.530
 4822TIP3    H114472   3.074   3.828   0.613
 4822TIP3    H214473   3.149   3.865   0.487
 4823TIP3   OH214474   0.010   4.775   1.907
 4823TIP3    H114475  -0.016   4.708   1.843
 4823TIP3    H214476  -0.039   4.853   1.881
 4824TIP3   OH214477   0.355   3.126   2.982
 4824TIP3    H114478   0.421   3.112   2.914
 4824TIP3    H214479   0.367   3.054   3.043
 4825TIP3   OH214480   3.931   3.860   0.400
 4825TIP3    H114481   3.843   3.835   0.430
 4825TIP3    H214482   3.975   3.777   0.383
 4826TIP3   OH214483   1.391   0.569   4.453
 4826TIP3    H114484   1.312   0.622   4.442
 4826TIP3    H214485   1.463   0.631   4.442
 4827TIP3   OH214486   6.070   5.821   5.046
 4827TIP3    H114487   6.151   5.771   5.038
 4827TIP3    H214488   6.055   5.857   4.959
 4828TIP3   OH214489   2.861   1.643   2.761
 4828TIP3    H114490   2.851   1.579   2.691
 4828TIP3    H214491   2.817   1.721   2.729
 4829TIP3   OH214492   0.093   2.614   3.248
 4829TIP3    H114493   0.115   2.521   3.256
 4829TIP3    H214494   0.129   2.640   3.163
 4830TIP3   OH214495   5.930   1.457   3.273
 4830TIP3    H114496   5.910   1.481   3.363
 4830TIP3    H214497   5.981   1.531   3.239
 4831TIP3   OH214498   4.393   4.028   1.507
 4831TIP3    H114499   4.409   4.122   1.514
 4831TIP3    H214500   4.413   4.008   1.416
 4832TIP3   OH214501   1.523   2.009   2.425
 4832TIP3    H114502   1.472   1.929   2.437
 4832TIP3    H214503   1.591   2.004   2.492
 4833TIP3   OH214504   3.270   5.891   0.825
 4833TIP3    H114505   3.339   5.946   0.863
 4833TIP3    H214506   3.211   5.874   0.898
 4834TIP3   OH214507   1.304   1.225   3.430
 4834TIP3    H114508   1.236   1.159   3.420
 4834TIP3    H214509   1.259   1.300   3.468
 4835TIP3   OH214510   0.458   3.880   2.416
 4835TIP3    H114511   0.522   3.834   2.362
 4835TIP3    H214512   0.494   3.969   2.425
 4836TIP3   OH214513   5.207   3.471   2.423
 4836TIP3    H114514   5.283   3.528   2.434
 4836TIP3    H214515   5.153   3.514   2.357
 4837TIP3   OH214516   2.401   5.995   0.351
 4837TIP3    H114517   2.334   6.051   0.312
 4837TIP3    H214518   2.355   5.947   0.419
 4838TIP3   OH214519   2.660   5.940   3.827
 4838TIP3    H114520   2.584   5.965   3.775
 4838TIP3    H214521   2.623   5.914   3.912
 4839TIP3   OH214522   2.588   4.590   2.457
 4839TIP3    H114523   2.660   4.646   2.486
 4839TIP3    H214524   2.511   4.646   2.458
 4840TIP3   OH214525   2.110   2.242   3.369
 4840TIP3    H114526   2.059   2.206   3.442
 4840TIP3    H214527   2.160   2.314   3.408
 4841TIP3   OH214528   6.074   1.873   3.517
 4841TIP3    H114529   6.020   1.801   3.484
 4841TIP3    H214530   6.136   1.832   3.576
 4842TIP3   OH214531   1.765   3.423   4.088
 4842TIP3    H114532   1.807   3.365   4.024
 4842TIP3    H214533   1.804   3.400   4.172
 4843TIP3   OH214534   1.942   4.874   4.796
 4843TIP3    H114535   1.901   4.788   4.810
 4843TIP3    H214536   2.036   4.857   4.802
 4844TIP3   OH214537   5.968   2.459   2.005
 4844TIP3    H114538   5.937   2.534   2.055
 4844TIP3    H214539   6.047   2.430   2.051
 4845TIP3   OH214540   1.645   2.113   1.509
 4845TIP3    H114541   1.601   2.177   1.564
 4845TIP3    H214542   1.577   2.084   1.447
 4846TIP3   OH214543   0.148   5.525   1.866
 4846TIP3    H114544   0.165   5.588   1.796
 4846TIP3    H214545   0.135   5.579   1.944
 4847TIP3   OH214546   6.094   0.162   1.095
 4847TIP3    H114547   6.043   0.158   1.176
 4847TIP3    H214548   6.063   0.242   1.051
 4848TIP3   OH214549   1.486   4.599   0.173
 4848TIP3    H114550   1.564   4.550   0.150
 4848TIP3    H214551   1.476   4.663   0.103
 4849TIP3   OH214552   2.848   3.337   0.782
 4849TIP3    H114553   2.769   3.346   0.729
 4849TIP3    H214554   2.858   3.421   0.825
 4850TIP3   OH214555   3.802   1.407   3.681
 4850TIP3    H114556   3.709   1.422   3.698
 4850TIP3    H214557   3.826   1.337   3.742
 4851TIP3   OH214558   3.826   3.768   1.175
 4851TIP3    H114559   3.736   3.763   1.140
 4851TIP3    H214560   3.816   3.755   1.269
 4852TIP3   OH214561   3.558   4.819   0.105
 4852TIP3    H114562   3.500   4.839   0.032
 4852TIP3    H214563   3.573   4.903   0.148
 4853TIP3   OH214564   4.753   3.134   3.262
 4853TIP3    H114565   4.841   3.098   3.253
 4853TIP3    H214566   4.730   3.162   3.174
 4854TIP3   OH214567   5.123   5.129   2.647
 4854TIP3    H114568   5.099   5.199   2.709
 4854TIP3    H214569   5.122   5.049   2.700
 4855TIP3   OH214570   2.676   2.299   1.282
 4855TIP3    H114571   2.736   2.373   1.283
 4855TIP3    H214572   2.613   2.318   1.352
 4856TIP3   OH214573   3.508   2.031   0.873
 4856TIP3    H114574   3.531   2.123   0.858
 4856TIP3    H214575   3.592   1.985   0.872
 4857TIP3   OH214576   3.197   5.636   2.951
 4857TIP3    H114577   3.119   5.691   2.943
 4857TIP3    H214578   3.270   5.694   2.930
 4858TIP3   OH214579   1.912   0.223   2.161
 4858TIP3    H114580   1.819   0.245   2.153
 4858TIP3    H214581   1.935   0.181   2.078
 4859TIP3   OH214582   1.516  -0.046   3.083
 4859TIP3    H114583   1.530   0.045   3.056
 4859TIP3    H214584   1.478  -0.040   3.170
 4860TIP3   OH214585   5.252   4.340   3.400
 4860TIP3    H114586   5.197   4.266   3.428
 4860TIP3    H214587   5.341   4.313   3.420
 4861TIP3   OH214588   0.137   4.469   4.791
 4861TIP3    H114589   0.135   4.399   4.857
 4861TIP3    H214590   0.210   4.525   4.819
 4862TIP3   OH214591   5.542   1.975   3.622
 4862TIP3    H114592   5.494   1.952   3.701
 4862TIP3    H214593   5.628   1.935   3.633
 4863TIP3   OH214594   4.152   3.886   1.503
 4863TIP3    H114595   4.199   3.823   1.448
 4863TIP3    H214596   4.217   3.955   1.521
 4864TIP3   OH214597   6.234   1.102   0.032
 4864TIP3    H114598   6.213   1.098   0.125
 4864TIP3    H214599   6.279   1.020   0.014
 4865TIP3   OH214600   4.760   2.257   2.759
 4865TIP3    H114601   4.826   2.212   2.812
 4865TIP3    H214602   4.677   2.218   2.785
 4866TIP3   OH214603   5.555   4.561   3.603
 4866TIP3    H114604   5.491   4.507   3.649
 4866TIP3    H214605   5.618   4.586   3.670
 4867TIP3   OH214606   4.899   1.510   1.231
 4867TIP3    H114607   4.883   1.540   1.141
 4867TIP3    H214608   4.970   1.447   1.222
 4868TIP3   OH214609   0.433   5.278   0.528
 4868TIP3    H114610   0.456   5.316   0.613
 4868TIP3    H214611   0.517   5.269   0.482
 4869TIP3   OH214612   4.319   5.357   3.101
 4869TIP3    H114613   4.319   5.320   3.012
 4869TIP3    H214614   4.408   5.389   3.113
 4870TIP3   OH214615   6.203   2.869   3.958
 4870TIP3    H114616   6.141   2.929   4.000
 4870TIP3    H214617   6.179   2.869   3.866
 4871TIP3   OH214618   2.555   4.731   4.265
 4871TIP3    H114619   2.474   4.733   4.214
 4871TIP3    H214620   2.545   4.801   4.329
 4872TIP3   OH214621   5.414   4.716   1.354
 4872TIP3    H114622   5.455   4.797   1.324
 4872TIP3    H214623   5.375   4.738   1.438
 4873TIP3   OH214624   5.780   1.167   4.599
 4873TIP3    H114625   5.860   1.149   4.649
 4873TIP3    H214626   5.736   1.237   4.649
 4874TIP3   OH214627   0.033   3.344   3.968
 4874TIP3    H114628   0.069   3.427   3.936
 4874TIP3    H214629   0.059   3.280   3.902
 4875TIP3   OH214630   4.209   0.391   1.234
 4875TIP3    H114631   4.162   0.473   1.240
 4875TIP3    H214632   4.147   0.330   1.193
 4876TIP3   OH214633   2.522   5.627   1.395
 4876TIP3    H114634   2.469   5.660   1.468
 4876TIP3    H214635   2.467   5.562   1.353
 4877TIP3   OH214636   0.216   5.930   3.340
 4877TIP3    H114637   0.204   6.023   3.359
 4877TIP3    H214638   0.272   5.898   3.411
 4878TIP3   OH214639   1.203   5.390   2.031
 4878TIP3    H114640   1.148   5.467   2.021
 4878TIP3    H214641   1.231   5.392   2.122
 4879TIP3   OH214642   3.070   0.162   1.335
 4879TIP3    H114643   3.056   0.161   1.430
 4879TIP3    H214644   3.057   0.253   1.309
 4880TIP3   OH214645   2.298   4.488   4.343
 4880TIP3    H114646   2.308   4.556   4.276
 4880TIP3    H214647   2.386   4.478   4.380
 4881TIP3   OH214648   3.195   0.409   3.358
 4881TIP3    H114649   3.241   0.430   3.440
 4881TIP3    H214650   3.237   0.465   3.292
 4882TIP3   OH214651   3.358   1.597   3.237
 4882TIP3    H114652   3.450   1.622   3.241
 4882TIP3    H214653   3.328   1.601   3.328
 4883TIP3   OH214654   0.736   1.168   2.516
 4883TIP3    H114655   0.680   1.107   2.563
 4883TIP3    H214656   0.713   1.254   2.551
 4884TIP3   OH214657   6.033   1.757   2.376
 4884TIP3    H114658   6.040   1.727   2.467
 4884TIP3    H214659   6.078   1.841   2.375
 4885TIP3   OH214660   0.485   5.782   0.820
 4885TIP3    H114661   0.397   5.756   0.792
 4885TIP3    H214662   0.476   5.874   0.845
 4886TIP3   OH214663   2.840   2.401   2.824
 4886TIP3    H114664   2.925   2.423   2.786
 4886TIP3    H214665   2.858   2.388   2.917
 4887TIP3   OH214666   2.984   5.024   2.310
 4887TIP3    H114667   2.937   5.085   2.367
 4887TIP3    H214668   3.005   4.950   2.367
 4888TIP3   OH214669   2.027   2.662   2.537
 4888TIP3    H114670   2.053   2.570   2.545
 4888TIP3    H214671   2.110   2.710   2.531
 4889TIP3   OH214672   0.404   5.347   4.425
 4889TIP3    H114673   0.460   5.414   4.466
 4889TIP3    H214674   0.456   5.312   4.354
 4890TIP3   OH214675   4.590   5.539   1.316
 4890TIP3    H114676   4.515   5.481   1.332
 4890TIP3    H214677   4.556   5.606   1.257
 4891TIP3   OH214678   5.745   2.853   2.859
 4891TIP3    H114679   5.834   2.875   2.832
 4891TIP3    H214680   5.689   2.910   2.806
 4892TIP3   OH214681   2.951   2.685   4.551
 4892TIP3    H114682   2.987   2.758   4.501
 4892TIP3    H214683   3.026   2.627   4.566
 4893TIP3   OH214684   4.916   5.599   1.955
 4893TIP3    H114685   5.007   5.599   1.986
 4893TIP3    H214686   4.878   5.520   1.993
 4894TIP3   OH214687   3.401   1.793   2.747
 4894TIP3    H114688   3.310   1.778   2.773
 4894TIP3    H214689   3.395   1.840   2.664
 4895TIP3   OH214690   3.420   5.742   3.934
 4895TIP3    H114691   3.343   5.796   3.915
 4895TIP3    H214692   3.418   5.673   3.868
 4896TIP3   OH214693   3.257   1.228   4.930
 4896TIP3    H114694   3.226   1.241   4.840
 4896TIP3    H214695   3.177   1.233   4.983
 4897TIP3   OH214696   6.027   3.913   1.388
 4897TIP3    H114697   6.080   3.837   1.365
 4897TIP3    H214698   6.090   3.984   1.400
 4898TIP3   OH214699   0.951   0.601   3.287
 4898TIP3    H114700   0.933   0.644   3.203
 4898TIP3    H214701   0.877   0.624   3.342
 4899TIP3   OH214702   0.381   3.085   0.490
 4899TIP3    H114703   0.372   3.179   0.502
 4899TIP3    H214704   0.294   3.055   0.465
 4900TIP3   OH214705   0.448   1.160   4.863
 4900TIP3    H114706   0.394   1.089   4.828
 4900TIP3    H214707   0.478   1.127   4.948
 4901TIP3   OH214708   2.286   3.519   3.598
 4901TIP3    H114709   2.314   3.609   3.616
 4901TIP3    H214710   2.267   3.518   3.504
 4902TIP3   OH214711   2.528   5.806   4.054
 4902TIP3    H114712   2.608   5.836   4.098
 4902TIP3    H214713   2.458   5.825   4.116
 4903TIP3   OH214714   1.798   3.545   1.272
 4903TIP3    H114715   1.771   3.460   1.236
 4903TIP3    H214716   1.816   3.599   1.196
 4904TIP3   OH214717   4.862   3.719   1.326
 4904TIP3    H114718   4.843   3.707   1.233
 4904TIP3    H214719   4.911   3.802   1.329
 4905TIP3   OH214720   1.775   0.925   4.370
 4905TIP3    H114721   1.707   0.895   4.309
 4905TIP3    H214722   1.809   1.005   4.330
 4906TIP3   OH214723   5.994   3.031   1.445
 4906TIP3    H114724   6.003   2.964   1.377
 4906TIP3    H214725   6.019   2.986   1.526
 4907TIP3   OH214726   0.171   5.956   2.778
 4907TIP3    H114727   0.162   5.952   2.873
 4907TIP3    H214728   0.236   5.888   2.758
 4908TIP3   OH214729   2.732   0.737   4.448
 4908TIP3    H114730   2.777   0.679   4.387
 4908TIP3    H214731   2.694   0.805   4.393
 4909TIP3   OH214732   0.250   5.754   0.712
 4909TIP3    H114733   0.203   5.700   0.648
 4909TIP3    H214734   0.191   5.757   0.788
 4910TIP3   OH214735   2.090   3.115   3.195
 4910TIP3    H114736   2.135   3.032   3.179
 4910TIP3    H214737   2.107   3.167   3.116
 4911TIP3   OH214738   1.935   2.799   3.223
 4911TIP3    H114739   1.970   2.709   3.227
 4911TIP3    H214740   2.006   2.850   3.184
 4912TIP3   OH214741   2.330   3.417   2.716
 4912TIP3    H114742   2.374   3.421   2.631
 4912TIP3    H214743   2.381   3.354   2.767
 4913TIP3   OH214744   0.451   2.536   3.702
 4913TIP3    H114745   0.386   2.573   3.643
 4913TIP3    H214746   0.527   2.519   3.646
 4914TIP3   OH214747   4.548   0.726   4.529
 4914TIP3    H114748   4.625   0.693   4.576
 4914TIP3    H214749   4.474   0.702   4.584
 4915TIP3   OH214750   1.490   1.630   3.516
 4915TIP3    H114751   1.446   1.629   3.431
 4915TIP3    H214752   1.511   1.723   3.531
 4916TIP3   OH214753   2.962   2.261   3.305
 4916TIP3    H114754   3.046   2.279   3.347
 4916TIP3    H214755   2.936   2.175   3.337
 4917TIP3   OH214756   4.948   3.427   0.542
 4917TIP3    H114757   4.938   3.332   0.529
 4917TIP3    H214758   5.025   3.435   0.598
 4918TIP3   OH214759   1.071   1.224   0.427
 4918TIP3    H114760   1.084   1.148   0.371
 4918TIP3    H214761   1.056   1.297   0.367
 4919TIP3   OH214762   3.827   5.071   2.362
 4919TIP3    H114763   3.802   5.156   2.398
 4919TIP3    H214764   3.778   5.007   2.414
 4920TIP3   OH214765   6.125   4.931   0.701
 4920TIP3    H114766   6.119   5.016   0.656
 4920TIP3    H214767   6.048   4.883   0.672
 4921TIP3   OH214768   4.770   5.669   2.656
 4921TIP3    H114769   4.820   5.748   2.677
 4921TIP3    H214770   4.736   5.638   2.740
 4922TIP3   OH214771   2.514   0.894   0.853
 4922TIP3    H114772   2.437   0.886   0.796
 4922TIP3    H214773   2.585   0.857   0.802
 4923TIP3   OH214774   5.869   0.553   4.787
 4923TIP3    H114775   5.787   0.511   4.813
 4923TIP3    H214776   5.854   0.580   4.696
 4924TIP3   OH214777   0.834   0.081   3.013
 4924TIP3    H114778   0.784   0.105   3.091
 4924TIP3    H214779   0.862   0.164   2.975
 4925TIP3   OH214780   2.382   5.510   2.511
 4925TIP3    H114781   2.426   5.437   2.468
 4925TIP3    H214782   2.439   5.585   2.497
 4926TIP3   OH214783   0.898   2.544   3.950
 4926TIP3    H114784   0.828   2.493   3.991
 4926TIP3    H214785   0.894   2.630   3.991
 4927TIP3   OH214786   1.659   3.156   3.396
 4927TIP3    H114787   1.702   3.152   3.481
 4927TIP3    H214788   1.569   3.183   3.415
 4928TIP3   OH214789   1.092   2.878   4.445
 4928TIP3    H114790   1.084   2.927   4.363
 4928TIP3    H214791   1.094   2.944   4.513
 4929TIP3   OH214792   4.798   3.191   0.199
 4929TIP3    H114793   4.816   3.121   0.262
 4929TIP3    H214794   4.884   3.228   0.180
 4930TIP3   OH214795   5.154   2.680   2.688
 4930TIP3    H114796   5.126   2.607   2.632
 4930TIP3    H214797   5.248   2.688   2.672
 4931TIP3   OH214798   1.943   1.127   1.279
 4931TIP3    H114799   1.881   1.055   1.281
 4931TIP3    H214800   2.023   1.090   1.242
 4932TIP3   OH214801   4.953   5.883   1.531
 4932TIP3    H114802   5.014   5.837   1.589
 4932TIP3    H214803   4.956   5.974   1.560
 4933TIP3   OH214804   2.585   1.340   0.974
 4933TIP3    H114805   2.495   1.366   0.992
 4933TIP3    H214806   2.638   1.413   1.006
 4934TIP3   OH214807   4.949   4.690   1.949
 4934TIP3    H114808   4.883   4.736   2.001
 4934TIP3    H214809   5.007   4.651   2.014
 4935TIP3   OH214810   2.219   5.431   0.534
 4935TIP3    H114811   2.155   5.455   0.468
 4935TIP3    H214812   2.200   5.488   0.608
 4936TIP3   OH214813   5.887   2.396   2.957
 4936TIP3    H114814   5.954   2.457   2.987
 4936TIP3    H214815   5.859   2.431   2.872
 4937TIP3   OH214816   4.730   5.978   2.442
 4937TIP3    H114817   4.727   5.910   2.374
 4937TIP3    H214818   4.823   6.003   2.446
 4938TIP3   OH214819   3.594   5.589   2.203
 4938TIP3    H114820   3.584   5.537   2.123
 4938TIP3    H214821   3.525   5.555   2.261
 4939TIP3   OH214822   3.760   3.504   1.307
 4939TIP3    H114823   3.838   3.453   1.333
 4939TIP3    H214824   3.758   3.577   1.369
 4940TIP3   OH214825   0.606   5.263   2.179
 4940TIP3    H114826   0.665   5.257   2.104
 4940TIP3    H214827   0.537   5.324   2.151
 4941TIP3   OH214828   2.324   0.975   4.095
 4941TIP3    H114829   2.263   0.906   4.119
 4941TIP3    H214830   2.271   1.054   4.089
 4942TIP3   OH214831   1.082   2.950   0.848
 4942TIP3    H114832   1.132   2.995   0.780
 4942TIP3    H214833   0.991   2.959   0.820
 4943TIP3   OH214834   5.090   5.479   4.944
 4943TIP3    H114835   5.170   5.524   4.916
 4943TIP3    H214836   5.065   5.426   4.868
 4944TIP3   OH214837   3.210   0.172   3.964
 4944TIP3    H114838   3.189   0.086   4.000
 4944TIP3    H214839   3.306   0.176   3.965
 4945TIP3   OH214840   2.578   3.089   3.647
 4945TIP3    H114841   2.522   3.151   3.601
 4945TIP3    H214842   2.520   3.015   3.668
 4946TIP3   OH214843   5.552   2.181   2.349
 4946TIP3    H114844   5.572   2.270   2.321
 4946TIP3    H214845   5.485   2.191   2.417
 4947TIP3   OH214846   1.189   4.041   3.027
 4947TIP3    H114847   1.263   3.981   3.032
 4947TIP3    H214848   1.132   4.015   3.100
 4948TIP3   OH214849   2.015   2.504   3.249
 4948TIP3    H114850   1.930   2.485   3.289
 4948TIP3    H214851   2.080   2.480   3.315
 4949TIP3   OH214852   5.549   0.076   0.960
 4949TIP3    H114853   5.640   0.077   0.931
 4949TIP3    H214854   5.513   0.159   0.928
 4950TIP3   OH214855   4.892   5.002   3.711
 4950TIP3    H114856   4.881   4.995   3.616
 4950TIP3    H214857   4.923   5.091   3.725
 4951TIP3   OH214858   1.253   2.845   3.384
 4951TIP3    H114859   1.219   2.899   3.456
 4951TIP3    H214860   1.324   2.795   3.424
 4952TIP3   OH214861   4.519   3.052   4.121
 4952TIP3    H114862   4.493   3.067   4.030
 4952TIP3    H214863   4.562   2.967   4.121
 4953TIP3   OH214864   1.356   5.615   1.001
 4953TIP3    H114865   1.314   5.645   0.921
 4953TIP3    H214866   1.293   5.634   1.070
 4954TIP3   OH214867   1.126   1.720   1.026
 4954TIP3    H114868   1.080   1.640   0.999
 4954TIP3    H214869   1.084   1.744   1.109
 4955TIP3   OH214870   1.568   4.228   0.117
 4955TIP3    H114871   1.582   4.287   0.192
 4955TIP3    H214872   1.638   4.252   0.056
 4956TIP3   OH214873   0.125   5.603   0.516
 4956TIP3    H114874   0.110   5.615   0.422
 4956TIP3    H214875   0.060   5.539   0.543
 4957TIP3   OH214876   5.519   3.557   3.555
 4957TIP3    H114877   5.563   3.580   3.636
 4957TIP3    H214878   5.430   3.532   3.582
 4958TIP3   OH214879   4.072   2.043   2.221
 4958TIP3    H114880   4.125   2.097   2.279
 4958TIP3    H214881   4.014   1.994   2.280
 4959TIP3   OH214882   5.573   3.442   0.315
 4959TIP3    H114883   5.540   3.482   0.235
 4959TIP3    H214884   5.496   3.398   0.352
 4960TIP3   OH214885   6.148   4.285   2.374
 4960TIP3    H114886   6.097   4.209   2.344
 4960TIP3    H214887   6.111   4.306   2.460
 4961TIP3   OH214888   4.913   5.899   4.251
 4961TIP3    H114889   4.850   5.830   4.232
 4961TIP3    H214890   4.911   5.909   4.346
 4962TIP3   OH214891   3.466   0.713   0.860
 4962TIP3    H114892   3.381   0.756   0.868
 4962TIP3    H214893   3.505   0.749   0.781
 4963TIP3   OH214894   3.738   2.975   2.983
 4963TIP3    H114895   3.709   3.064   2.962
 4963TIP3    H214896   3.663   2.934   3.025
 4964TIP3   OH214897   2.710   4.386   2.632
 4964TIP3    H114898   2.627   4.423   2.605
 4964TIP3    H214899   2.701   4.292   2.615
 4965TIP3   OH214900   2.087   5.440   2.562
 4965TIP3    H114901   2.114   5.522   2.522
 4965TIP3    H214902   2.156   5.378   2.539
 4966TIP3   OH214903   0.692   1.398   1.672
 4966TIP3    H114904   0.694   1.397   1.767
 4966TIP3    H214905   0.600   1.379   1.649
 4967TIP3   OH214906   5.902   2.914   3.807
 4967TIP3    H114907   5.974   2.870   3.761
 4967TIP3    H214908   5.826   2.899   3.751
 4968TIP3   OH214909   0.516   4.760   1.017
 4968TIP3    H114910   0.463   4.801   0.948
 4968TIP3    H214911   0.565   4.832   1.056
 4969TIP3   OH214912   1.690   2.502   2.162
 4969TIP3    H114913   1.777   2.488   2.200
 4969TIP3    H214914   1.632   2.448   2.215
 4970TIP3   OH214915   5.968   0.906   0.530
 4970TIP3    H114916   5.945   0.999   0.526
 4970TIP3    H214917   5.895   0.865   0.576
 4971TIP3   OH214918   3.260   4.912   3.548
 4971TIP3    H114919   3.257   5.004   3.574
 4971TIP3    H214920   3.170   4.881   3.559
 4972TIP3   OH214921   4.766   2.061   3.207
 4972TIP3    H114922   4.710   1.987   3.185
 4972TIP3    H214923   4.723   2.102   3.282
 4973TIP3   OH214924   6.019   0.733   1.959
 4973TIP3    H114925   6.016   0.665   2.026
 4973TIP3    H214926   6.112   0.757   1.952
 4974TIP3   OH214927   2.343   1.634   2.882
 4974TIP3    H114928   2.311   1.656   2.794
 4974TIP3    H214929   2.362   1.540   2.878
 4975TIP3   OH214930   3.291   5.012   4.311
 4975TIP3    H114931   3.209   5.014   4.261
 4975TIP3    H214932   3.288   4.930   4.360
 4976TIP3   OH214933   5.470   2.933   3.790
 4976TIP3    H114934   5.531   2.860   3.800
 4976TIP3    H214935   5.479   2.960   3.699
 4977TIP3   OH214936   0.261   0.008   3.437
 4977TIP3    H114937   0.188   0.060   3.472
 4977TIP3    H214938   0.305  -0.026   3.515
 4978TIP3   OH214939   0.659   4.062   2.716
 4978TIP3    H114940   0.569   4.051   2.685
 4978TIP3    H214941   0.713   4.040   2.640
 4979TIP3   OH214942   5.523   5.122   1.760
 4979TIP3    H114943   5.430   5.126   1.782
 4979TIP3    H214944   5.564   5.084   1.838
 4980TIP3   OH214945   0.924   5.830   4.183
 4980TIP3    H114946   0.959   5.912   4.219
 4980TIP3    H214947   0.996   5.768   4.191
 4981TIP3   OH214948   6.223   4.205   3.974
 4981TIP3    H114949   6.259   4.121   4.001
 4981TIP3    H214950   6.128   4.193   3.978
 4982TIP3   OH214951   1.344   5.115   4.676
 4982TIP3    H114952   1.410   5.070   4.624
 4982TIP3    H214953   1.371   5.207   4.677
 4983TIP3   OH214954   0.643   1.283   2.967
 4983TIP3    H114955   0.703   1.268   3.040
 4983TIP3    H214956   0.594   1.201   2.959
 4984TIP3   OH214957   2.689   2.092   1.929
 4984TIP3    H114958   2.630   2.070   1.857
 4984TIP3    H214959   2.631   2.115   2.002
 4985TIP3   OH214960   4.418   2.757   3.543
 4985TIP3    H114961   4.458   2.831   3.499
 4985TIP3    H214962   4.492   2.700   3.566
 4986TIP3   OH214963   4.670   4.272   0.575
 4986TIP3    H114964   4.672   4.294   0.668
 4986TIP3    H214965   4.577   4.261   0.556
 4987TIP3   OH214966   4.000   5.843   3.254
 4987TIP3    H114967   3.936   5.805   3.315
 4987TIP3    H214968   3.986   5.795   3.172
 4988TIP3   OH214969   1.004   0.592   1.782
 4988TIP3    H114970   1.095   0.596   1.754
 4988TIP3    H214971   0.997   0.657   1.852
 4989TIP3   OH214972   4.265   5.604   1.653
 4989TIP3    H114973   4.336   5.586   1.715
 4989TIP3    H214974   4.279   5.542   1.581
 4990TIP3   OH214975   6.016   1.487   2.263
 4990TIP3    H114976   6.008   1.582   2.273
 4990TIP3    H214977   5.999   1.451   2.350
 4991TIP3   OH214978   3.484   5.869   3.492
 4991TIP3    H114979   3.532   5.823   3.561
 4991TIP3    H214980   3.545   5.937   3.463
 4992TIP3   OH214981   1.162   3.268   3.639
 4992TIP3    H114982   1.162   3.178   3.608
 4992TIP3    H214983   1.228   3.270   3.708
 4993TIP3   OH214984   0.620   3.038   5.040
 4993TIP3    H114985   0.690   3.043   4.975
 4993TIP3    H214986   0.652   2.975   5.105
 4994TIP3   OH214987   3.468   2.248   3.408
 4994TIP3    H114988   3.518   2.308   3.464
 4994TIP3    H214989   3.516   2.165   3.413
 4995TIP3   OH214990   1.600   2.356   0.088
 4995TIP3    H114991   1.541   2.334   0.160
 4995TIP3    H214992   1.598   2.279   0.031
 4996TIP3   OH214993   0.070   1.825   3.446
 4996TIP3    H114994   0.150   1.788   3.409
 4996TIP3    H214995   0.097   1.912   3.478
 4997TIP3   OH214996   3.675   2.451   0.680
 4997TIP3    H114997   3.602   2.494   0.724
 4997TIP3    H214998   3.648   2.359   0.675
 4998TIP3   OH214999   4.896   1.543   0.679
 4998TIP3    H115000   4.895   1.491   0.759
 4998TIP3    H215001   4.898   1.479   0.608
 4999TIP3   OH215002   0.443   4.859   5.088
 4999TIP3    H115003   0.428   4.776   5.042
 4999TIP3    H215004   0.428   4.926   5.022
 5000TIP3   OH215005   0.723   3.496   1.589
 5000TIP3    H115006   0.680   3.413   1.572
 5000TIP3    H215007   0.674   3.559   1.535
 5001TIP3   OH215008   5.609   2.997   3.147
 5001TIP3    H115009   5.653   3.055   3.208
 5001TIP3    H215010   5.526   2.976   3.189
 5002TIP3   OH215011   5.768   1.191   0.128
 5002TIP3    H115012   5.682   1.174   0.091
 5002TIP3    H215013   5.787   1.115   0.183
 5003TIP3   OH215014   4.278   1.968   2.488
 5003TIP3    H115015   4.182   1.960   2.489
 5003TIP3    H215016   4.294   2.053   2.448
 5004TIP3   OH215017   4.584   4.935   4.193
 5004TIP3    H115018   4.522   4.875   4.152
 5004TIP3    H215019   4.605   4.998   4.125
 5005TIP3   OH215020   0.055   3.105   1.390
 5005TIP3    H115021  -0.031   3.143   1.409
 5005TIP3    H215022   0.110   3.134   1.463
 5006TIP3   OH215023   3.530   0.249   4.595
 5006TIP3    H115024   3.623   0.254   4.571
 5006TIP3    H215025   3.502   0.163   4.565
 5007TIP3   OH215026   3.637   3.187   3.322
 5007TIP3    H115027   3.642   3.245   3.246
 5007TIP3    H215028   3.659   3.244   3.396
 5008TIP3   OH215029   2.638   5.832   0.794
 5008TIP3    H115030   2.664   5.921   0.819
 5008TIP3    H215031   2.624   5.836   0.700
 5009TIP3   OH215032   5.707   5.500   3.068
 5009TIP3    H115033   5.741   5.573   3.017
 5009TIP3    H215034   5.773   5.486   3.137
 5010TIP3   OH215035   0.411   4.041   0.191
 5010TIP3    H115036   0.476   3.979   0.161
 5010TIP3    H215037   0.438   4.125   0.152
 5011TIP3   OH215038   2.641   3.824   0.167
 5011TIP3    H115039   2.665   3.916   0.178
 5011TIP3    H215040   2.697   3.776   0.228
 5012TIP3   OH215041   6.222   3.815   0.226
 5012TIP3    H115042   6.160   3.755   0.268
 5012TIP3    H215043   6.195   3.816   0.134
 5013TIP3   OH215044   0.378   1.114   3.928
 5013TIP3    H115045   0.332   1.137   4.009
 5013TIP3    H215046   0.464   1.157   3.937
 5014TIP3   OH215047   1.723   3.239   1.888
 5014TIP3    H115048   1.723   3.330   1.860
 5014TIP3    H215049   1.705   3.242   1.982
 5015TIP3   OH215050   2.860   2.771   4.780
 5015TIP3    H115051   2.917   2.845   4.799
 5015TIP3    H215052   2.890   2.739   4.695
 5016TIP3   OH215053   1.714   5.668   0.805
 5016TIP3    H115054   1.722   5.589   0.752
 5016TIP3    H215055   1.686   5.637   0.891
 5017TIP3   OH215056   3.643   5.211   3.276
 5017TIP3    H115057   3.722   5.183   3.323
 5017TIP3    H215058   3.672   5.225   3.186
 5018TIP3   OH215059   1.132   3.528   2.077
 5018TIP3    H115060   1.167   3.493   2.159
 5018TIP3    H215061   1.037   3.517   2.085
 5019TIP3   OH215062   0.043   0.418   4.326
 5019TIP3    H115063  -0.001   0.475   4.263
 5019TIP3    H215064   0.135   0.444   4.322
 5020TIP3   OH215065   2.014   0.737   3.293
 5020TIP3    H115066   1.940   0.789   3.324
 5020TIP3    H215067   2.026   0.764   3.202
 5021TIP3   OH215068   2.999   4.364   0.708
 5021TIP3    H115069   3.021   4.380   0.616
 5021TIP3    H215070   2.991   4.269   0.714
 5022TIP3   OH215071   4.701   4.867   3.127
 5022TIP3    H115072   4.641   4.804   3.087
 5022TIP3    H215073   4.776   4.870   3.067
 5023TIP3   OH215074   1.654   5.424   0.710
 5023TIP3    H115075   1.663   5.343   0.660
 5023TIP3    H215076   1.568   5.417   0.751
 5024TIP3   OH215077   3.794   2.101   4.034
 5024TIP3    H115078   3.875   2.120   4.081
 5024TIP3    H215079   3.786   2.171   3.969
 5025TIP3   OH215080   4.547   4.597   3.671
 5025TIP3    H115081   4.508   4.520   3.629
 5025TIP3    H215082   4.635   4.567   3.697
 5026TIP3   OH215083   5.810   2.180   0.490
 5026TIP3    H115084   5.731   2.172   0.544
 5026TIP3    H215085   5.882   2.162   0.550
 5027TIP3   OH215086   4.255   0.811   0.781
 5027TIP3    H115087   4.198   0.855   0.718
 5027TIP3    H215088   4.325   0.773   0.727
 5028TIP3   OH215089   2.248   2.320   3.139
 5028TIP3    H115090   2.160   2.305   3.175
 5028TIP3    H215091   2.306   2.276   3.200
 5029TIP3   OH215092   2.724   2.827   3.662
 5029TIP3    H115093   2.691   2.743   3.630
 5029TIP3    H215094   2.716   2.886   3.586
 5030TIP3   OH215095   2.305   0.379   3.760
 5030TIP3    H115096   2.368   0.424   3.703
 5030TIP3    H215097   2.271   0.308   3.706
 5031TIP3   OH215098   4.467   0.017   3.367
 5031TIP3    H115099   4.545   0.073   3.368
 5031TIP3    H215100   4.394   0.079   3.372
 5032TIP3   OH215101   3.464   0.251   3.350
 5032TIP3    H115102   3.498   0.319   3.409
 5032TIP3    H215103   3.522   0.176   3.364
 5033TIP3   OH215104   1.152   5.338   2.918
 5033TIP3    H115105   1.176   5.368   2.830
 5033TIP3    H215106   1.057   5.347   2.921
 5034TIP3   OH215107   0.089   2.261   0.094
 5034TIP3    H115108   0.079   2.192   0.027
 5034TIP3    H215109   0.145   2.222   0.161
 5035TIP3   OH215110   0.023   5.365   0.261
 5035TIP3    H115111  -0.019   5.280   0.251
 5035TIP3    H215112   0.074   5.357   0.342
 5036TIP3   OH215113   2.397   2.617   4.032
 5036TIP3    H115114   2.444   2.643   3.953
 5036TIP3    H215115   2.408   2.522   4.037
 5037TIP3   OH215116   3.269   1.314   2.023
 5037TIP3    H115117   3.352   1.335   2.066
 5037TIP3    H215118   3.251   1.224   2.050
 5038TIP3   OH215119   2.541   2.298   0.097
 5038TIP3    H115120   2.507   2.295   0.008
 5038TIP3    H215121   2.633   2.324   0.087
 5039TIP3   OH215122   5.281   2.038   2.598
 5039TIP3    H115123   5.320   2.045   2.511
 5039TIP3    H215124   5.187   2.052   2.583
 5040TIP3   OH215125   2.131   4.435   3.969
 5040TIP3    H115126   2.072   4.420   3.896
 5040TIP3    H215127   2.191   4.503   3.938
 5041TIP3   OH215128   1.978   5.423   4.392
 5041TIP3    H115129   1.911   5.355   4.403
 5041TIP3    H215130   2.059   5.380   4.418
 5042TIP3   OH215131   2.834   1.354   0.353
 5042TIP3    H115132   2.876   1.363   0.438
 5042TIP3    H215133   2.797   1.266   0.353
 5043TIP3   OH215134   5.329   3.103   2.700
 5043TIP3    H115135   5.275   3.166   2.653
 5043TIP3    H215136   5.276   3.077   2.775
 5044TIP3   OH215137   0.633   5.638   3.602
 5044TIP3    H115138   0.551   5.634   3.650
 5044TIP3    H215139   0.648   5.732   3.588
 5045TIP3   OH215140   1.008   5.706   1.538
 5045TIP3    H115141   1.049   5.629   1.499
 5045TIP3    H215142   1.029   5.701   1.631
 5046TIP3   OH215143   5.989   0.153   1.342
 5046TIP3    H115144   5.951   0.233   1.378
 5046TIP3    H215145   6.039   0.115   1.414
 5047TIP3   OH215146   2.455   2.162   4.928
 5047TIP3    H115147   2.451   2.083   4.874
 5047TIP3    H215148   2.544   2.194   4.917
 5048TIP3   OH215149   1.009   1.029   1.779
 5048TIP3    H115150   1.104   1.031   1.793
 5048TIP3    H215151   0.974   1.085   1.849
 5049TIP3   OH215152   3.074   5.870   2.403
 5049TIP3    H115153   3.072   5.775   2.390
 5049TIP3    H215154   3.159   5.887   2.444
 5050TIP3   OH215155   4.804   5.461   1.472
 5050TIP3    H115156   4.814   5.509   1.554
 5050TIP3    H215157   4.714   5.477   1.445
 5051TIP3   OH215158   4.120   3.673   5.189
 5051TIP3    H115159   4.198   3.631   5.152
 5051TIP3    H215160   4.049   3.650   5.129
 5052TIP3   OH215161   3.874   3.586   3.005
 5052TIP3    H115162   3.923   3.661   3.039
 5052TIP3    H215163   3.847   3.538   3.083
 5053TIP3   OH215164   6.022   1.422   2.515
 5053TIP3    H115165   5.997   1.504   2.557
 5053TIP3    H215166   6.059   1.368   2.585
 5054TIP3   OH215167   0.572   2.493   1.030
 5054TIP3    H115168   0.570   2.423   0.965
 5054TIP3    H215169   0.634   2.463   1.096
 5055TIP3   OH215170   1.848   5.686   2.459
 5055TIP3    H115171   1.940   5.664   2.476
 5055TIP3    H215172   1.845   5.704   2.365
 5056TIP3   OH215173   2.626   1.158   0.641
 5056TIP3    H115174   2.673   1.237   0.669
 5056TIP3    H215175   2.534   1.186   0.636
 5057TIP3   OH215176   1.879   1.422   1.403
 5057TIP3    H115177   1.876   1.349   1.341
 5057TIP3    H215178   1.887   1.379   1.489
 5058TIP3   OH215179   1.104   5.521   3.707
 5058TIP3    H115180   1.128   5.511   3.615
 5058TIP3    H215181   1.009   5.509   3.709
 5059TIP3   OH215182   0.960   2.711   3.354
 5059TIP3    H115183   1.003   2.714   3.268
 5059TIP3    H215184   0.869   2.687   3.334
 5060TIP3   OH215185   2.850   2.197   4.872
 5060TIP3    H115186   2.850   2.151   4.788
 5060TIP3    H215187   2.877   2.286   4.850
 5061TIP3   OH215188   3.512   1.623   2.521
 5061TIP3    H115189   3.466   1.705   2.504
 5061TIP3    H215190   3.579   1.619   2.453
 5062TIP3   OH215191   1.754   2.786   0.685
 5062TIP3    H115192   1.677   2.843   0.680
 5062TIP3    H215193   1.739   2.719   0.618
 5063TIP3   OH215194   4.851   2.268   5.106
 5063TIP3    H115195   4.815   2.327   5.171
 5063TIP3    H215196   4.870   2.187   5.154
 5064TIP3   OH215197   3.918   5.790   0.381
 5064TIP3    H115198   4.003   5.808   0.340
 5064TIP3    H215199   3.939   5.738   0.458
 5065TIP3   OH215200   4.123   1.342   3.769
 5065TIP3    H115201   4.210   1.363   3.805
 5065TIP3    H215202   4.062   1.382   3.831
 5066TIP3   OH215203   5.629   5.445   3.588
 5066TIP3    H115204   5.590   5.516   3.537
 5066TIP3    H215205   5.703   5.415   3.536
 5067TIP3   OH215206   6.272   1.127   3.024
 5067TIP3    H115207   6.295   1.215   3.054
 5067TIP3    H215208   6.356   1.089   2.997
 5068TIP3   OH215209   4.835   0.148   3.115
 5068TIP3    H115210   4.862   0.186   3.198
 5068TIP3    H215211   4.786   0.070   3.138
 5069TIP3   OH215212   3.794   3.054   1.735
 5069TIP3    H115213   3.799   3.026   1.643
 5069TIP3    H215214   3.724   3.001   1.773
 5070TIP3   OH215215   1.533   1.520   1.567
 5070TIP3    H115216   1.536   1.444   1.510
 5070TIP3    H215217   1.440   1.531   1.587
 5071TIP3   OH215218   3.196   4.343   4.548
 5071TIP3    H115219   3.286   4.359   4.520
 5071TIP3    H215220   3.206   4.295   4.631
 5072TIP3   OH215221   4.478   3.854   4.003
 5072TIP3    H115222   4.437   3.908   4.070
 5072TIP3    H215223   4.532   3.914   3.952
 5073TIP3   OH215224   5.222   5.198   4.182
 5073TIP3    H115225   5.230   5.206   4.086
 5073TIP3    H215226   5.248   5.284   4.215
 5074TIP3   OH215227   1.067   0.600   0.649
 5074TIP3    H115228   0.972   0.596   0.656
 5074TIP3    H215229   1.089   0.691   0.667
 5075TIP3   OH215230   2.128   3.191   2.210
 5075TIP3    H115231   2.192   3.258   2.235
 5075TIP3    H215232   2.126   3.195   2.114
 5076TIP3   OH215233   2.773   1.079   0.309
 5076TIP3    H115234   2.853   1.031   0.329
 5076TIP3    H215235   2.704   1.031   0.355
 5077TIP3   OH215236   1.406   4.176   4.641
 5077TIP3    H115237   1.344   4.246   4.660
 5077TIP3    H215238   1.474   4.186   4.709
 5078TIP3   OH215239   2.515   1.047   3.323
 5078TIP3    H115240   2.523   1.034   3.418
 5078TIP3    H215241   2.450   1.117   3.314
 5079TIP3   OH215242   4.434   1.363   3.487
 5079TIP3    H115243   4.528   1.384   3.491
 5079TIP3    H215244   4.429   1.273   3.522
 5080TIP3   OH215245   5.792   4.296   5.130
 5080TIP3    H115246   5.798   4.311   5.225
 5080TIP3    H215247   5.770   4.381   5.093
 5081TIP3   OH215248   6.191   2.835   2.418
 5081TIP3    H115249   6.261   2.772   2.436
 5081TIP3    H215250   6.202   2.902   2.486
 5082TIP3   OH215251   3.251   0.031   1.730
 5082TIP3    H115252   3.249  -0.065   1.732
 5082TIP3    H215253   3.324   0.054   1.787
 5083TIP3   OH215254   6.117   1.164   4.957
 5083TIP3    H115255   6.193   1.107   4.968
 5083TIP3    H215256   6.058   1.138   5.027
 5084TIP3   OH215257   2.861   2.672   3.127
 5084TIP3    H115258   2.938   2.632   3.087
 5084TIP3    H215259   2.897   2.733   3.192
 5085TIP3   OH215260   0.620   0.546   4.260
 5085TIP3    H115261   0.596   0.578   4.173
 5085TIP3    H215262   0.711   0.573   4.271
 5086TIP3   OH215263   4.239   0.846   3.724
 5086TIP3    H115264   4.304   0.784   3.690
 5086TIP3    H215265   4.156   0.800   3.716
 5087TIP3   OH215266   1.968   0.373   2.860
 5087TIP3    H115267   1.994   0.431   2.788
 5087TIP3    H215268   1.895   0.418   2.901
 5088TIP3   OH215269   5.797   4.040   0.888
 5088TIP3    H115270   5.839   4.124   0.875
 5088TIP3    H215271   5.802   3.997   0.802
 5089TIP3   OH215272   2.165   2.363   2.877
 5089TIP3    H115273   2.107   2.438   2.885
 5089TIP3    H215274   2.201   2.350   2.964
 5090TIP3   OH215275   0.107   0.426   5.027
 5090TIP3    H115276   0.139   0.500   5.078
 5090TIP3    H215277   0.184   0.393   4.981
 5091TIP3   OH215278   5.957   3.199   0.760
 5091TIP3    H115279   5.913   3.277   0.726
 5091TIP3    H215280   5.903   3.170   0.833
 5092TIP3   OH215281   0.192   2.044   3.551
 5092TIP3    H115282   0.119   2.106   3.552
 5092TIP3    H215283   0.269   2.099   3.565
 5093TIP3   OH215284   3.363   0.920   2.440
 5093TIP3    H115285   3.388   0.985   2.505
 5093TIP3    H215286   3.313   0.969   2.375
 5094TIP3   OH215287   1.255   0.905   3.801
 5094TIP3    H115288   1.211   0.952   3.730
 5094TIP3    H215289   1.346   0.932   3.795
 5095TIP3   OH215290   6.029   3.542   2.490
 5095TIP3    H115291   6.079   3.476   2.538
 5095TIP3    H215292   5.938   3.513   2.498
 5096TIP3   OH215293   3.107   4.011   3.037
 5096TIP3    H115294   3.041   3.999   3.106
 5096TIP3    H215295   3.123   4.105   3.035
 5097TIP3   OH215296   0.780   5.462   2.422
 5097TIP3    H115297   0.729   5.419   2.354
 5097TIP3    H215298   0.847   5.398   2.446
 5098TIP3   OH215299   3.912   1.583   3.074
 5098TIP3    H115300   3.974   1.574   3.147
 5098TIP3    H215301   3.898   1.493   3.045
 5099TIP3   OH215302   1.022   0.383   4.025
 5099TIP3    H115303   1.072   0.303   4.016
 5099TIP3    H215304   1.022   0.401   4.120
 5100TIP3   OH215305   4.231   4.641   0.847
 5100TIP3    H115306   4.137   4.658   0.856
 5100TIP3    H215307   4.237   4.553   0.810
 5101TIP3   OH215308   2.552   3.697   1.472
 5101TIP3    H115309   2.498   3.760   1.520
 5101TIP3    H215310   2.627   3.681   1.530
 5102TIP3   OH215311   3.419   1.171   3.610
 5102TIP3    H115312   3.325   1.184   3.595
 5102TIP3    H215313   3.458   1.184   3.524
 5103TIP3   OH215314   2.472   3.222   1.972
 5103TIP3    H115315   2.488   3.251   2.061
 5103TIP3    H215316   2.540   3.265   1.920
 5104TIP3   OH215317   4.821   0.728   2.515
 5104TIP3    H115318   4.747   0.712   2.573
 5104TIP3    H215319   4.781   0.738   2.428
 5105TIP3   OH215320   3.133   1.698   1.114
 5105TIP3    H115321   3.070   1.644   1.162
 5105TIP3    H215322   3.104   1.788   1.129
 5106TIP3   OH215323   4.500   1.624   1.346
 5106TIP3    H115324   4.471   1.625   1.255
 5106TIP3    H215325   4.452   1.696   1.387
 5107TIP3   OH215326   3.483   4.323   4.471
 5107TIP3    H115327   3.524   4.402   4.508
 5107TIP3    H215328   3.542   4.297   4.399
 5108TIP3   OH215329   0.645   0.342   0.817
 5108TIP3    H115330   0.698   0.302   0.747
 5108TIP3    H215331   0.568   0.285   0.824
 5109TIP3   OH215332   4.160   4.555   4.031
 5109TIP3    H115333   4.076   4.511   4.045
 5109TIP3    H215334   4.211   4.532   4.108
 5110TIP3   OH215335   1.319   4.383   3.319
 5110TIP3    H115336   1.299   4.294   3.348
 5110TIP3    H215337   1.255   4.438   3.364
 5111TIP3   OH215338   1.098   3.385   3.183
 5111TIP3    H115339   1.156   3.447   3.139
 5111TIP3    H215340   1.155   3.311   3.205
 5112TIP3   OH215341   3.788   0.598   2.848
 5112TIP3    H115342   3.775   0.692   2.853
 5112TIP3    H215343   3.768   0.575   2.757
 5113TIP3   OH215344   1.887   3.320   1.626
 5113TIP3    H115345   1.871   3.280   1.540
 5113TIP3    H215346   1.940   3.397   1.606
 5114TIP3   OH215347   4.785   5.775   2.247
 5114TIP3    H115348   4.721   5.784   2.176
 5114TIP3    H215349   4.849   5.843   2.230
 5115TIP3   OH215350   1.486   4.788   2.759
 5115TIP3    H115351   1.499   4.744   2.843
 5115TIP3    H215352   1.545   4.743   2.699
 5116TIP3   OH215353   3.100   1.741   0.635
 5116TIP3    H115354   3.116   1.673   0.570
 5116TIP3    H215355   3.170   1.730   0.700
 5117TIP3   OH215356   3.945   1.865   4.142
 5117TIP3    H115357   3.966   1.843   4.052
 5117TIP3    H215358   3.958   1.960   4.147
 5118TIP3   OH215359   4.511   5.868   4.385
 5118TIP3    H115360   4.507   5.963   4.398
 5118TIP3    H215361   4.576   5.837   4.449
 5119TIP3   OH215362   1.769   4.166   5.108
 5119TIP3    H115363   1.733   4.183   5.195
 5119TIP3    H215364   1.836   4.099   5.122
 5120TIP3   OH215365   3.279   3.159   1.714
 5120TIP3    H115366   3.329   3.178   1.634
 5120TIP3    H215367   3.286   3.239   1.766
 5121TIP3   OH215368   4.467   5.139   4.650
 5121TIP3    H115369   4.460   5.234   4.653
 5121TIP3    H215370   4.428   5.114   4.566
 5122TIP3   OH215371   2.160   1.554   3.821
 5122TIP3    H115372   2.101   1.625   3.847
 5122TIP3    H215373   2.230   1.557   3.886
 5123TIP3   OH215374   6.148   5.158   2.555
 5123TIP3    H115375   6.209   5.170   2.629
 5123TIP3    H215376   6.083   5.097   2.589
 5124TIP3   OH215377   1.692   4.037   4.737
 5124TIP3    H115378   1.767   4.048   4.678
 5124TIP3    H215379   1.698   3.946   4.766
 5125TIP3   OH215380   0.430   1.682   2.620
 5125TIP3    H115381   0.496   1.715   2.681
 5125TIP3    H215382   0.478   1.622   2.563
 5126TIP3   OH215383   0.425   3.198   1.462
 5126TIP3    H115384   0.357   3.175   1.526
 5126TIP3    H215385   0.426   3.124   1.402
 5127TIP3   OH215386   5.406   1.532   4.747
 5127TIP3    H115387   5.461   1.581   4.808
 5127TIP3    H215388   5.457   1.531   4.666
 5128TIP3   OH215389   3.311   3.244   4.536
 5128TIP3    H115390   3.226   3.233   4.492
 5128TIP3    H215391   3.321   3.338   4.544
 5129TIP3   OH215392   2.338   5.625   0.265
 5129TIP3    H115393   2.396   5.664   0.200
 5129TIP3    H215394   2.334   5.532   0.242
 5130TIP3   OH215395   1.497   5.288   5.094
 5130TIP3    H115396   1.502   5.241   5.011
 5130TIP3    H215397   1.575   5.260   5.142
 5131TIP3   OH215398   4.404   1.503   3.001
 5131TIP3    H115399   4.327   1.558   2.994
 5131TIP3    H215400   4.443   1.503   2.913
 5132TIP3   OH215401   2.448   3.874   4.259
 5132TIP3    H115402   2.385   3.880   4.187
 5132TIP3    H215403   2.395   3.883   4.338
 5133TIP3   OH215404   4.940   5.217   1.553
 5133TIP3    H115405   4.981   5.167   1.483
 5133TIP3    H215406   4.920   5.302   1.513
 5134TIP3   OH215407   4.801   5.834   1.164
 5134TIP3    H115408   4.722   5.787   1.137
 5134TIP3    H215409   4.817   5.896   1.092
 5135TIP3   OH215410   1.878   1.125   4.223
 5135TIP3    H115411   1.950   1.174   4.262
 5135TIP3    H215412   1.800   1.177   4.241
 5136TIP3   OH215413   1.146   4.631   4.317
 5136TIP3    H115414   1.056   4.652   4.295
 5136TIP3    H215415   1.172   4.697   4.381
 5137TIP3   OH215416   3.455   2.319   2.170
 5137TIP3    H115417   3.367   2.305   2.134
 5137TIP3    H215418   3.442   2.379   2.243
 5138TIP3   OH215419   3.489   4.985   3.181
 5138TIP3    H115420   3.524   5.065   3.221
 5138TIP3    H215421   3.541   4.973   3.102
 5139TIP3   OH215422   2.243   1.713   4.595
 5139TIP3    H115423   2.187   1.766   4.652
 5139TIP3    H215424   2.230   1.751   4.508
 5140TIP3   OH215425   4.815   0.180   0.885
 5140TIP3    H115426   4.894   0.162   0.935
 5140TIP3    H215427   4.743   0.157   0.945
 5141TIP3   OH215428   0.198   0.023   2.248
 5141TIP3    H115429   0.238  -0.054   2.209
 5141TIP3    H215430   0.160   0.071   2.173
 5142TIP3   OH215431   0.870   2.743   4.427
 5142TIP3    H115432   0.953   2.791   4.433
 5142TIP3    H215433   0.803   2.811   4.419
 5143TIP3   OH215434   0.267   4.191   4.391
 5143TIP3    H115435   0.276   4.196   4.487
 5143TIP3    H215436   0.357   4.187   4.359
 5144TIP3   OH215437   0.524   1.028   1.053
 5144TIP3    H115438   0.462   0.964   1.020
 5144TIP3    H215439   0.508   1.107   1.001
 5145TIP3   OH215440   1.923   4.229   4.697
 5145TIP3    H115441   1.879   4.313   4.710
 5145TIP3    H215442   1.983   4.221   4.771
 5146TIP3   OH215443   2.454   2.320   1.453
 5146TIP3    H115444   2.395   2.257   1.495
 5146TIP3    H215445   2.396   2.385   1.414
 5147TIP3   OH215446   2.900   4.991   4.309
 5147TIP3    H115447   2.967   4.934   4.271
 5147TIP3    H215448   2.862   4.939   4.380
 5148TIP3   OH215449   3.634   1.603   1.798
 5148TIP3    H115450   3.614   1.534   1.735
 5148TIP3    H215451   3.552   1.652   1.805
 5149TIP3   OH215452   6.113   3.048   4.201
 5149TIP3    H115453   6.094   3.116   4.137
 5149TIP3    H215454   6.137   3.096   4.281
 5150TIP3   OH215455   4.804   0.386   1.890
 5150TIP3    H115456   4.852   0.357   1.813
 5150TIP3    H215457   4.796   0.308   1.945
 5151TIP3   OH215458   1.083   4.640   3.888
 5151TIP3    H115459   1.151   4.705   3.905
 5151TIP3    H215460   1.001   4.688   3.900
 5152TIP3   OH215461   5.955   4.202   4.871
 5152TIP3    H115462   5.911   4.213   4.955
 5152TIP3    H215463   5.997   4.286   4.854
 5153TIP3   OH215464   2.811   1.730   1.744
 5153TIP3    H115465   2.843   1.646   1.777
 5153TIP3    H215466   2.724   1.710   1.709
 5154TIP3   OH215467   2.917   1.937   0.667
 5154TIP3    H115468   2.987   1.871   0.671
 5154TIP3    H215469   2.881   1.940   0.755
 5155TIP3   OH215470   4.265   1.111   2.156
 5155TIP3    H115471   4.199   1.126   2.088
 5155TIP3    H215472   4.284   1.017   2.151
 5156TIP3   OH215473   4.157   0.421   3.465
 5156TIP3    H115474   4.118   0.335   3.454
 5156TIP3    H215475   4.203   0.438   3.383
 5157TIP3   OH215476   0.814   0.047   3.352
 5157TIP3    H115477   0.723   0.021   3.338
 5157TIP3    H215478   0.818   0.136   3.316
 5158TIP3   OH215479   2.398   3.505   4.970
 5158TIP3    H115480   2.369   3.432   5.024
 5158TIP3    H215481   2.475   3.471   4.924
 5159TIP3   OH215482   5.950   1.131   1.568
 5159TIP3    H115483   5.933   1.116   1.474
 5159TIP3    H215484   5.942   1.044   1.607
 5160TIP3   OH215485   4.205   2.122   1.630
 5160TIP3    H115486   4.290   2.140   1.669
 5160TIP3    H215487   4.199   2.027   1.629
 5161TIP3   OH215488   5.490   4.118   5.108
 5161TIP3    H115489   5.512   4.025   5.105
 5161TIP3    H215490   5.430   4.126   5.182
 5162TIP3   OH215491   5.013   3.089   4.872
 5162TIP3    H115492   5.022   3.175   4.831
 5162TIP3    H215493   4.961   3.038   4.810
 5163TIP3   OH215494   0.989   3.763   4.424
 5163TIP3    H115495   0.909   3.731   4.466
 5163TIP3    H215496   0.972   3.756   4.331
 5164TIP3   OH215497   4.060   5.690   1.843
 5164TIP3    H115498   4.114   5.754   1.890
 5164TIP3    H215499   4.124   5.638   1.794
 5165TIP3   OH215500   3.578   4.548   1.567
 5165TIP3    H115501   3.612   4.628   1.527
 5165TIP3    H215502   3.484   4.562   1.572
 5166TIP3   OH215503   5.387   5.984   0.063
 5166TIP3    H115504   5.339   6.055   0.107
 5166TIP3    H215505   5.321   5.919   0.042
 5167TIP3   OH215506   3.695   4.497   2.618
 5167TIP3    H115507   3.613   4.480   2.572
 5167TIP3    H215508   3.674   4.483   2.710
 5168TIP3   OH215509   6.114   0.661   1.589
 5168TIP3    H115510   6.182   0.616   1.539
 5168TIP3    H215511   6.102   0.607   1.668
 5169TIP3   OH215512   1.922   2.385   1.844
 5169TIP3    H115513   1.946   2.322   1.777
 5169TIP3    H215514   1.826   2.387   1.843
 5170TIP3   OH215515   4.842   1.176   1.862
 5170TIP3    H115516   4.854   1.215   1.776
 5170TIP3    H215517   4.811   1.087   1.845
 5171TIP3   OH215518   3.720   4.821   2.878
 5171TIP3    H115519   3.714   4.809   2.783
 5171TIP3    H215520   3.770   4.745   2.909
 5172TIP3   OH215521   0.722   0.759   3.413
 5172TIP3    H115522   0.715   0.788   3.504
 5172TIP3    H215523   0.641   0.710   3.397
 5173TIP3   OH215524   4.976   5.562   0.456
 5173TIP3    H115525   4.958   5.604   0.372
 5173TIP3    H215526   5.055   5.510   0.440
 5174TIP3   OH215527   3.426   0.122   4.990
 5174TIP3    H115528   3.415   0.028   4.973
 5174TIP3    H215529   3.358   0.164   4.938
 5175TIP3   OH215530   6.090   5.273   2.029
 5175TIP3    H115531   6.161   5.314   1.979
 5175TIP3    H215532   6.130   5.248   2.112
 5176TIP3   OH215533   0.890   0.402   1.640
 5176TIP3    H115534   0.810   0.452   1.629
 5176TIP3    H215535   0.933   0.442   1.715
 5177TIP3   OH215536   3.933   1.449   4.021
 5177TIP3    H115537   3.911   1.374   4.076
 5177TIP3    H215538   3.995   1.499   4.074
 5178TIP3   OH215539   0.526   3.670   4.749
 5178TIP3    H115540   0.499   3.691   4.839
 5178TIP3    H215541   0.456   3.706   4.694
 5179TIP3   OH215542   5.479   3.032   3.517
 5179TIP3    H115543   5.408   3.095   3.531
 5179TIP3    H215544   5.555   3.086   3.495
 5180TIP3   OH215545   0.480   5.787   3.204
 5180TIP3    H115546   0.525   5.735   3.137
 5180TIP3    H215547   0.441   5.860   3.156
 5181TIP3   OH215548   0.053   1.657   0.370
 5181TIP3    H115549   0.132   1.633   0.418
 5181TIP3    H215550   0.013   1.727   0.421
 5182TIP3   OH215551   3.154   5.951   1.691
 5182TIP3    H115552   3.109   6.031   1.665
 5182TIP3    H215553   3.232   5.948   1.637
 5183TIP3   OH215554   5.071   4.095   2.982
 5183TIP3    H115555   5.020   4.029   3.028
 5183TIP3    H215556   5.137   4.046   2.934
 5184TIP3   OH215557   3.482   2.831   0.434
 5184TIP3    H115558   3.410   2.823   0.497
 5184TIP3    H215559   3.481   2.749   0.385
 5185TIP3   OH215560   4.513   3.404   0.507
 5185TIP3    H115561   4.438   3.359   0.470
 5185TIP3    H215562   4.570   3.334   0.540
 5186TIP3   OH215563   0.700   1.286   2.206
 5186TIP3    H115564   0.773   1.309   2.264
 5186TIP3    H215565   0.707   1.191   2.195
 5187TIP3   OH215566   1.185   0.206   3.589
 5187TIP3    H115567   1.152   0.281   3.639
 5187TIP3    H215568   1.171   0.131   3.646
 5188TIP3   OH215569   2.260   2.630   2.751
 5188TIP3    H115570   2.287   2.618   2.842
 5188TIP3    H215571   2.280   2.546   2.709
 5189TIP3   OH215572   2.314   3.580   4.318
 5189TIP3    H115573   2.324   3.668   4.355
 5189TIP3    H215574   2.227   3.552   4.346
 5190TIP3   OH215575   0.554   4.742   4.463
 5190TIP3    H115576   0.605   4.738   4.382
 5190TIP3    H215577   0.470   4.779   4.436
 5191TIP3   OH215578   5.318   0.454   2.270
 5191TIP3    H115579   5.334   0.548   2.257
 5191TIP3    H215580   5.243   0.435   2.214
 5192TIP3   OH215581   1.362   3.810   3.451
 5192TIP3    H115582   1.434   3.873   3.443
 5192TIP3    H215583   1.328   3.800   3.362
 5193TIP3   OH215584   1.513   5.018   2.538
 5193TIP3    H115585   1.567   4.958   2.487
 5193TIP3    H215586   1.574   5.087   2.565
 5194TIP3   OH215587   4.540   3.906   3.045
 5194TIP3    H115588   4.613   3.926   2.987
 5194TIP3    H215589   4.560   3.819   3.080
 5195TIP3   OH215590   1.109   5.068   2.027
 5195TIP3    H115591   1.023   5.038   1.998
 5195TIP3    H215592   1.124   5.150   1.980
 5196TIP3   OH215593   5.426   4.298   0.262
 5196TIP3    H115594   5.429   4.375   0.205
 5196TIP3    H215595   5.510   4.254   0.248
 5197TIP3   OH215596   1.107  -0.006   3.108
 5197TIP3    H115597   1.139   0.029   3.191
 5197TIP3    H215598   1.012  -0.001   3.115
 5198TIP3   OH215599   3.526   3.180   4.721
 5198TIP3    H115600   3.432   3.168   4.704
 5198TIP3    H215601   3.531   3.200   4.815
 5199TIP3   OH215602   1.320   1.788   2.126
 5199TIP3    H115603   1.300   1.717   2.065
 5199TIP3    H215604   1.360   1.745   2.202
 5200TIP3   OH215605   0.159   1.572   0.056
 5200TIP3    H115606   0.151   1.517  -0.022
 5200TIP3    H215607   0.166   1.510   0.129
 5201TIP3   OH215608   3.703   2.666   2.100
 5201TIP3    H115609   3.624   2.612   2.104
 5201TIP3    H215610   3.771   2.613   2.141
 5202TIP3   OH215611   5.586   5.668   3.880
 5202TIP3    H115612   5.615   5.726   3.810
 5202TIP3    H215613   5.521   5.719   3.928
 5203TIP3   OH215614   4.926   4.035   0.586
 5203TIP3    H115615   4.921   4.060   0.679
 5203TIP3    H215616   4.834   4.027   0.560
 5204TIP3   OH215617   0.084   1.124   0.405
 5204TIP3    H115618   0.036   1.048   0.436
 5204TIP3    H215619   0.027   1.199   0.425
 5205TIP3   OH215620   4.843   1.365   3.871
 5205TIP3    H115621   4.860   1.302   3.801
 5205TIP3    H215622   4.748   1.360   3.884
 5206TIP3   OH215623   6.086   3.161   1.123
 5206TIP3    H115624   6.005   3.195   1.162
 5206TIP3    H215625   6.093   3.072   1.156
 5207TIP3   OH215626   5.021   5.631   1.340
 5207TIP3    H115627   5.095   5.645   1.399
 5207TIP3    H215628   4.954   5.693   1.369
 5208TIP3   OH215629   3.289   1.054   4.635
 5208TIP3    H115630   3.236   1.134   4.632
 5208TIP3    H215631   3.229   0.987   4.671
 5209TIP3   OH215632   3.317   0.460   1.288
 5209TIP3    H115633   3.385   0.404   1.252
 5209TIP3    H215634   3.348   0.549   1.273
 5210TIP3   OH215635   3.680   4.932   4.497
 5210TIP3    H115636   3.764   4.949   4.453
 5210TIP3    H215637   3.623   4.898   4.427
 5211TIP3   OH215638   3.455   4.534   3.549
 5211TIP3    H115639   3.433   4.579   3.468
 5211TIP3    H215640   3.551   4.539   3.553
 5212TIP3   OH215641   4.669   5.723   3.902
 5212TIP3    H115642   4.663   5.640   3.950
 5212TIP3    H215643   4.638   5.789   3.965
 5213TIP3   OH215644   2.364   4.724   1.829
 5213TIP3    H115645   2.375   4.819   1.839
 5213TIP3    H215646   2.432   4.686   1.885
 5214TIP3   OH215647   6.281   0.604   2.429
 5214TIP3    H115648   6.233   0.663   2.488
 5214TIP3    H215649   6.350   0.566   2.483
 5215TIP3   OH215650   4.721   2.523   1.865
 5215TIP3    H115651   4.728   2.449   1.805
 5215TIP3    H215652   4.670   2.489   1.939
 5216TIP3   OH215653   1.649   3.927   4.120
 5216TIP3    H115654   1.691   3.856   4.169
 5216TIP3    H215655   1.721   3.984   4.094
 5217TIP3   OH215656   1.773   0.402   1.908
 5217TIP3    H115657   1.755   0.486   1.949
 5217TIP3    H215658   1.734   0.337   1.966
 5218TIP3   OH215659   2.369   0.436   2.149
 5218TIP3    H115660   2.384   0.530   2.151
 5218TIP3    H215661   2.298   0.425   2.085
 5219TIP3   OH215662   4.613   1.907   1.517
 5219TIP3    H115663   4.629   1.998   1.490
 5219TIP3    H215664   4.521   1.893   1.499
 5220TIP3   OH215665   4.712   0.603   4.770
 5220TIP3    H115666   4.784   0.541   4.757
 5220TIP3    H215667   4.634   0.548   4.770
 5221TIP3   OH215668   1.341   2.881   4.240
 5221TIP3    H115669   1.248   2.863   4.227
 5221TIP3    H215670   1.353   2.970   4.207
 5222TIP3   OH215671   5.688   2.260   5.148
 5222TIP3    H115672   5.769   2.251   5.197
 5222TIP3    H215673   5.657   2.171   5.135
 5223TIP3   OH215674   0.661   2.729   1.927
 5223TIP3    H115675   0.653   2.744   2.021
 5223TIP3    H215676   0.693   2.812   1.892
 5224TIP3   OH215677   3.954   3.848   2.215
 5224TIP3    H115678   3.988   3.938   2.223
 5224TIP3    H215679   3.870   3.851   2.260
 5225TIP3   OH215680   2.267   0.537   0.124
 5225TIP3    H115681   2.315   0.463   0.087
 5225TIP3    H215682   2.175   0.510   0.122
 5226TIP3   OH215683   6.212   4.620   4.902
 5226TIP3    H115684   6.258   4.548   4.944
 5226TIP3    H215685   6.240   4.698   4.950
 5227TIP3   OH215686   5.238   3.649   1.714
 5227TIP3    H115687   5.190   3.586   1.769
 5227TIP3    H215688   5.316   3.601   1.686
 5228TIP3   OH215689   1.035  -0.006   1.714
 5228TIP3    H115690   1.117  -0.039   1.677
 5228TIP3    H215691   1.054   0.085   1.735
 5229TIP3   OH215692   2.032   5.976   4.751
 5229TIP3    H115693   1.943   6.006   4.735
 5229TIP3    H215694   2.026   5.880   4.750
 5230TIP3   OH215695   0.792   3.000   4.595
 5230TIP3    H115696   0.798   2.955   4.680
 5230TIP3    H215697   0.699   2.997   4.573
 5231TIP3   OH215698   4.731   2.303   1.056
 5231TIP3    H115699   4.697   2.243   0.989
 5231TIP3    H215700   4.655   2.355   1.082
 5232TIP3   OH215701   4.878   1.567   1.866
 5232TIP3    H115702   4.949   1.510   1.896
 5232TIP3    H215703   4.853   1.531   1.781
 5233TIP3   OH215704   2.247   4.759   2.216
 5233TIP3    H115705   2.296   4.749   2.297
 5233TIP3    H215706   2.223   4.670   2.191
 5234TIP3   OH215707   5.240   2.284   0.625
 5234TIP3    H115708   5.182   2.210   0.606
 5234TIP3    H215709   5.219   2.309   0.715
 5235TIP3   OH215710   4.763   4.088   1.584
 5235TIP3    H115711   4.858   4.087   1.594
 5235TIP3    H215712   4.749   4.102   1.490
 5236TIP3   OH215713   3.600   4.041   3.584
 5236TIP3    H115714   3.684   4.083   3.569
 5236TIP3    H215715   3.542   4.112   3.611
 5237TIP3   OH215716   4.382   5.658   4.797
 5237TIP3    H115717   4.464   5.707   4.808
 5237TIP3    H215718   4.359   5.631   4.886
 5238TIP3   OH215719   4.624   1.136   4.560
 5238TIP3    H115720   4.584   1.106   4.478
 5238TIP3    H215721   4.658   1.057   4.601
 5239TIP3   OH215722   3.816   3.128   2.181
 5239TIP3    H115723   3.813   3.099   2.272
 5239TIP3    H215724   3.873   3.065   2.138
 5240TIP3   OH215725   6.041   4.934   3.785
 5240TIP3    H115726   5.988   4.859   3.758
 5240TIP3    H215727   6.109   4.896   3.841
 5241TIP3   OH215728   0.600   1.648   0.079
 5241TIP3    H115729   0.688   1.609   0.084
 5241TIP3    H215730   0.572   1.631  -0.010
 5242TIP3   OH215731   1.612   5.730   1.657
 5242TIP3    H115732   1.661   5.701   1.580
 5242TIP3    H215733   1.521   5.708   1.636
 5243TIP3   OH215734   3.322   0.756   0.302
 5243TIP3    H115735   3.227   0.742   0.310
 5243TIP3    H215736   3.358   0.668   0.294
 5244TIP3   OH215737   2.745   5.516   0.684
 5244TIP3    H115738   2.837   5.527   0.661
 5244TIP3    H215739   2.742   5.537   0.778
 5245TIP3   OH215740   2.753   3.449   1.397
 5245TIP3    H115741   2.769   3.401   1.316
 5245TIP3    H215742   2.677   3.405   1.436
 5246TIP3   OH215743   1.457   5.968   3.380
 5246TIP3    H115744   1.420   5.926   3.302
 5246TIP3    H215745   1.424   5.916   3.453
 5247TIP3   OH215746   0.091   1.236   4.817
 5247TIP3    H115747   0.098   1.146   4.784
 5247TIP3    H215748   0.036   1.281   4.752
 5248TIP3   OH215749   2.233   2.032   3.265
 5248TIP3    H115750   2.178   1.954   3.260
 5248TIP3    H215751   2.183   2.093   3.319
 5249TIP3   OH215752   5.580   3.289   3.496
 5249TIP3    H115753   5.623   3.326   3.574
 5249TIP3    H215754   5.518   3.356   3.469
 5250TIP3   OH215755   1.133   4.553   3.396
 5250TIP3    H115756   1.084   4.635   3.386
 5250TIP3    H215757   1.117   4.526   3.486
 5251TIP3   OH215758   1.795   4.522   0.145
 5251TIP3    H115759   1.796   4.524   0.241
 5251TIP3    H215760   1.837   4.440   0.122
 5252TIP3   OH215761   6.232   3.236   3.472
 5252TIP3    H115762   6.299   3.238   3.540
 5252TIP3    H215763   6.258   3.304   3.410
 5253TIP3   OH215764   6.037   2.019   2.108
 5253TIP3    H115765   6.029   2.089   2.044
 5253TIP3    H215766   6.063   1.943   2.057
 5254TIP3   OH215767   5.392   3.210   0.336
 5254TIP3    H115768   5.390   3.273   0.407
 5254TIP3    H215769   5.458   3.146   0.363
 5255TIP3   OH215770   2.342   5.210   2.813
 5255TIP3    H115771   2.350   5.184   2.905
 5255TIP3    H215772   2.387   5.294   2.808
 5256TIP3   OH215773   3.007   5.062   3.377
 5256TIP3    H115774   3.000   5.157   3.390
 5256TIP3    H215775   3.099   5.043   3.395
 5257TIP3   OH215776   2.852   2.221   4.054
 5257TIP3    H115777   2.876   2.156   4.120
 5257TIP3    H215778   2.758   2.209   4.041
 5258TIP3   OH215779   1.761   5.730   4.150
 5258TIP3    H115780   1.832   5.706   4.209
 5258TIP3    H215781   1.730   5.647   4.115
 5259TIP3   OH215782   2.901   5.590   1.824
 5259TIP3    H115783   2.896   5.625   1.736
 5259TIP3    H215784   2.915   5.667   1.880
 5260TIP3   OH215785   4.124   4.053   3.486
 5260TIP3    H115786   4.140   3.960   3.500
 5260TIP3    H215787   4.094   4.086   3.570
 5261TIP3   OH215788   2.301   2.160   2.166
 5261TIP3    H115789   2.324   2.166   2.258
 5261TIP3    H215790   2.205   2.169   2.165
 5262TIP3   OH215791   2.378   2.316   0.514
 5262TIP3    H115792   2.420   2.395   0.548
 5262TIP3    H215793   2.342   2.344   0.429
 5263TIP3   OH215794   2.810   4.095   2.294
 5263TIP3    H115795   2.751   4.024   2.272
 5263TIP3    H215796   2.822   4.142   2.211
 5264TIP3   OH215797   3.610   3.747   0.940
 5264TIP3    H115798   3.627   3.675   0.880
 5264TIP3    H215799   3.574   3.704   1.018
 5265TIP3   OH215800   5.106   2.915   2.276
 5265TIP3    H115801   5.084   2.830   2.315
 5265TIP3    H215802   5.191   2.936   2.314
 5266TIP3   OH215803   0.726   5.044   0.077
 5266TIP3    H115804   0.732   4.986   0.001
 5266TIP3    H215805   0.649   5.013   0.125
 5267TIP3   OH215806   4.927   5.754   3.666
 5267TIP3    H115807   4.964   5.783   3.749
 5267TIP3    H215808   4.833   5.772   3.674
 5268TIP3   OH215809   4.624   5.781   0.436
 5268TIP3    H115810   4.670   5.744   0.511
 5268TIP3    H215811   4.585   5.705   0.392
 5269TIP3   OH215812   0.481   1.055   3.380
 5269TIP3    H115813   0.468   1.139   3.424
 5269TIP3    H215814   0.392   1.022   3.364
 5270TIP3   OH215815   5.059   0.976   4.446
 5270TIP3    H115816   5.030   1.044   4.507
 5270TIP3    H215817   5.028   0.894   4.486
 5271TIP3   OH215818   4.238   3.023   1.192
 5271TIP3    H115819   4.148   3.053   1.177
 5271TIP3    H215820   4.232   2.969   1.271
 5272TIP3   OH215821   6.335   5.051   0.478
 5272TIP3    H115822   6.248   5.091   0.484
 5272TIP3    H215823   6.391   5.122   0.447
 5273TIP3   OH215824   4.043   1.388   1.042
 5273TIP3    H115825   4.133   1.357   1.034
 5273TIP3    H215826   4.011   1.392   0.952
 5274TIP3   OH215827   0.026   2.641   3.736
 5274TIP3    H115828   0.109   2.679   3.707
 5274TIP3    H215829   0.008   2.572   3.672
 5275TIP3   OH215830   0.825   1.901   4.047
 5275TIP3    H115831   0.736   1.866   4.036
 5275TIP3    H215832   0.842   1.950   3.967
 5276TIP3   OH215833   1.017   1.087   3.351
 5276TIP3    H115834   1.078   1.075   3.279
 5276TIP3    H215835   0.932   1.060   3.316
 5277TIP3   OH215836   5.868   5.063   3.565
 5277TIP3    H115837   5.898   5.135   3.620
 5277TIP3    H215838   5.932   5.060   3.493
 5278TIP3   OH215839   2.572   2.768   4.318
 5278TIP3    H115840   2.543   2.847   4.362
 5278TIP3    H215841   2.604   2.798   4.233
 5279TIP3   OH215842   0.559   2.652   2.779
 5279TIP3    H115843   0.590   2.605   2.702
 5279TIP3    H215844   0.597   2.739   2.771
 5280TIP3   OH215845   5.714   3.765   0.471
 5280TIP3    H115846   5.622   3.749   0.451
 5280TIP3    H215847   5.758   3.763   0.386
 5281TIP3   OH215848   5.944   0.984   4.023
 5281TIP3    H115849   5.918   1.066   4.066
 5281TIP3    H215850   5.951   1.006   3.930
 5282TIP3   OH215851   3.974   1.592   1.417
 5282TIP3    H115852   4.014   1.678   1.404
 5282TIP3    H215853   3.881   1.610   1.433
 5283TIP3   OH215854   6.102   5.875   2.155
 5283TIP3    H115855   6.059   5.822   2.088
 5283TIP3    H215856   6.044   5.949   2.169
 5284TIP3   OH215857   0.068   3.678   2.408
 5284TIP3    H115858   0.061   3.751   2.346
 5284TIP3    H215859   0.036   3.602   2.359
 5285TIP3   OH215860   3.638   0.838   3.981
 5285TIP3    H115861   3.582   0.847   4.058
 5285TIP3    H215862   3.605   0.904   3.919
 5286TIP3   OH215863   0.470   5.217   3.196
 5286TIP3    H115864   0.454   5.266   3.116
 5286TIP3    H215865   0.426   5.268   3.264
 5287TIP3   OH215866   2.968   1.556   3.856
 5287TIP3    H115867   2.897   1.500   3.887
 5287TIP3    H215868   2.948   1.642   3.893
 5288TIP3   OH215869   0.399   4.296   4.641
 5288TIP3    H115870   0.487   4.258   4.647
 5288TIP3    H215871   0.351   4.256   4.714
 5289TIP3   OH215872   5.343   0.935   2.932
 5289TIP3    H115873   5.252   0.958   2.949
 5289TIP3    H215874   5.339   0.867   2.865
 5290TIP3   OH215875   4.060   5.217   0.746
 5290TIP3    H115876   4.101   5.196   0.662
 5290TIP3    H215877   4.128   5.199   0.811
 5291TIP3   OH215878   5.451   1.755   2.404
 5291TIP3    H115879   5.427   1.708   2.324
 5291TIP3    H215880   5.435   1.847   2.384
 5292TIP3   OH215881   1.453   3.310   3.763
 5292TIP3    H115882   1.490   3.332   3.848
 5292TIP3    H215883   1.434   3.394   3.722
 5293TIP3   OH215884   5.804   3.684   1.574
 5293TIP3    H115885   5.787   3.727   1.490
 5293TIP3    H215886   5.893   3.649   1.564
 5294TIP3   OH215887   4.703   1.517   3.572
 5294TIP3    H115888   4.717   1.442   3.631
 5294TIP3    H215889   4.686   1.590   3.631
 5295TIP3   OH215890   5.468   0.721   3.946
 5295TIP3    H115891   5.493   0.774   3.871
 5295TIP3    H215892   5.510   0.636   3.931
 5296TIP3   OH215893   2.490   1.281   5.046
 5296TIP3    H115894   2.420   1.245   5.101
 5296TIP3    H215895   2.521   1.358   5.094
 5297TIP3   OH215896   3.128   1.145   1.644
 5297TIP3    H115897   3.120   1.225   1.698
 5297TIP3    H215898   3.191   1.091   1.691
 5298TIP3   OH215899   2.540   3.064   1.278
 5298TIP3    H115900   2.527   3.087   1.370
 5298TIP3    H215901   2.507   2.974   1.271
 5299TIP3   OH215902   2.965   1.217   2.119
 5299TIP3    H115903   2.943   1.180   2.034
 5299TIP3    H215904   2.963   1.142   2.179
 5300TIP3   OH215905   2.342   4.432   2.457
 5300TIP3    H115906   2.274   4.458   2.519
 5300TIP3    H215907   2.411   4.498   2.469
 5301TIP3   OH215908   0.288   2.892   4.313
 5301TIP3    H115909   0.206   2.843   4.309
 5301TIP3    H215910   0.344   2.840   4.371
 5302TIP3   OH215911   5.244   1.379   1.451
 5302TIP3    H115912   5.334   1.351   1.468
 5302TIP3    H215913   5.251   1.473   1.434
 5303TIP3   OH215914   0.985   2.963   4.200
 5303TIP3    H115915   0.929   3.040   4.208
 5303TIP3    H215916   0.938   2.905   4.141
 5304TIP3   OH215917   0.502   2.507   3.978
 5304TIP3    H115918   0.494   2.506   3.883
 5304TIP3    H215919   0.526   2.597   4.000
 5305TIP3   OH215920   1.343   3.376   2.958
 5305TIP3    H115921   1.428   3.358   2.999
 5305TIP3    H215922   1.363   3.394   2.866
 5306TIP3   OH215923   0.338   2.178   1.207
 5306TIP3    H115924   0.345   2.247   1.141
 5306TIP3    H215925   0.317   2.224   1.288
 5307TIP3   OH215926   0.667   4.632   4.179
 5307TIP3    H115927   0.602   4.671   4.120
 5307TIP3    H215928   0.699   4.556   4.130
 5308TIP3   OH215929   5.107   2.516   3.011
 5308TIP3    H115930   5.091   2.609   2.995
 5308TIP3    H215931   5.103   2.476   2.924
 5309TIP3   OH215932   5.243   4.476   1.440
 5309TIP3    H115933   5.281   4.547   1.389
 5309TIP3    H215934   5.297   4.400   1.421
 5310TIP3   OH215935   1.770   0.333   0.902
 5310TIP3    H115936   1.789   0.254   0.852
 5310TIP3    H215937   1.765   0.403   0.836
 5311TIP3   OH215938   0.103   3.254   3.170
 5311TIP3    H115939   0.134   3.314   3.237
 5311TIP3    H215940   0.139   3.289   3.088
 5312TIP3   OH215941   3.096   5.267   4.596
 5312TIP3    H115942   3.124   5.277   4.505
 5312TIP3    H215943   3.128   5.346   4.640
 5313TIP3   OH215944   0.344   1.628   0.801
 5313TIP3    H115945   0.386   1.711   0.826
 5313TIP3    H215946   0.282   1.611   0.872
 5314TIP3   OH215947   0.183   5.319   4.060
 5314TIP3    H115948   0.153   5.285   4.144
 5314TIP3    H215949   0.259   5.373   4.082
 5315TIP3   OH215950   1.309   0.666   0.882
 5315TIP3    H115951   1.337   0.621   0.803
 5315TIP3    H215952   1.265   0.745   0.851
 5316TIP3   OH215953   1.300   4.271   3.765
 5316TIP3    H115954   1.367   4.310   3.710
 5316TIP3    H215955   1.339   4.269   3.853
 5317TIP3   OH215956   0.474   4.071   1.383
 5317TIP3    H115957   0.451   4.005   1.318
 5317TIP3    H215958   0.396   4.126   1.389
 5318TIP3   OH215959   2.888   5.875   3.403
 5318TIP3    H115960   2.895   5.782   3.381
 5318TIP3    H215961   2.885   5.878   3.498
 5319TIP3   OH215962   3.708   1.194   3.167
 5319TIP3    H115963   3.736   1.167   3.080
 5319TIP3    H215964   3.757   1.137   3.227
 5320TIP3   OH215965   0.134   2.106   2.604
 5320TIP3    H115966   0.221   2.067   2.594
 5320TIP3    H215967   0.100   2.110   2.514
 5321TIP3   OH215968   4.658   1.015   3.916
 5321TIP3    H115969   4.622   1.100   3.889
 5321TIP3    H215970   4.583   0.955   3.911
 5322TIP3   OH215971   5.699   4.426   0.996
 5322TIP3    H115972   5.615   4.430   0.951
 5322TIP3    H215973   5.734   4.515   0.992
 5323TIP3   OH215974   3.010   3.282   1.605
 5323TIP3    H115975   2.917   3.264   1.598
 5323TIP3    H215976   3.040   3.224   1.675
 5324TIP3   OH215977   4.941   3.973   4.380
 5324TIP3    H115978   4.893   4.004   4.456
 5324TIP3    H215979   5.019   3.932   4.416
 5325TIP3   OH215980   0.277   0.922   3.245
 5325TIP3    H115981   0.232   0.886   3.169
 5325TIP3    H215982   0.208   0.936   3.310
 5326TIP3   OH215983   6.251   1.891   2.529
 5326TIP3    H115984   6.336   1.856   2.555
 5326TIP3    H215985   6.266   1.926   2.441
 5327TIP3   OH215986   1.048   1.892   4.208
 5327TIP3    H115987   0.962   1.900   4.166
 5327TIP3    H215988   1.027   1.878   4.300
 5328TIP3   OH215989   0.953   2.586   4.870
 5328TIP3    H115990   0.872   2.628   4.842
 5328TIP3    H215991   0.930   2.541   4.951
 5329TIP3   OH215992   6.039   0.033   1.747
 5329TIP3    H115993   5.957   0.075   1.773
 5329TIP3    H215994   6.099   0.052   1.819
 5330TIP3   OH215995   1.628   2.686   1.451
 5330TIP3    H115996   1.693   2.752   1.474
 5330TIP3    H215997   1.560   2.696   1.518
 5331TIP3   OH215998   1.559   5.078   3.884
 5331TIP3    H115999   1.562   5.064   3.978
 5331TIP3    H216000   1.651   5.086   3.858
 5332TIP3   OH216001   1.885   0.954   0.593
 5332TIP3    H116002   1.808   0.971   0.538
 5332TIP3    H216003   1.857   0.978   0.681
 5333TIP3   OH216004   1.303   4.964   4.886
 5333TIP3    H116005   1.310   5.019   4.808
 5333TIP3    H216006   1.216   4.982   4.920
 5334TIP3   OH216007   3.574   1.722   0.766
 5334TIP3    H116008   3.627   1.662   0.714
 5334TIP3    H216009   3.505   1.751   0.705
 5335TIP3   OH216010   5.895   0.383   0.070
 5335TIP3    H116011   5.835   0.310   0.050
 5335TIP3    H216012   5.896   0.388   0.165
 5336TIP3   OH216013   3.545   3.482   4.242
 5336TIP3    H116014   3.545   3.420   4.169
 5336TIP3    H216015   3.635   3.512   4.248
 5337TIP3   OH216016   5.215   2.433   3.605
 5337TIP3    H116017   5.195   2.500   3.670
 5337TIP3    H216018   5.157   2.453   3.531
 5338TIP3   OH216019   4.635   1.265   3.041
 5338TIP3    H116020   4.542   1.280   3.027
 5338TIP3    H216021   4.677   1.292   2.960
 5339TIP3   OH216022   6.131   2.079   1.825
 5339TIP3    H116023   6.225   2.071   1.840
 5339TIP3    H216024   6.123   2.153   1.764
 5340TIP3   OH216025   3.877   4.847   3.522
 5340TIP3    H116026   3.936   4.914   3.557
 5340TIP3    H216027   3.866   4.784   3.593
 5341TIP3   OH216028   6.197   4.550   4.311
 5341TIP3    H116029   6.191   4.602   4.392
 5341TIP3    H216030   6.252   4.476   4.335
 5342TIP3   OH216031   0.287   2.042   1.481
 5342TIP3    H116032   0.221   2.081   1.539
 5342TIP3    H216033   0.294   1.951   1.511
 5343TIP3   OH216034   5.445   5.141   2.853
 5343TIP3    H116035   5.490   5.062   2.823
 5343TIP3    H216036   5.379   5.157   2.785
 5344TIP3   OH216037   5.955   4.930   0.922
 5344TIP3    H116038   6.013   4.982   0.977
 5344TIP3    H216039   6.007   4.907   0.846
 5345TIP3   OH216040   0.239   4.031   3.509
 5345TIP3    H116041   0.169   4.038   3.574
 5345TIP3    H216042   0.319   4.022   3.561
 5346TIP3   OH216043  -0.018   2.835   1.728
 5346TIP3    H116044  -0.019   2.741   1.750
 5346TIP3    H216045   0.074   2.858   1.727
 5347TIP3   OH216046   0.157   0.969   2.367
 5347TIP3    H116047   0.087   0.909   2.393
 5347TIP3    H216048   0.129   1.002   2.282
 5348TIP3   OH216049   0.723   1.458   3.968
 5348TIP3    H116050   0.711   1.504   3.885
 5348TIP3    H216051   0.763   1.524   4.026
 5349TIP3   OH216052   2.296   1.153   1.168
 5349TIP3    H116053   2.344   1.090   1.221
 5349TIP3    H216054   2.277   1.226   1.227
 5350TIP3   OH216055   1.955   4.395   2.691
 5350TIP3    H116056   2.001   4.478   2.675
 5350TIP3    H216057   1.865   4.421   2.712
 5351TIP3   OH216058   0.250   2.759   3.609
 5351TIP3    H116059   0.316   2.809   3.657
 5351TIP3    H216060   0.184   2.824   3.584
 5352TIP3   OH216061   0.068   1.275   5.086
 5352TIP3    H116062   0.104   1.186   5.092
 5352TIP3    H216063   0.055   1.289   4.992
 5353TIP3   OH216064   5.742   3.893   3.672
 5353TIP3    H116065   5.689   3.817   3.696
 5353TIP3    H216066   5.785   3.919   3.753
 5354TIP3   OH216067   2.577   4.307   1.451
 5354TIP3    H116068   2.487   4.275   1.447
 5354TIP3    H216069   2.574   4.378   1.515
 5355TIP3   OH216070   3.267   1.145   4.010
 5355TIP3    H116071   3.284   1.065   3.961
 5355TIP3    H216072   3.204   1.194   3.957
 5356TIP3   OH216073   3.120   0.823   4.352
 5356TIP3    H116074   3.156   0.747   4.396
 5356TIP3    H216075   3.194   0.882   4.340
 5357TIP3   OH216076   2.940   1.086   4.482
 5357TIP3    H116077   2.899   1.031   4.414
 5357TIP3    H216078   2.988   1.153   4.433
 5358TIP3   OH216079   2.982   3.723   1.178
 5358TIP3    H116080   3.010   3.815   1.183
 5358TIP3    H216081   3.053   3.674   1.221
 5359TIP3   OH216082   3.808   2.693   2.371
 5359TIP3    H116083   3.897   2.678   2.339
 5359TIP3    H216084   3.817   2.761   2.437
 5360TIP3   OH216085   1.412   0.523   3.016
 5360TIP3    H116086   1.458   0.599   2.980
 5360TIP3    H216087   1.417   0.457   2.947
 5361TIP3   OH216088   3.135   4.676   0.849
 5361TIP3    H116089   3.093   4.736   0.910
 5361TIP3    H216090   3.116   4.712   0.762
 5362TIP3   OH216091   6.097   4.478   0.128
 5362TIP3    H116092   6.089   4.416   0.056
 5362TIP3    H216093   6.189   4.476   0.152
 5363TIP3   OH216094   5.957   0.227   4.638
 5363TIP3    H116095   6.013   0.153   4.663
 5363TIP3    H216096   6.014   0.281   4.583
 5364TIP3   OH216097   0.601   5.175   4.842
 5364TIP3    H116098   0.666   5.105   4.835
 5364TIP3    H216099   0.632   5.243   4.783
 5365TIP3   OH216100   1.501   5.351   4.711
 5365TIP3    H116101   1.584   5.355   4.663
 5365TIP3    H216102   1.468   5.441   4.711
 5366TIP3   OH216103   3.315   3.220   3.574
 5366TIP3    H116104   3.275   3.247   3.657
 5366TIP3    H216105   3.247   3.169   3.531
 5367TIP3   OH216106   4.421   3.789   4.648
 5367TIP3    H116107   4.360   3.840   4.701
 5367TIP3    H216108   4.407   3.698   4.675
 5368TIP3   OH216109   4.592   4.665   3.368
 5368TIP3    H116110   4.609   4.705   3.282
 5368TIP3    H216111   4.601   4.571   3.353
 5369TIP3   OH216112   0.010   0.461   4.607
 5369TIP3    H116113   0.036   0.550   4.631
 5369TIP3    H216114   0.007   0.462   4.511
 5370TIP3   OH216115   2.247   5.383   1.535
 5370TIP3    H116116   2.215   5.359   1.448
 5370TIP3    H216117   2.167   5.386   1.589
 5371TIP3   OH216118   2.364   1.315   3.896
 5371TIP3    H116119   2.353   1.403   3.932
 5371TIP3    H216120   2.439   1.279   3.944
 5372TIP3   OH216121   1.093   4.220   2.822
 5372TIP3    H116122   0.997   4.216   2.818
 5372TIP3    H216123   1.116   4.166   2.898
 5373TIP3   OH216124   5.564   1.499   0.651
 5373TIP3    H116125   5.651   1.476   0.684
 5373TIP3    H216126   5.521   1.415   0.637
 5374TIP3   OH216127   2.746   1.406   2.126
 5374TIP3    H116128   2.711   1.391   2.214
 5374TIP3    H216129   2.821   1.347   2.120
 5375TIP3   OH216130   0.147   4.430   3.610
 5375TIP3    H116131   0.231   4.471   3.588
 5375TIP3    H216132   0.171   4.352   3.659
 5376TIP3   OH216133   1.501   3.778   1.204
 5376TIP3    H116134   1.504   3.682   1.198
 5376TIP3    H216135   1.411   3.801   1.184
 5377TIP3   OH216136   0.190   4.236   1.791
 5377TIP3    H116137   0.171   4.321   1.830
 5377TIP3    H216138   0.285   4.225   1.803
 5378TIP3   OH216139   4.157   3.485   0.256
 5378TIP3    H116140   4.194   3.572   0.242
 5378TIP3    H216141   4.110   3.493   0.339
 5379TIP3   OH216142   2.370   1.096   4.806
 5379TIP3    H116143   2.379   1.033   4.877
 5379TIP3    H216144   2.381   1.181   4.848
 5380TIP3   OH216145   2.472   1.871   3.286
 5380TIP3    H116146   2.408   1.937   3.260
 5380TIP3    H216147   2.448   1.846   3.375
 5381TIP3   OH216148   5.051   4.130   4.172
 5381TIP3    H116149   5.024   4.217   4.142
 5381TIP3    H216150   4.990   4.110   4.243
 5382TIP3   OH216151   0.755   5.502   0.987
 5382TIP3    H116152   0.761   5.434   0.920
 5382TIP3    H216153   0.662   5.503   1.012
 5383TIP3   OH216154   0.588   2.052   3.179
 5383TIP3    H116155   0.496   2.066   3.201
 5383TIP3    H216156   0.636   2.092   3.251
 5384TIP3   OH216157   6.299   0.492   1.795
 5384TIP3    H116158   6.210   0.468   1.821
 5384TIP3    H216159   6.314   0.444   1.713
 5385TIP3   OH216160   6.319   3.272   1.823
 5385TIP3    H116161   6.234   3.311   1.799
 5385TIP3    H216162   6.303   3.233   1.910
 5386TIP3   OH216163   5.122   0.406   4.526
 5386TIP3    H116164   5.102   0.478   4.467
 5386TIP3    H216165   5.216   0.390   4.514
 5387TIP3   OH216166   4.037   3.041   1.856
 5387TIP3    H116167   4.023   3.010   1.945
 5387TIP3    H216168   3.950   3.039   1.816
 5388TIP3   OH216169   5.017   2.392   0.996
 5388TIP3    H116170   4.929   2.357   1.009
 5388TIP3    H216171   5.003   2.479   0.958
 5389TIP3   OH216172   0.842   5.099   2.272
 5389TIP3    H116173   0.828   5.147   2.190
 5389TIP3    H216174   0.879   5.163   2.332
 5390TIP3   OH216175   5.801   5.466   0.143
 5390TIP3    H116176   5.714   5.493   0.112
 5390TIP3    H216177   5.821   5.387   0.094
 5391TIP3   OH216178   2.586   0.017   1.932
 5391TIP3    H116179   2.527   0.089   1.909
 5391TIP3    H216180   2.626   0.044   2.015
 5392TIP3   OH216181   0.139   1.251   1.015
 5392TIP3    H116182   0.225   1.289   1.032
 5392TIP3    H216183   0.135   1.175   1.072
 5393TIP3   OH216184   0.590   0.856   2.755
 5393TIP3    H116185   0.590   0.761   2.751
 5393TIP3    H216186   0.635   0.877   2.837
 5394TIP3   OH216187   4.217   2.841   5.057
 5394TIP3    H116188   4.231   2.849   5.151
 5394TIP3    H216189   4.123   2.831   5.046
 5395TIP3   OH216190   5.967   2.490   3.834
 5395TIP3    H116191   5.942   2.562   3.891
 5395TIP3    H216192   5.963   2.412   3.890
 5396TIP3   OH216193   6.321   1.325   4.565
 5396TIP3    H116194   6.236   1.341   4.524
 5396TIP3    H216195   6.360   1.255   4.512
 5397TIP3   OH216196   2.888   3.572   0.961
 5397TIP3    H116197   2.921   3.632   1.028
 5397TIP3    H216198   2.858   3.495   1.010
 5398TIP3   OH216199   0.431   2.299   2.827
 5398TIP3    H116200   0.525   2.314   2.830
 5398TIP3    H216201   0.420   2.223   2.771
 5399TIP3   OH216202   1.136   4.789   4.594
 5399TIP3    H116203   1.070   4.852   4.564
 5399TIP3    H216204   1.089   4.705   4.598
 5400TIP3   OH216205   4.376   4.593   2.777
 5400TIP3    H116206   4.417   4.519   2.732
 5400TIP3    H216207   4.354   4.654   2.707
 5401TIP3   OH216208   5.927   1.554   3.844
 5401TIP3    H116209   5.979   1.505   3.779
 5401TIP3    H216210   5.901   1.634   3.799
 5402TIP3   OH216211   5.771   5.480   3.926
 5402TIP3    H116212   5.706   5.549   3.912
 5402TIP3    H216213   5.847   5.526   3.962
 5403TIP3   OH216214   0.135   0.387   3.995
 5403TIP3    H116215   0.163   0.299   4.019
 5403TIP3    H216216   0.207   0.422   3.943
 5404TIP3   OH216217   5.813   1.531   4.886
 5404TIP3    H116218   5.901   1.495   4.898
 5404TIP3    H216219   5.817   1.575   4.801
 5405TIP3   OH216220   4.738   0.528   3.924
 5405TIP3    H116221   4.682   0.584   3.871
 5405TIP3    H216222   4.734   0.443   3.882
 5406TIP3   OH216223   4.222   4.691   3.610
 5406TIP3    H116224   4.186   4.740   3.535
 5406TIP3    H216225   4.238   4.757   3.677
 5407TIP3   OH216226   1.099   1.920   4.814
 5407TIP3    H116227   1.005   1.934   4.824
 5407TIP3    H216228   1.106   1.831   4.780
 5408TIP3   OH216229   3.251   1.992   0.794
 5408TIP3    H116230   3.333   2.012   0.837
 5408TIP3    H216231   3.240   1.897   0.804
 5409TIP3   OH216232   0.801   3.674   0.491
 5409TIP3    H116233   0.865   3.679   0.562
 5409TIP3    H216234   0.721   3.642   0.533
 5410TIP3   OH216235   4.850   5.150   4.890
 5410TIP3    H116236   4.810   5.093   4.824
 5410TIP3    H216237   4.912   5.204   4.840
 5411TIP3   OH216238   3.168   1.834   4.824
 5411TIP3    H116239   3.113   1.836   4.745
 5411TIP3    H216240   3.226   1.909   4.815
 5412TIP3   OH216241   6.178   5.568   0.551
 5412TIP3    H116242   6.096   5.614   0.569
 5412TIP3    H216243   6.186   5.504   0.622
 5413TIP3   OH216244   0.394   1.870   1.033
 5413TIP3    H116245   0.385   1.886   0.939
 5413TIP3    H216246   0.488   1.857   1.047
 5414TIP3   OH216247   2.105   2.687   4.377
 5414TIP3    H116248   2.116   2.606   4.426
 5414TIP3    H216249   2.117   2.662   4.286
 5415TIP3   OH216250   0.139   2.978   2.075
 5415TIP3    H116251   0.176   2.902   2.029
 5415TIP3    H216252   0.147   3.050   2.012
 5416TIP3   OH216253   4.327   5.075   4.387
 5416TIP3    H116254   4.269   5.135   4.433
 5416TIP3    H216255   4.345   5.119   4.304
 5417TIP3   OH216256   5.274   3.305   0.982
 5417TIP3    H116257   5.266   3.384   1.035
 5417TIP3    H216258   5.235   3.236   1.036
 5418TIP3   OH216259   3.100   3.622   3.827
 5418TIP3    H116260   3.173   3.559   3.832
 5418TIP3    H216261   3.022   3.570   3.846
 5419TIP3   OH216262   5.884   5.105   3.920
 5419TIP3    H116263   5.859   5.171   3.856
 5419TIP3    H216264   5.942   5.046   3.872
 5420TIP3   OH216265   0.536   3.886   0.528
 5420TIP3    H116266   0.599   3.869   0.598
 5420TIP3    H216267   0.564   3.968   0.489
 5421TIP3   OH216268   1.482   4.167   1.300
 5421TIP3    H116269   1.563   4.137   1.258
 5421TIP3    H216270   1.448   4.234   1.240
 5422TIP3   OH216271   3.176   2.309   4.602
 5422TIP3    H116272   3.202   2.229   4.555
 5422TIP3    H216273   3.081   2.302   4.610
 5423TIP3   OH216274   1.055   2.322   3.909
 5423TIP3    H116275   0.991   2.388   3.939
 5423TIP3    H216276   1.131   2.373   3.882
 5424TIP3   OH216277   4.025   3.931   1.261
 5424TIP3    H116278   4.046   3.919   1.353
 5424TIP3    H216279   3.998   3.845   1.230
 5425TIP3   OH216280   0.126   2.332   3.708
 5425TIP3    H116281   0.167   2.345   3.794
 5425TIP3    H216282   0.185   2.375   3.646
 5426TIP3   OH216283   5.630   1.263   0.432
 5426TIP3    H116284   5.598   1.313   0.357
 5426TIP3    H216285   5.554   1.254   0.489
 5427TIP3   OH216286   1.153   3.564   1.673
 5427TIP3    H116287   1.173   3.655   1.698
 5427TIP3    H216288   1.174   3.513   1.751
 5428TIP3   OH216289   0.323   0.823   0.583
 5428TIP3    H116290   0.378   0.746   0.594
 5428TIP3    H216291   0.268   0.803   0.508
 5429TIP3   OH216292   3.734   1.868   3.769
 5429TIP3    H116293   3.794   1.863   3.843
 5429TIP3    H216294   3.789   1.888   3.694
 5430TIP3   OH216295   4.640   2.838   4.954
 5430TIP3    H116296   4.635   2.885   5.037
 5430TIP3    H216297   4.559   2.861   4.908
 5431TIP3   OH216298   5.635   3.261   2.981
 5431TIP3    H116299   5.689   3.312   3.041
 5431TIP3    H216300   5.650   3.170   3.007
 5432TIP3   OH216301   1.153   2.255   4.867
 5432TIP3    H116302   1.068   2.219   4.891
 5432TIP3    H216303   1.160   2.241   4.773
 5433TIP3   OH216304   1.560   1.656   0.256
 5433TIP3    H116305   1.470   1.635   0.280
 5433TIP3    H216306   1.556   1.672   0.161
 5434TIP3   OH216307   5.315   1.001   0.865
 5434TIP3    H116308   5.281   0.986   0.953
 5434TIP3    H216309   5.277   0.932   0.812
 5435TIP3   OH216310   3.760   5.468   0.573
 5435TIP3    H116311   3.680   5.494   0.527
 5435TIP3    H216312   3.762   5.372   0.565
 5436TIP3   OH216313   2.204   5.740   3.510
 5436TIP3    H116314   2.169   5.662   3.468
 5436TIP3    H216315   2.206   5.806   3.440
 5437TIP3   OH216316   5.546   3.544   2.374
 5437TIP3    H116317   5.567   3.551   2.281
 5437TIP3    H216318   5.479   3.611   2.389
 5438TIP3   OH216319   3.901   4.907   0.400
 5438TIP3    H116320   3.887   4.848   0.326
 5438TIP3    H216321   3.825   4.892   0.457
 5439TIP3   OH216322   4.168   1.680   2.143
 5439TIP3    H116323   4.257   1.694   2.175
 5439TIP3    H216324   4.119   1.651   2.220
 5440TIP3   OH216325   2.681   1.731   2.450
 5440TIP3    H116326   2.628   1.715   2.372
 5440TIP3    H216327   2.618   1.745   2.520
 5441TIP3   OH216328   4.877   1.370   1.657
 5441TIP3    H116329   4.806   1.386   1.595
 5441TIP3    H216330   4.956   1.400   1.612
 5442TIP3   OH216331   1.413   3.310   1.636
 5442TIP3    H116332   1.344   3.376   1.648
 5442TIP3    H216333   1.471   3.347   1.570
 5443TIP3   OH216334   5.921   5.649   0.907
 5443TIP3    H116335   5.880   5.654   0.993
 5443TIP3    H216336   5.856   5.604   0.852
 5444TIP3   OH216337   2.076   3.522   0.708
 5444TIP3    H116338   2.145   3.479   0.759
 5444TIP3    H216339   2.014   3.452   0.689
 5445TIP3   OH216340   2.704   1.994   0.167
 5445TIP3    H116341   2.655   2.061   0.215
 5445TIP3    H216342   2.778   2.041   0.128
 5446TIP3   OH216343   5.540   5.122   0.348
 5446TIP3    H116344   5.597   5.103   0.274
 5446TIP3    H216345   5.480   5.048   0.352
 5447TIP3   OH216346   3.360   0.213   4.350
 5447TIP3    H116347   3.429   0.231   4.286
 5447TIP3    H216348   3.337   0.299   4.385
 5448TIP3   OH216349   4.317   1.394   3.959
 5448TIP3    H116350   4.269   1.315   3.985
 5448TIP3    H216351   4.337   1.438   4.041
 5449TIP3   OH216352   1.964   5.500   2.797
 5449TIP3    H116353   2.020   5.499   2.719
 5449TIP3    H216354   1.961   5.592   2.823
 5450TIP3   OH216355   0.667   4.619   2.987
 5450TIP3    H116356   0.753   4.625   2.946
 5450TIP3    H216357   0.620   4.697   2.956
 5451TIP3   OH216358   3.702   4.637   3.295
 5451TIP3    H116359   3.712   4.567   3.360
 5451TIP3    H216360   3.675   4.714   3.346
 5452TIP3   OH216361   5.468   2.169   0.565
 5452TIP3    H116362   5.376   2.185   0.586
 5452TIP3    H216363   5.477   2.074   0.568
 5453TIP3   OH216364   5.248   2.544   1.178
 5453TIP3    H116365   5.331   2.540   1.226
 5453TIP3    H216366   5.205   2.461   1.197
 5454TIP3   OH216367   5.248   4.218   1.753
 5454TIP3    H116368   5.202   4.158   1.812
 5454TIP3    H216369   5.332   4.175   1.736
 5455TIP3   OH216370   1.862   3.073   2.867
 5455TIP3    H116371   1.791   3.137   2.877
 5455TIP3    H216372   1.934   3.108   2.919
 5456TIP3   OH216373   3.211   1.522   4.762
 5456TIP3    H116374   3.254   1.592   4.713
 5456TIP3    H216375   3.238   1.536   4.853
 5457TIP3   OH216376   4.975   5.196   2.917
 5457TIP3    H116377   4.926   5.116   2.900
 5457TIP3    H216378   4.938   5.230   2.998
 5458TIP3   OH216379   6.126   1.306   2.771
 5458TIP3    H116380   6.218   1.327   2.754
 5458TIP3    H216381   6.108   1.344   2.856
 5459TIP3   OH216382   0.417   3.940   3.145
 5459TIP3    H116383   0.373   3.891   3.214
 5459TIP3    H216384   0.353   3.945   3.074
 5460TIP3   OH216385   3.166   2.343   2.163
 5460TIP3    H116386   3.088   2.288   2.157
 5460TIP3    H216387   3.170   2.369   2.255
 5461TIP3   OH216388   2.182   4.063   3.491
 5461TIP3    H116389   2.125   4.124   3.537
 5461TIP3    H216390   2.271   4.092   3.514
 5462TIP3   OH216391   1.571   5.505   4.352
 5462TIP3    H116392   1.487   5.516   4.308
 5462TIP3    H216393   1.633   5.487   4.281
 5463TIP3   OH216394   3.952   0.596   3.507
 5463TIP3    H116395   4.038   0.555   3.505
 5463TIP3    H216396   3.901   0.543   3.569
 5464TIP3   OH216397   3.036   0.953   0.408
 5464TIP3    H116398   3.124   0.990   0.422
 5464TIP3    H216399   2.988   0.976   0.487
 5465TIP3   OH216400   5.275   5.630   1.490
 5465TIP3    H116401   5.285   5.718   1.452
 5465TIP3    H216402   5.344   5.578   1.448
 5466TIP3   OH216403   1.451   5.711   4.117
 5466TIP3    H116404   1.438   5.716   4.022
 5466TIP3    H216405   1.436   5.619   4.138
 5467TIP3   OH216406   2.508   1.162   2.864
 5467TIP3    H116407   2.489   1.248   2.902
 5467TIP3    H216408   2.432   1.143   2.809
 5468TIP3   OH216409   3.913   0.784   3.320
 5468TIP3    H116410   3.917   0.762   3.227
 5468TIP3    H216411   3.943   0.704   3.364
 5469TIP3   OH216412   5.125   1.715   3.327
 5469TIP3    H116413   5.033   1.731   3.351
 5469TIP3    H216414   5.150   1.791   3.275
 5470TIP3   OH216415   5.084   2.356   4.714
 5470TIP3    H116416   5.001   2.323   4.749
 5470TIP3    H216417   5.150   2.325   4.776
 5471TIP3   OH216418   3.837   0.463   3.731
 5471TIP3    H116419   3.922   0.451   3.772
 5471TIP3    H216420   3.786   0.514   3.794
 5472TIP3   OH216421   3.309   4.098   2.322
 5472TIP3    H116422   3.328   4.153   2.397
 5472TIP3    H216423   3.315   4.156   2.246
 5473TIP3   OH216424   3.771   3.807   3.220
 5473TIP3    H116425   3.837   3.875   3.204
 5473TIP3    H216426   3.787   3.779   3.310
 5474TIP3   OH216427   6.255   4.240   2.793
 5474TIP3    H116428   6.227   4.212   2.706
 5474TIP3    H216429   6.182   4.219   2.850
 5475TIP3   OH216430   3.968   1.337   1.319
 5475TIP3    H116431   3.920   1.374   1.394
 5475TIP3    H216432   3.983   1.412   1.261
 5476TIP3   OH216433   2.650   0.503   4.747
 5476TIP3    H116434   2.579   0.449   4.782
 5476TIP3    H216435   2.675   0.460   4.665
 5477TIP3   OH216436   3.522   3.918   3.138
 5477TIP3    H116437   3.605   3.891   3.176
 5477TIP3    H216438   3.512   3.864   3.060
 5478TIP3   OH216439   2.699   0.679   0.264
 5478TIP3    H116440   2.674   0.656   0.174
 5478TIP3    H216441   2.623   0.725   0.300
 5479TIP3   OH216442   0.276   0.168   4.467
 5479TIP3    H116443   0.257   0.171   4.561
 5479TIP3    H216444   0.268   0.259   4.438
 5480TIP3   OH216445   2.822   3.266   4.344
 5480TIP3    H116446   2.771   3.218   4.278
 5480TIP3    H216447   2.821   3.357   4.314
 5481TIP3   OH216448   3.228   3.080   2.558
 5481TIP3    H116449   3.151   3.135   2.548
 5481TIP3    H216450   3.302   3.139   2.542
 5482TIP3   OH216451   0.639   3.359   0.770
 5482TIP3    H116452   0.625   3.321   0.857
 5482TIP3    H216453   0.602   3.294   0.710
 5483TIP3   OH216454   5.197   5.094   0.825
 5483TIP3    H116455   5.173   5.171   0.877
 5483TIP3    H216456   5.286   5.073   0.853
 5484TIP3   OH216457   3.511   4.354   2.800
 5484TIP3    H116458   3.466   4.293   2.859
 5484TIP3    H216459   3.493   4.440   2.837
 5485TIP3   OH216460   4.044   5.225   0.232
 5485TIP3    H116461   4.095   5.175   0.296
 5485TIP3    H216462   3.975   5.166   0.205
 5486TIP3   OH216463   6.090   1.299   3.883
 5486TIP3    H116464   6.023   1.232   3.869
 5486TIP3    H216465   6.148   1.290   3.807
 5487TIP3   OH216466   2.544   4.523   2.178
 5487TIP3    H116467   2.559   4.529   2.273
 5487TIP3    H216468   2.544   4.614   2.148
 5488TIP3   OH216469   5.454   2.275   4.909
 5488TIP3    H116470   5.447   2.180   4.925
 5488TIP3    H216471   5.401   2.290   4.831
 5489TIP3   OH216472   4.933   3.761   2.524
 5489TIP3    H116473   4.860   3.710   2.560
 5489TIP3    H216474   5.011   3.724   2.565
 5490TIP3   OH216475   4.984   5.902   0.872
 5490TIP3    H116476   5.022   5.832   0.925
 5490TIP3    H216477   4.964   5.972   0.935
 5491TIP3   OH216478   1.554   3.604   5.182
 5491TIP3    H116479   1.470   3.586   5.138
 5491TIP3    H216480   1.604   3.523   5.170
 5492TIP3   OH216481   1.290   0.612   1.386
 5492TIP3    H116482   1.209   0.574   1.421
 5492TIP3    H216483   1.263   0.656   1.305
 5493TIP3   OH216484   2.030   0.133   3.319
 5493TIP3    H116485   1.950   0.185   3.304
 5493TIP3    H216486   2.022   0.104   3.410
 5494TIP3   OH216487   1.228   5.889   4.564
 5494TIP3    H116488   1.213   5.902   4.658
 5494TIP3    H216489   1.187   5.965   4.523
 5495TIP3   OH216490   1.794   2.360   0.847
 5495TIP3    H116491   1.820   2.411   0.770
 5495TIP3    H216492   1.750   2.283   0.812
 5496TIP3   OH216493   3.653   5.783   5.039
 5496TIP3    H116494   3.567   5.791   4.997
 5496TIP3    H216495   3.706   5.851   4.999
 5497TIP3   OH216496   6.184   1.796   4.842
 5497TIP3    H116497   6.254   1.856   4.869
 5497TIP3    H216498   6.125   1.792   4.918
 5498TIP3   OH216499   0.549   4.110   1.083
 5498TIP3    H116500   0.572   4.159   1.162
 5498TIP3    H216501   0.491   4.040   1.114
 5499TIP3   OH216502   4.175   1.683   0.165
 5499TIP3    H116503   4.193   1.623   0.237
 5499TIP3    H216504   4.256   1.684   0.114
 5500TIP3   OH216505   2.028   1.839   2.055
 5500TIP3    H116506   1.949   1.835   2.001
 5500TIP3    H216507   2.091   1.888   2.001
 5501TIP3   OH216508   2.673   0.350   1.603
 5501TIP3    H116509   2.693   0.372   1.694
 5501TIP3    H216510   2.584   0.381   1.589
 5502TIP3   OH216511   5.900   2.710   3.989
 5502TIP3    H116512   5.897   2.785   3.929
 5502TIP3    H216513   5.934   2.747   4.071
 5503TIP3   OH216514   0.658   5.226   4.291
 5503TIP3    H116515   0.704   5.170   4.228
 5503TIP3    H216516   0.712   5.222   4.370
 5504TIP3   OH216517   5.916   3.196   3.077
 5504TIP3    H116518   5.968   3.274   3.094
 5504TIP3    H216519   5.879   3.172   3.162
 5505TIP3   OH216520   2.917   5.831   3.000
 5505TIP3    H116521   2.852   5.764   3.020
 5505TIP3    H216522   2.882   5.911   3.039
 5506TIP3   OH216523   0.607   5.599   3.903
 5506TIP3    H116524   0.648   5.652   3.834
 5506TIP3    H216525   0.613   5.509   3.871
 5507TIP3   OH216526   5.545   5.513   4.474
 5507TIP3    H116527   5.601   5.558   4.410
 5507TIP3    H216528   5.544   5.571   4.550
 5508TIP3   OH216529   2.824   2.843   2.024
 5508TIP3    H116530   2.791   2.794   1.949
 5508TIP3    H216531   2.779   2.806   2.100
 5509TIP3   OH216532   0.405   5.192   2.584
 5509TIP3    H116533   0.437   5.181   2.494
 5509TIP3    H216534   0.354   5.273   2.581
 5510TIP3   OH216535   5.036   2.558   3.443
 5510TIP3    H116536   5.066   2.644   3.413
 5510TIP3    H216537   5.005   2.515   3.363
 5511TIP3   OH216538   4.089   3.289   0.050
 5511TIP3    H116539   4.154   3.290  -0.021
 5511TIP3    H216540   4.118   3.357   0.111
 5512TIP3   OH216541   0.891   4.927   1.386
 5512TIP3    H116542   0.924   4.975   1.309
 5512TIP3    H216543   0.969   4.885   1.423
 5513TIP3   OH216544   2.284   4.298   1.539
 5513TIP3    H116545   2.310   4.390   1.529
 5513TIP3    H216546   2.197   4.294   1.500
 5514TIP3   OH216547   4.679   1.765   2.274
 5514TIP3    H116548   4.600   1.813   2.251
 5514TIP3    H216549   4.654   1.673   2.264
 5515TIP3   OH216550   1.240   1.390   2.842
 5515TIP3    H116551   1.207   1.437   2.766
 5515TIP3    H216552   1.191   1.428   2.916
 5516TIP3   OH216553   4.259   1.676   4.605
 5516TIP3    H116554   4.165   1.697   4.607
 5516TIP3    H216555   4.291   1.721   4.527
 5517TIP3   OH216556   1.762   1.816   1.946
 5517TIP3    H116557   1.783   1.891   1.890
 5517TIP3    H216558   1.680   1.840   1.989
 5518TIP3   OH216559   3.718   0.246   3.981
 5518TIP3    H116560   3.672   0.162   3.991
 5518TIP3    H216561   3.784   0.229   3.913
 5519TIP3   OH216562   0.152   0.422   2.504
 5519TIP3    H116563   0.186   0.333   2.504
 5519TIP3    H216564   0.228   0.477   2.523
 5520TIP3   OH216565   4.470   1.949   3.292
 5520TIP3    H116566   4.527   1.932   3.367
 5520TIP3    H216567   4.389   1.902   3.313
 5521TIP3   OH216568   0.512   0.541   4.524
 5521TIP3    H116569   0.558   0.614   4.567
 5521TIP3    H216570   0.547   0.540   4.435
 5522TIP3   OH216571   5.526   0.450   0.836
 5522TIP3    H116572   5.460   0.423   0.772
 5522TIP3    H216573   5.476   0.491   0.907
 5523TIP3   OH216574   3.558   5.689   3.037
 5523TIP3    H116575   3.539   5.644   2.954
 5523TIP3    H216576   3.585   5.777   3.011
 5524TIP3   OH216577   1.686   3.077   1.650
 5524TIP3    H116578   1.766   3.025   1.652
 5524TIP3    H216579   1.706   3.154   1.703
 5525TIP3   OH216580   1.512   0.564   4.756
 5525TIP3    H116581   1.467   0.641   4.790
 5525TIP3    H216582   1.455   0.533   4.685
 5526TIP3   OH216583   0.041   1.388   2.699
 5526TIP3    H116584   0.035   1.427   2.612
 5526TIP3    H216585   0.134   1.379   2.715
 5527TIP3   OH216586   3.734   4.357   0.296
 5527TIP3    H116587   3.776   4.283   0.339
 5527TIP3    H216588   3.691   4.319   0.219
 5528TIP3   OH216589   2.906   4.005   1.217
 5528TIP3    H116590   2.985   4.021   1.165
 5528TIP3    H216591   2.864   4.090   1.224
 5529TIP3   OH216592   4.724   1.664   5.135
 5529TIP3    H116593   4.737   1.703   5.048
 5529TIP3    H216594   4.631   1.643   5.138
 5530TIP3   OH216595   1.765   0.583   4.833
 5530TIP3    H116596   1.689   0.545   4.789
 5530TIP3    H216597   1.757   0.555   4.924
 5531TIP3   OH216598   2.709   3.912   3.354
 5531TIP3    H116599   2.712   4.006   3.373
 5531TIP3    H216600   2.800   3.883   3.362
 5532TIP3   OH216601   5.512   3.834   5.016
 5532TIP3    H116602   5.484   3.824   4.925
 5532TIP3    H216603   5.606   3.818   5.014
 5533TIP3   OH216604   5.511   1.297   1.498
 5533TIP3    H116605   5.596   1.324   1.533
 5533TIP3    H216606   5.523   1.206   1.473
 5534TIP3   OH216607   4.744   4.087   4.862
 5534TIP3    H116608   4.760   4.002   4.904
 5534TIP3    H216609   4.827   4.133   4.868
 5535TIP3   OH216610   3.565   3.532   1.690
 5535TIP3    H116611   3.644   3.582   1.710
 5535TIP3    H216612   3.589   3.441   1.707
 5536TIP3   OH216613   3.360   0.862   3.469
 5536TIP3    H116614   3.451   0.887   3.488
 5536TIP3    H216615   3.364   0.767   3.454
 5537TIP3   OH216616   4.526   3.270   4.703
 5537TIP3    H116617   4.479   3.199   4.659
 5537TIP3    H216618   4.584   3.225   4.765
 5538TIP3   OH216619   3.556   5.302   2.752
 5538TIP3    H116620   3.595   5.322   2.667
 5538TIP3    H216621   3.533   5.388   2.789
 5539TIP3   OH216622   4.341   1.845   1.946
 5539TIP3    H116623   4.385   1.852   2.031
 5539TIP3    H216624   4.412   1.849   1.883
 5540TIP3   OH216625   2.981   4.290   3.787
 5540TIP3    H116626   2.910   4.311   3.726
 5540TIP3    H216627   2.952   4.326   3.871
 5541TIP3   OH216628   1.903   0.575   0.269
 5541TIP3    H116629   1.930   0.642   0.206
 5541TIP3    H216630   1.948   0.496   0.242
 5542TIP3   OH216631   3.757   5.762   4.114
 5542TIP3    H116632   3.727   5.845   4.076
 5542TIP3    H216633   3.681   5.731   4.164
 5543TIP3   OH216634   4.646   0.248   1.548
 5543TIP3    H116635   4.611   0.174   1.597
 5543TIP3    H216636   4.569   0.290   1.510
 5544TIP3   OH216637   0.641   4.104   3.464
 5544TIP3    H116638   0.610   4.024   3.422
 5544TIP3    H216639   0.683   4.154   3.394
 5545TIP3   OH216640   3.264   4.765   4.475
 5545TIP3    H116641   3.225   4.703   4.537
 5545TIP3    H216642   3.265   4.718   4.392
 5546TIP3   OH216643   3.628   2.765   3.959
 5546TIP3    H116644   3.638   2.750   4.053
 5546TIP3    H216645   3.534   2.770   3.945
 5547TIP3   OH216646   3.340   3.955   3.932
 5547TIP3    H116647   3.313   4.021   3.996
 5547TIP3    H216648   3.259   3.911   3.906
 5548TIP3   OH216649   5.375   4.954   4.246
 5548TIP3    H116650   5.296   4.986   4.290
 5548TIP3    H216651   5.342   4.908   4.168
 5549TIP3   OH216652   3.624   3.424   5.002
 5549TIP3    H116653   3.631   3.443   4.909
 5549TIP3    H216654   3.622   3.329   5.007
 5550TIP3   OH216655   0.927   4.491   1.886
 5550TIP3    H116656   0.894   4.527   1.804
 5550TIP3    H216657   0.955   4.568   1.936
 5551TIP3   OH216658   5.534   3.696   0.744
 5551TIP3    H116659   5.619   3.703   0.787
 5551TIP3    H216660   5.475   3.664   0.812
 5552TIP3   OH216661   0.031   3.478   3.639
 5552TIP3    H116662  -0.045   3.524   3.674
 5552TIP3    H216663   0.025   3.390   3.675
 5553TIP3   OH216664   2.751   5.124   1.273
 5553TIP3    H116665   2.823   5.157   1.327
 5553TIP3    H216666   2.693   5.079   1.335
 5554TIP3   OH216667   0.234   5.618   4.997
 5554TIP3    H116668   0.143   5.648   5.002
 5554TIP3    H216669   0.283   5.683   5.047
 5555TIP3   OH216670   1.552   5.723   0.565
 5555TIP3    H116671   1.481   5.776   0.600
 5555TIP3    H216672   1.599   5.693   0.643
 5556TIP3   OH216673   1.730   1.094   0.423
 5556TIP3    H116674   1.721   1.092   0.327
 5556TIP3    H216675   1.641   1.078   0.455
 5557TIP3   OH216676   1.823   0.010   3.057
 5557TIP3    H116677   1.847   0.102   3.067
 5557TIP3    H216678   1.775   0.006   2.974
 5558TIP3   OH216679   4.909   4.948   2.428
 5558TIP3    H116680   4.904   5.041   2.406
 5558TIP3    H216681   4.995   4.920   2.397
 5559TIP3   OH216682   5.802   2.565   2.728
 5559TIP3    H116683   5.780   2.652   2.760
 5559TIP3    H216684   5.879   2.577   2.674
 5560TIP3   OH216685   1.296   4.425   4.199
 5560TIP3    H116686   1.275   4.340   4.238
 5560TIP3    H216687   1.233   4.486   4.238
 5561TIP3   OH216688   0.319   1.496   3.442
 5561TIP3    H116689   0.349   1.545   3.366
 5561TIP3    H216690   0.299   1.563   3.507
 5562TIP3   OH216691   6.289   2.485   0.048
 5562TIP3    H116692   6.349   2.412   0.066
 5562TIP3    H216693   6.332   2.561   0.086
 5563TIP3   OH216694   0.700   4.685   4.876
 5563TIP3    H116695   0.730   4.758   4.822
 5563TIP3    H216696   0.643   4.634   4.818
 5564TIP3   OH216697   0.830   5.094   4.091
 5564TIP3    H116698   0.908   5.038   4.089
 5564TIP3    H216699   0.780   5.069   4.013
 5565TIP3   OH216700   0.937   5.034   0.526
 5565TIP3    H116701   0.884   5.113   0.539
 5565TIP3    H216702   0.962   5.037   0.433
 5566TIP3   OH216703   6.099   4.391   4.718
 5566TIP3    H116704   6.074   4.320   4.658
 5566TIP3    H216705   6.163   4.442   4.668
 5567TIP3   OH216706   5.555   3.562   4.578
 5567TIP3    H116707   5.612   3.486   4.589
 5567TIP3    H216708   5.580   3.598   4.493
 5568TIP3   OH216709   1.283   5.001   0.843
 5568TIP3    H116710   1.258   5.019   0.933
 5568TIP3    H216711   1.206   4.959   0.804
 5569TIP3   OH216712   4.713   4.289   0.268
 5569TIP3    H116713   4.721   4.272   0.361
 5569TIP3    H216714   4.699   4.203   0.228
 5570TIP3   OH216715   3.955   4.558   2.604
 5570TIP3    H116716   3.990   4.554   2.694
 5570TIP3    H216717   3.879   4.500   2.605
 5571TIP3   OH216718   4.987   4.901   0.168
 5571TIP3    H116719   5.000   4.893   0.074
 5571TIP3    H216720   4.893   4.909   0.180
 5572TIP3   OH216721   3.978   1.411   0.661
 5572TIP3    H116722   3.916   1.348   0.626
 5572TIP3    H216723   4.014   1.455   0.584
 5573TIP3   OH216724   5.738   2.509   0.990
 5573TIP3    H116725   5.724   2.486   0.898
 5573TIP3    H216726   5.695   2.593   1.000
 5574TIP3   OH216727   3.761   2.656   1.469
 5574TIP3    H116728   3.775   2.562   1.483
 5574TIP3    H216729   3.690   2.679   1.528
 5575TIP3   OH216730   3.326   1.966   1.132
 5575TIP3    H116731   3.377   2.043   1.158
 5575TIP3    H216732   3.392   1.903   1.102
 5576TIP3   OH216733   3.265   4.892   1.402
 5576TIP3    H116734   3.347   4.937   1.380
 5576TIP3    H216735   3.213   4.896   1.322
 5577TIP3   OH216736   1.369   5.897   0.327
 5577TIP3    H116737   1.371   5.803   0.343
 5577TIP3    H216738   1.445   5.931   0.375
 5578TIP3   OH216739   1.488   0.494   3.580
 5578TIP3    H116740   1.478   0.503   3.485
 5578TIP3    H216741   1.428   0.560   3.616
 5579TIP3   OH216742   5.124   0.198   1.614
 5579TIP3    H116743   5.044   0.247   1.595
 5579TIP3    H216744   5.191   0.265   1.626
 5580TIP3   OH216745   5.371   0.268   0.318
 5580TIP3    H116746   5.465   0.282   0.328
 5580TIP3    H216747   5.339   0.346   0.273
 5581TIP3   OH216748   5.951   3.714   3.967
 5581TIP3    H116749   5.893   3.643   3.993
 5581TIP3    H216750   5.959   3.768   4.045
 5582TIP3   OH216751   3.877   4.175   5.112
 5582TIP3    H116752   3.865   4.238   5.183
 5582TIP3    H216753   3.801   4.117   5.117
 5583TIP3   OH216754   2.872   3.330   2.831
 5583TIP3    H116755   2.905   3.356   2.917
 5583TIP3    H216756   2.948   3.291   2.787
 5584TIP3   OH216757   0.361   5.363   5.129
 5584TIP3    H116758   0.299   5.411   5.075
 5584TIP3    H216759   0.362   5.411   5.212
 5585TIP3   OH216760   0.878   4.666   1.236
 5585TIP3    H116761   0.901   4.729   1.304
 5585TIP3    H216762   0.924   4.696   1.158
 5586TIP3   OH216763   0.241   2.379   2.453
 5586TIP3    H116764   0.184   2.307   2.425
 5586TIP3    H216765   0.329   2.349   2.432
 5587TIP3   OH216766   1.872   2.168   4.108
 5587TIP3    H116767   1.806   2.174   4.039
 5587TIP3    H216768   1.890   2.259   4.132
 5588TIP3   OH216769   5.400   2.497   0.545
 5588TIP3    H116770   5.367   2.517   0.457
 5588TIP3    H216771   5.342   2.426   0.576
 5589TIP3   OH216772   1.486   2.675   1.205
 5589TIP3    H116773   1.556   2.731   1.172
 5589TIP3    H216774   1.503   2.669   1.299
 5590TIP3   OH216775   5.685   0.594   2.328
 5590TIP3    H116776   5.645   0.510   2.305
 5590TIP3    H216777   5.732   0.577   2.409
 5591TIP3   OH216778   3.035   4.562   4.284
 5591TIP3    H116779   2.994   4.478   4.261
 5591TIP3    H216780   2.970   4.606   4.338
 5592TIP3   OH216781   2.169   2.966   0.079
 5592TIP3    H116782   2.099   2.991   0.140
 5592TIP3    H216783   2.129   2.973  -0.008
 5593TIP3   OH216784   1.847   5.112   4.364
 5593TIP3    H116785   1.858   5.161   4.282
 5593TIP3    H216786   1.936   5.084   4.386
 5594TIP3   OH216787   0.985   4.501   0.955
 5594TIP3    H116788   0.892   4.494   0.932
 5594TIP3    H216789   1.024   4.546   0.880
 5595TIP3   OH216790   4.517   5.399   0.050
 5595TIP3    H116791   4.602   5.372   0.017
 5595TIP3    H216792   4.455   5.337   0.011
 5596TIP3   OH216793   3.910   2.035   0.664
 5596TIP3    H116794   3.834   1.988   0.629
 5596TIP3    H216795   3.969   2.045   0.590
 5597TIP3   OH216796   0.095   2.925   0.120
 5597TIP3    H116797   0.138   2.976   0.189
 5597TIP3    H216798   0.161   2.860   0.093
 5598TIP3   OH216799   1.576   0.659   1.976
 5598TIP3    H116800   1.499   0.678   1.922
 5598TIP3    H216801   1.547   0.589   2.035
 5599TIP3   OH216802   3.750   4.977   0.962
 5599TIP3    H116803   3.766   5.036   0.888
 5599TIP3    H216804   3.837   4.962   1.000
 5600TIP3   OH216805   2.848   5.332   4.433
 5600TIP3    H116806   2.925   5.303   4.482
 5600TIP3    H216807   2.822   5.256   4.382
 5601TIP3   OH216808   2.476   1.798   2.038
 5601TIP3    H116809   2.424   1.735   1.988
 5601TIP3    H216810   2.562   1.797   1.996
 5602TIP3   OH216811   2.838   1.850   4.055
 5602TIP3    H116812   2.837   1.910   4.129
 5602TIP3    H216813   2.745   1.834   4.036
 5603TIP3   OH216814   1.984   4.007   1.344
 5603TIP3    H116815   1.986   3.960   1.261
 5603TIP3    H216816   1.909   4.066   1.337
 5604TIP3   OH216817   3.307   5.963   4.909
 5604TIP3    H116818   3.265   5.981   4.825
 5604TIP3    H216819   3.235   5.956   4.971
 5605TIP3   OH216820   4.671   3.969   2.589
 5605TIP3    H116821   4.704   3.895   2.640
 5605TIP3    H216822   4.693   3.948   2.498
 5606TIP3   OH216823   0.511   0.949   5.075
 5606TIP3    H116824   0.512   0.924   5.167
 5606TIP3    H216825   0.478   0.871   5.029
 5607TIP3   OH216826   0.423   3.791   0.846
 5607TIP3    H116827   0.360   3.733   0.804
 5607TIP3    H216828   0.403   3.878   0.810
 5608TIP3   OH216829   1.984   0.161   1.894
 5608TIP3    H116830   1.944   0.207   1.820
 5608TIP3    H216831   2.039   0.094   1.853
 5609TIP3   OH216832   4.355   1.950   1.025
 5609TIP3    H116833   4.278   1.944   1.081
 5609TIP3    H216834   4.346   1.877   0.964
 5610TIP3   OH216835   3.144   0.354   4.195
 5610TIP3    H116836   3.072   0.415   4.179
 5610TIP3    H216837   3.163   0.316   4.110
 5611TIP3   OH216838   3.162   3.564   2.773
 5611TIP3    H116839   3.212   3.617   2.710
 5611TIP3    H216840   3.128   3.628   2.836
 5612TIP3   OH216841   1.431   3.176   4.627
 5612TIP3    H116842   1.337   3.163   4.619
 5612TIP3    H216843   1.441   3.266   4.657
 5613TIP3   OH216844   1.747   0.562   3.268
 5613TIP3    H116845   1.775   0.634   3.325
 5613TIP3    H216846   1.657   0.543   3.296
 5614TIP3   OH216847   5.778   3.815   1.300
 5614TIP3    H116848   5.845   3.875   1.333
 5614TIP3    H216849   5.827   3.746   1.256
 5615TIP3   OH216850   4.918   5.892   2.721
 5615TIP3    H116851   4.924   5.987   2.717
 5615TIP3    H216852   4.958   5.862   2.640
 5616TIP3   OH216853   3.094   2.148   0.955
 5616TIP3    H116854   3.071   2.082   1.020
 5616TIP3    H216855   3.151   2.102   0.893
 5617TIP3   OH216856   4.898   4.789   0.668
 5617TIP3    H116857   4.849   4.859   0.711
 5617TIP3    H216858   4.846   4.768   0.590
 5618TIP3   OH216859   1.985   2.268   5.053
 5618TIP3    H116860   2.071   2.277   5.095
 5618TIP3    H216861   1.991   2.187   5.003
 5619TIP3   OH216862   3.408   1.165   2.577
 5619TIP3    H116863   3.330   1.179   2.630
 5619TIP3    H216864   3.466   1.237   2.598
 5620TIP3   OH216865   1.900   5.243   4.133
 5620TIP3    H116866   1.963   5.311   4.154
 5620TIP3    H216867   1.952   5.173   4.093
 5621TIP3   OH216868   6.075   0.859   4.250
 5621TIP3    H116869   6.059   0.906   4.169
 5621TIP3    H216870   6.072   0.766   4.225
 5622TIP3   OH216871   4.221   1.712   3.019
 5622TIP3    H116872   4.266   1.733   3.101
 5622TIP3    H216873   4.131   1.693   3.045
 5623TIP3   OH216874   1.928   4.164   3.200
 5623TIP3    H116875   1.934   4.139   3.292
 5623TIP3    H216876   2.015   4.147   3.164
 5624TIP3   OH216877   5.939   5.303   4.851
 5624TIP3    H116878   5.916   5.391   4.820
 5624TIP3    H216879   5.942   5.250   4.772
 5625TIP3   OH216880  -0.014   5.198   4.230
 5625TIP3    H116881  -0.010   5.130   4.163
 5625TIP3    H216882   0.065   5.184   4.283
 5626TIP3   OH216883   3.062   1.809   3.925
 5626TIP3    H116884   3.122   1.796   3.998
 5626TIP3    H216885   2.975   1.816   3.966
 5627TIP3   OH216886   4.770   0.930   4.637
 5627TIP3    H116887   4.811   0.861   4.584
 5627TIP3    H216888   4.794   0.908   4.727
 5628TIP3   OH216889   4.222   1.322   0.795
 5628TIP3    H116890   4.275   1.351   0.869
 5628TIP3    H216891   4.196   1.403   0.751
 5629TIP3   OH216892   5.556   4.250   4.876
 5629TIP3    H116893   5.606   4.331   4.886
 5629TIP3    H216894   5.572   4.200   4.956
 5630TIP3   OH216895   1.123   2.724   1.940
 5630TIP3    H116896   1.087   2.636   1.933
 5630TIP3    H216897   1.218   2.711   1.942
 5631TIP3   OH216898   1.647   1.267   3.878
 5631TIP3    H116899   1.701   1.338   3.845
 5631TIP3    H216900   1.565   1.274   3.830
 5632TIP3   OH216901   6.179   2.812   1.490
 5632TIP3    H116902   6.207   2.808   1.581
 5632TIP3    H216903   6.255   2.845   1.442
 5633TIP3   OH216904   2.294   4.700   0.325
 5633TIP3    H116905   2.282   4.740   0.239
 5633TIP3    H216906   2.361   4.633   0.311
 5634TIP3   OH216907   0.302   1.152   4.536
 5634TIP3    H116908   0.331   1.220   4.597
 5634TIP3    H216909   0.297   1.196   4.451
 5635TIP3   OH216910   1.577   2.877   4.342
 5635TIP3    H116911   1.489   2.873   4.306
 5635TIP3    H216912   1.594   2.788   4.374
 5636TIP3   OH216913   4.213   0.156   1.008
 5636TIP3    H116914   4.123   0.125   1.000
 5636TIP3    H216915   4.217   0.234   0.953
 5637TIP3   OH216916   3.424   5.179   1.117
 5637TIP3    H116917   3.361   5.190   1.189
 5637TIP3    H216918   3.501   5.229   1.144
 5638TIP3   OH216919   2.523   3.253   1.497
 5638TIP3    H116920   2.463   3.327   1.502
 5638TIP3    H216921   2.471   3.178   1.523
 5639TIP3   OH216922   3.742   2.443   1.732
 5639TIP3    H116923   3.760   2.530   1.767
 5639TIP3    H216924   3.815   2.389   1.763
 5640TIP3   OH216925   3.653   0.795   0.147
 5640TIP3    H116926   3.629   0.872   0.096
 5640TIP3    H216927   3.592   0.727   0.118
 5641TIP3   OH216928   3.190   2.639   4.295
 5641TIP3    H116929   3.284   2.624   4.287
 5641TIP3    H216930   3.157   2.626   4.206
 5642TIP3   OH216931   6.082   1.740   0.677
 5642TIP3    H116932   6.014   1.720   0.741
 5642TIP3    H216933   6.074   1.672   0.610
 5643TIP3   OH216934   3.387   4.129   3.305
 5643TIP3    H116935   3.318   4.175   3.258
 5643TIP3    H216936   3.406   4.052   3.251
 5644TIP3   OH216937   3.559   1.101   2.254
 5644TIP3    H116938   3.641   1.071   2.293
 5644TIP3    H216939   3.526   1.024   2.207
 5645TIP3   OH216940   4.904   5.754   3.184
 5645TIP3    H116941   4.874   5.837   3.220
 5645TIP3    H216942   4.951   5.712   3.256
 5646TIP3   OH216943   4.133   5.127   0.493
 5646TIP3    H116944   4.228   5.120   0.485
 5646TIP3    H216945   4.100   5.048   0.450
 5647TIP3   OH216946   5.676   1.113   4.319
 5647TIP3    H116947   5.744   1.143   4.258
 5647TIP3    H216948   5.720   1.107   4.404
 5648TIP3   OH216949   0.610   2.217   3.826
 5648TIP3    H116950   0.659   2.283   3.874
 5648TIP3    H216951   0.672   2.145   3.813
 5649TIP3   OH216952   5.515   0.143   3.299
 5649TIP3    H116953   5.512   0.048   3.295
 5649TIP3    H216954   5.427   0.168   3.329
 5650TIP3   OH216955   5.651   4.217   2.253
 5650TIP3    H116956   5.689   4.129   2.243
 5650TIP3    H216957   5.689   4.268   2.182
 5651TIP3   OH216958   3.912   4.033   3.175
 5651TIP3    H116959   4.006   4.049   3.166
 5651TIP3    H216960   3.870   4.099   3.120
 5652TIP3   OH216961   4.636   0.067   0.108
 5652TIP3    H116962   4.709   0.128   0.116
 5652TIP3    H216963   4.591   0.072   0.193
 5653TIP3   OH216964   3.815   0.305   2.610
 5653TIP3    H116965   3.770   0.388   2.595
 5653TIP3    H216966   3.747   0.247   2.645
 5654TIP3   OH216967   0.913   5.151   3.313
 5654TIP3    H116968   0.879   5.101   3.239
 5654TIP3    H216969   0.858   5.125   3.387
 5655TIP3   OH216970   6.189   0.441   0.769
 5655TIP3    H116971   6.245   0.378   0.723
 5655TIP3    H216972   6.243   0.472   0.842
 5656TIP3   OH216973   3.810   3.638   1.705
 5656TIP3    H116974   3.837   3.664   1.793
 5656TIP3    H216975   3.876   3.573   1.678
 5657TIP3   OH216976   0.425   3.773   4.980
 5657TIP3    H116977   0.410   3.855   5.026
 5657TIP3    H216978   0.472   3.718   5.043
 5658TIP3   OH216979   6.173   0.098   3.107
 5658TIP3    H116980   6.157   0.041   3.181
 5658TIP3    H216981   6.267   0.118   3.112
 5659TIP3   OH216982   0.372   0.345   0.641
 5659TIP3    H116983   0.300   0.287   0.663
 5659TIP3    H216984   0.333   0.433   0.640
 5660TIP3   OH216985   2.520   2.596   3.783
 5660TIP3    H116986   2.603   2.586   3.735
 5660TIP3    H216987   2.461   2.533   3.743
 5661TIP3   OH216988   4.603   0.546   3.251
 5661TIP3    H116989   4.582   0.531   3.343
 5661TIP3    H216990   4.526   0.591   3.216
 5662TIP3   OH216991   3.059   1.393   5.088
 5662TIP3    H116992   3.111   1.407   5.167
 5662TIP3    H216993   3.049   1.481   5.050
 5663TIP3   OH216994   1.842   4.284   1.738
 5663TIP3    H116995   1.764   4.306   1.789
 5663TIP3    H216996   1.839   4.188   1.731
 5664TIP3   OH216997   4.654   4.590   2.014
 5664TIP3    H116998   4.720   4.546   2.068
 5664TIP3    H216999   4.701   4.614   1.934
 5665TIP3   OH217000   0.437   4.203   1.922
 5665TIP3    H117001   0.511   4.159   1.881
 5665TIP3    H217002   0.474   4.282   1.961
 5666TIP3   OH217003   3.810   2.219   4.384
 5666TIP3    H117004   3.878   2.262   4.435
 5666TIP3    H217005   3.855   2.184   4.307
 5667TIP3   OH217006   0.798   4.986   4.704
 5667TIP3    H117007   0.855   4.982   4.628
 5667TIP3    H217008   0.851   4.953   4.777
 5668TIP3   OH217009   5.681   4.147   1.122
 5668TIP3    H117010   5.748   4.177   1.182
 5668TIP3    H217011   5.730   4.116   1.045
 5669TIP3   OH217012   2.398   5.279   3.397
 5669TIP3    H117013   2.409   5.372   3.377
 5669TIP3    H217014   2.414   5.273   3.492
 5670TIP3   OH217015   4.622   4.212   0.936
 5670TIP3    H117016   4.688   4.164   0.886
 5670TIP3    H217017   4.634   4.303   0.910
 5671TIP3   OH217018   4.082   2.742   4.020
 5671TIP3    H117019   4.106   2.662   3.973
 5671TIP3    H217020   4.114   2.728   4.109
 5672TIP3   OH217021   1.329   0.231   1.512
 5672TIP3    H117022   1.241   0.194   1.505
 5672TIP3    H217023   1.366   0.223   1.425
 5673TIP3   OH217024   0.501   2.428   4.250
 5673TIP3    H117025   0.538   2.491   4.188
 5673TIP3    H217026   0.407   2.429   4.232
 5674TIP3   OH217027   5.538   4.746   1.076
 5674TIP3    H117028   5.613   4.750   1.017
 5674TIP3    H217029   5.559   4.809   1.145
 5675TIP3   OH217030   0.113   4.992   4.079
 5675TIP3    H117031   0.078   4.953   3.999
 5675TIP3    H217032   0.078   4.937   4.149
 5676TIP3   OH217033   1.017   3.971   0.562
 5676TIP3    H117034   1.009   3.881   0.593
 5676TIP3    H217035   0.943   3.983   0.503
 5677TIP3   OH217036   2.617   4.165   1.870
 5677TIP3    H117037   2.552   4.106   1.831
 5677TIP3    H217038   2.675   4.188   1.798
 5678TIP3   OH217039   2.825   4.863   3.257
 5678TIP3    H117040   2.833   4.863   3.162
 5678TIP3    H217041   2.899   4.916   3.287
 5679TIP3   OH217042   4.846   0.372   4.659
 5679TIP3    H117043   4.807   0.357   4.573
 5679TIP3    H217044   4.927   0.420   4.641
 5680TIP3   OH217045   2.516   5.138   3.935
 5680TIP3    H117046   2.458   5.065   3.958
 5680TIP3    H217047   2.604   5.102   3.946
 5681TIP3   OH217048   0.049   2.299   4.330
 5681TIP3    H117049   0.042   2.250   4.412
 5681TIP3    H217050  -0.041   2.328   4.312
 5682TIP3   OH217051   3.237   0.883   0.826
 5682TIP3    H117052   3.224   0.841   0.741
 5682TIP3    H217053   3.154   0.869   0.872
 5683TIP3   OH217054   0.684   0.480   2.449
 5683TIP3    H117055   0.687   0.391   2.414
 5683TIP3    H217056   0.775   0.499   2.473
 5684TIP3   OH217057   2.544   5.047   5.173
 5684TIP3    H117058   2.473   4.985   5.190
 5684TIP3    H217059   2.622   5.004   5.206
 5685TIP3   OH217060   6.021   4.475   4.093
 5685TIP3    H117061   6.003   4.382   4.085
 5685TIP3    H217062   6.089   4.481   4.160
 5686TIP3   OH217063   5.442   2.279   1.037
 5686TIP3    H117064   5.482   2.196   1.014
 5686TIP3    H217065   5.495   2.312   1.110
 5687TIP3   OH217066   0.920   2.129   4.949
 5687TIP3    H117067   0.859   2.081   5.005
 5687TIP3    H217068   0.898   2.101   4.860
 5688TIP3   OH217069   1.456   4.874   1.266
 5688TIP3    H117070   1.382   4.881   1.207
 5688TIP3    H217071   1.494   4.788   1.247
 5689TIP3   OH217072   3.344   2.693   1.912
 5689TIP3    H117073   3.412   2.630   1.937
 5689TIP3    H217074   3.262   2.644   1.922
 5690TIP3   OH217075   6.064   1.537   3.594
 5690TIP3    H117076   6.133   1.591   3.556
 5690TIP3    H217077   5.983   1.578   3.565
 5691TIP3   OH217078   1.792   2.917   4.815
 5691TIP3    H117079   1.714   2.908   4.759
 5691TIP3    H217080   1.780   2.850   4.882
 5692TIP3   OH217081   4.896   1.419   0.434
 5692TIP3    H117082   4.951   1.354   0.390
 5692TIP3    H217083   4.807   1.384   0.426
 5693TIP3   OH217084   1.364   2.366   5.003
 5693TIP3    H117085   1.307   2.302   4.961
 5693TIP3    H217086   1.342   2.449   4.961
 5694TIP3   OH217087   3.591   4.560   2.055
 5694TIP3    H117088   3.527   4.630   2.067
 5694TIP3    H217089   3.607   4.559   1.960
 5695TIP3   OH217090   3.658   0.132   2.383
 5695TIP3    H117091   3.620   0.125   2.471
 5695TIP3    H217092   3.750   0.112   2.395
 5696TIP3   OH217093   5.019   2.806   1.412
 5696TIP3    H117094   5.045   2.785   1.502
 5696TIP3    H217095   4.924   2.813   1.415
 5697TIP3   OH217096   5.351   5.619   1.762
 5697TIP3    H117097   5.366   5.528   1.789
 5697TIP3    H217098   5.317   5.611   1.673
 5698TIP3   OH217099   3.643   3.400   0.107
 5698TIP3    H117100   3.679   3.376   0.193
 5698TIP3    H217101   3.632   3.317   0.062
 5699TIP3   OH217102   1.564   2.843   2.488
 5699TIP3    H117103   1.609   2.876   2.565
 5699TIP3    H217104   1.630   2.789   2.443
 5700TIP3   OH217105   4.397   0.393   4.003
 5700TIP3    H117106   4.456   0.322   3.976
 5700TIP3    H217107   4.314   0.374   3.958
 5701TIP3   OH217108   3.555   2.195   0.609
 5701TIP3    H117109   3.614   2.122   0.589
 5701TIP3    H217110   3.468   2.161   0.590
 5702TIP3   OH217111   5.725   2.344   0.272
 5702TIP3    H117112   5.726   2.316   0.363
 5702TIP3    H217113   5.807   2.311   0.236
 5703TIP3   OH217114   0.681   5.459   3.364
 5703TIP3    H117115   0.623   5.516   3.415
 5703TIP3    H217116   0.683   5.378   3.414
 5704TIP3   OH217117   4.765   4.774   4.835
 5704TIP3    H117118   4.774   4.834   4.908
 5704TIP3    H217119   4.819   4.812   4.766
 5705TIP3   OH217120   5.380   4.906   3.963
 5705TIP3    H117121   5.442   4.957   3.911
 5705TIP3    H217122   5.296   4.919   3.920
 5706TIP3   OH217123   1.937   1.928   0.796
 5706TIP3    H117124   1.892   1.864   0.851
 5706TIP3    H217125   2.024   1.891   0.781
 5707TIP3   OH217126   2.576   1.437   2.867
 5707TIP3    H117127   2.581   1.471   2.778
 5707TIP3    H217128   2.593   1.514   2.923
 5708TIP3   OH217129   1.391   3.322   0.538
 5708TIP3    H117130   1.342   3.356   0.612
 5708TIP3    H217131   1.466   3.278   0.577
 5709TIP3   OH217132   2.186   0.820   2.046
 5709TIP3    H117133   2.119   0.885   2.065
 5709TIP3    H217134   2.150   0.768   1.974
 5710TIP3   OH217135   0.360   5.349   3.410
 5710TIP3    H117136   0.366   5.445   3.406
 5710TIP3    H217137   0.369   5.328   3.503
 5711TIP3   OH217138   4.923   3.436   3.760
 5711TIP3    H117139   4.947   3.485   3.839
 5711TIP3    H217140   4.941   3.345   3.782
 5712TIP3   OH217141   4.820   2.975   1.283
 5712TIP3    H117142   4.729   2.969   1.312
 5712TIP3    H217143   4.853   3.055   1.324
 5713TIP3   OH217144   3.172   1.804   3.669
 5713TIP3    H117145   3.233   1.878   3.660
 5713TIP3    H217146   3.124   1.822   3.750
 5714TIP3   OH217147   2.761   5.336   3.606
 5714TIP3    H117148   2.779   5.291   3.524
 5714TIP3    H217149   2.768   5.429   3.584
 5715TIP3   OH217150   5.736   2.046   0.128
 5715TIP3    H117151   5.642   2.031   0.126
 5715TIP3    H217152   5.763   2.046   0.036
 5716TIP3   OH217153   0.560   0.318   0.477
 5716TIP3    H117154   0.479   0.321   0.527
 5716TIP3    H217155   0.606   0.241   0.508
 5717TIP3   OH217156   5.864   5.712   2.988
 5717TIP3    H117157   5.933   5.733   2.926
 5717TIP3    H217158   5.814   5.793   2.997
 5718TIP3   OH217159   1.298   3.696   2.698
 5718TIP3    H117160   1.285   3.791   2.700
 5718TIP3    H217161   1.265   3.670   2.612
 5719TIP3   OH217162   0.044   2.565   1.059
 5719TIP3    H117163   0.005   2.486   1.021
 5719TIP3    H217164   0.018   2.636   1.000
 5720TIP3   OH217165   2.172   0.031   4.223
 5720TIP3    H117166   2.118  -0.038   4.185
 5720TIP3    H217167   2.161   0.021   4.318
 5721TIP3   OH217168   2.913   1.057   1.875
 5721TIP3    H117169   2.934   1.121   1.808
 5721TIP3    H217170   2.923   0.972   1.831
 5722TIP3   OH217171   0.214   5.752   2.244
 5722TIP3    H117172   0.145   5.761   2.178
 5722TIP3    H217173   0.216   5.837   2.289
 5723TIP3   OH217174   4.703   0.908   1.378
 5723TIP3    H117175   4.634   0.860   1.423
 5723TIP3    H217176   4.705   0.994   1.421
 5724TIP3   OH217177   2.671   4.978   0.216
 5724TIP3    H117178   2.635   5.066   0.203
 5724TIP3    H217179   2.634   4.949   0.299
 5725TIP3   OH217180   4.647   2.837   4.222
 5725TIP3    H117181   4.674   2.891   4.296
 5725TIP3    H217182   4.724   2.831   4.166
 5726TIP3   OH217183   4.681   0.894   0.687
 5726TIP3    H117184   4.768   0.892   0.725
 5726TIP3    H217185   4.648   0.982   0.707
 5727TIP3   OH217186   4.629   3.873   2.343
 5727TIP3    H117187   4.623   3.779   2.363
 5727TIP3    H217188   4.597   3.880   2.253
 5728TIP3   OH217189   0.147   0.701   4.699
 5728TIP3    H117190   0.158   0.738   4.612
 5728TIP3    H217191   0.224   0.645   4.710
 5729TIP3   OH217192   0.316   0.845   2.019
 5729TIP3    H117193   0.379   0.788   1.975
 5729TIP3    H217194   0.253   0.785   2.059
 5730TIP3   OH217195   3.092   1.509   2.129
 5730TIP3    H117196   3.020   1.465   2.174
 5730TIP3    H217197   3.159   1.441   2.118
 5731TIP3   OH217198   2.317   3.251   5.071
 5731TIP3    H117199   2.405   3.254   5.108
 5731TIP3    H217200   2.316   3.173   5.016
 5732TIP3   OH217201   6.286   5.413   0.778
 5732TIP3    H117202   6.216   5.384   0.838
 5732TIP3    H217203   6.363   5.364   0.806
 5733TIP3   OH217204   2.878   2.962   0.145
 5733TIP3    H117205   2.837   2.958   0.231
 5733TIP3    H217206   2.970   2.984   0.163
 5734TIP3   OH217207   4.806   1.794   1.306
 5734TIP3    H117208   4.812   1.707   1.345
 5734TIP3    H217209   4.744   1.841   1.362
 5735TIP3   OH217210   1.087   1.961   4.473
 5735TIP3    H117211   1.132   2.041   4.501
 5735TIP3    H217212   1.079   1.910   4.554
 5736TIP3   OH217213   3.284   3.060   4.965
 5736TIP3    H117214   3.267   3.058   5.059
 5736TIP3    H217215   3.297   3.153   4.945
 5737TIP3   OH217216   2.910   3.973   3.616
 5737TIP3    H117217   2.946   4.023   3.689
 5737TIP3    H217218   2.948   4.013   3.538
 5738TIP3   OH217219   3.189   1.497   0.487
 5738TIP3    H117220   3.283   1.501   0.472
 5738TIP3    H217221   3.150   1.506   0.399
 5739TIP3   OH217222   5.658   2.738   3.759
 5739TIP3    H117223   5.618   2.693   3.684
 5739TIP3    H217224   5.680   2.667   3.820
 5740TIP3   OH217225   2.153   1.000   0.505
 5740TIP3    H117226   2.064   1.000   0.538
 5740TIP3    H217227   2.148   1.046   0.421
 5741TIP3   OH217228   4.339   4.887   3.160
 5741TIP3    H117229   4.251   4.864   3.192
 5741TIP3    H217230   4.390   4.807   3.170
 5742TIP3   OH217231   4.174   1.267   1.680
 5742TIP3    H117232   4.197   1.335   1.616
 5742TIP3    H217233   4.238   1.197   1.665
 5743TIP3   OH217234   2.859   3.225   3.597
 5743TIP3    H117235   2.765   3.236   3.584
 5743TIP3    H217236   2.897   3.309   3.572
 5744TIP3   OH217237   1.463   5.607   4.907
 5744TIP3    H117238   1.412   5.541   4.860
 5744TIP3    H217239   1.449   5.586   4.999
 5745TIP3   OH217240   0.336   2.631   1.395
 5745TIP3    H117241   0.396   2.668   1.331
 5745TIP3    H217242   0.347   2.685   1.473
 5746TIP3   OH217243   3.365   3.528   3.261
 5746TIP3    H117244   3.349   3.608   3.210
 5746TIP3    H217245   3.316   3.542   3.342
 5747TIP3   OH217246   3.407   5.538   0.846
 5747TIP3    H117247   3.482   5.592   0.869
 5747TIP3    H217248   3.443   5.451   0.831
 5748TIP3   OH217249   3.768   5.947   0.560
 5748TIP3    H117250   3.734   6.013   0.500
 5748TIP3    H217251   3.808   5.881   0.504
 5749TIP3   OH217252   1.759   1.781   1.177
 5749TIP3    H117253   1.763   1.755   1.269
 5749TIP3    H217254   1.708   1.862   1.177
 5750TIP3   OH217255   4.797   0.792   3.014
 5750TIP3    H117256   4.830   0.869   2.967
 5750TIP3    H217257   4.739   0.828   3.081
 5751TIP3   OH217258   5.280   3.798   1.129
 5751TIP3    H117259   5.356   3.806   1.186
 5751TIP3    H217260   5.223   3.870   1.155
 5752TIP3   OH217261   3.315   5.421   0.075
 5752TIP3    H117262   3.401   5.383   0.092
 5752TIP3    H217263   3.298   5.405  -0.018
 5753TIP3   OH217264   0.585   1.554   3.730
 5753TIP3    H117265   0.493   1.536   3.750
 5753TIP3    H217266   0.584   1.632   3.675
 5754TIP3   OH217267   4.109   2.036   5.163
 5754TIP3    H117268   4.141   2.016   5.074
 5754TIP3    H217269   4.061   1.957   5.189
 5755TIP3   OH217270   5.291   3.848   0.376
 5755TIP3    H117271   5.299   3.826   0.283
 5755TIP3    H217272   5.329   3.773   0.422
 5756TIP3   OH217273   3.727   4.909   1.592
 5756TIP3    H117274   3.639   4.938   1.616
 5756TIP3    H217275   3.712   4.836   1.532
 5757TIP3   OH217276   1.643   4.095   1.536
 5757TIP3    H117277   1.570   4.109   1.596
 5757TIP3    H217278   1.674   4.006   1.555
 5758TIP3   OH217279   0.776   1.773   4.592
 5758TIP3    H117280   0.770   1.782   4.687
 5758TIP3    H217281   0.690   1.798   4.559
 5759TIP3   OH217282   3.144   4.022   4.682
 5759TIP3    H117283   3.228   4.038   4.641
 5759TIP3    H217284   3.085   4.086   4.643
 5760TIP3   OH217285   4.157   4.046   2.281
 5760TIP3    H117286   4.221   3.998   2.333
 5760TIP3    H217287   4.171   4.138   2.304
 5761TIP3   OH217288   0.059   4.408   2.316
 5761TIP3    H117289   0.018   4.482   2.271
 5761TIP3    H217290  -0.014   4.361   2.355
 5762TIP3   OH217291   3.779   3.659   1.992
 5762TIP3    H117292   3.865   3.651   2.033
 5762TIP3    H217293   3.722   3.601   2.043
 5763TIP3   OH217294   1.207   1.155   4.177
 5763TIP3    H117295   1.286   1.129   4.224
 5763TIP3    H217296   1.163   1.073   4.156
 5764TIP3   OH217297   5.762   3.349   0.561
 5764TIP3    H117298   5.699   3.371   0.493
 5764TIP3    H217299   5.715   3.288   0.619
 5765TIP3   OH217300   2.852   2.367   3.090
 5765TIP3    H117301   2.910   2.332   3.156
 5765TIP3    H217302   2.818   2.448   3.128
 5766TIP3   OH217303   5.892   3.818   3.423
 5766TIP3    H117304   5.891   3.858   3.510
 5766TIP3    H217305   5.984   3.811   3.401
 5767TIP3   OH217306   2.465   3.563   2.037
 5767TIP3    H117307   2.535   3.577   2.101
 5767TIP3    H217308   2.506   3.583   1.952
 5768TIP3   OH217309   6.087   2.709   0.535
 5768TIP3    H117310   6.048   2.736   0.619
 5768TIP3    H217311   6.087   2.788   0.482
 5769TIP3   OH217312   0.265   1.867   0.105
 5769TIP3    H117313   0.230   1.778   0.099
 5769TIP3    H217314   0.192   1.918   0.141
 5770TIP3   OH217315   3.345   5.242   1.899
 5770TIP3    H117316   3.267   5.269   1.946
 5770TIP3    H217317   3.391   5.183   1.959
 5771TIP3   OH217318   3.910   5.380   3.816
 5771TIP3    H117319   4.000   5.348   3.819
 5771TIP3    H217320   3.869   5.331   3.745
 5772TIP3   OH217321   3.381   2.206   1.741
 5772TIP3    H117322   3.444   2.148   1.699
 5772TIP3    H217323   3.371   2.171   1.829
 5773TIP3   OH217324   1.340   0.886   2.210
 5773TIP3    H117325   1.278   0.921   2.146
 5773TIP3    H217326   1.332   0.791   2.203
 5774TIP3   OH217327   0.284   0.574   3.120
 5774TIP3    H117328   0.261   0.659   3.083
 5774TIP3    H217329   0.350   0.593   3.187
 5775TIP3   OH217330   1.802   3.724   1.922
 5775TIP3    H117331   1.893   3.701   1.940
 5775TIP3    H217332   1.805   3.811   1.883
 5776TIP3   OH217333   3.132   4.149   3.502
 5776TIP3    H117334   3.060   4.210   3.519
 5776TIP3    H217335   3.207   4.189   3.545
 5777TIP3   OH217336   2.716   3.596   2.488
 5777TIP3    H117337   2.664   3.676   2.495
 5777TIP3    H217338   2.761   3.588   2.573
 5778TIP3   OH217339   4.811   4.907   3.441
 5778TIP3    H117340   4.828   4.869   3.356
 5778TIP3    H217341   4.717   4.925   3.441
 5779TIP3   OH217342   0.672   5.425   1.774
 5779TIP3    H117343   0.625   5.342   1.768
 5779TIP3    H217344   0.736   5.421   1.703
 5780TIP3   OH217345   3.665   3.027   0.511
 5780TIP3    H117346   3.587   2.975   0.493
 5780TIP3    H217347   3.737   2.964   0.509
 5781TIP3   OH217348   0.174   4.931   3.263
 5781TIP3    H117349   0.178   4.904   3.171
 5781TIP3    H217350   0.176   5.027   3.259
 5782TIP3   OH217351   4.870   1.471   3.118
 5782TIP3    H117352   4.958   1.506   3.107
 5782TIP3    H217353   4.819   1.508   3.046
 5783TIP3   OH217354   1.737   5.160   2.640
 5783TIP3    H117355   1.796   5.090   2.667
 5783TIP3    H217356   1.739   5.223   2.712
 5784TIP3   OH217357   3.394   2.499   2.380
 5784TIP3    H117358   3.370   2.575   2.328
 5784TIP3    H217359   3.321   2.487   2.441
 5785TIP3   OH217360   4.404   1.132   4.756
 5785TIP3    H117361   4.492   1.136   4.717
 5785TIP3    H217362   4.364   1.216   4.733
 5786TIP3   OH217363   5.951   4.216   4.056
 5786TIP3    H117364   5.942   4.207   4.151
 5786TIP3    H217365   5.862   4.211   4.022
 5787TIP3   OH217366   2.152   1.758   0.818
 5787TIP3    H117367   2.243   1.779   0.793
 5787TIP3    H217368   2.137   1.671   0.783
 5788TIP3   OH217369   3.345   0.102   1.342
 5788TIP3    H117370   3.251   0.118   1.343
 5788TIP3    H217371   3.377   0.149   1.264
 5789TIP3   OH217372   0.576   4.936   2.934
 5789TIP3    H117373   0.518   4.925   3.010
 5789TIP3    H217374   0.528   4.897   2.861
 5790TIP3   OH217375   6.247   0.197   4.743
 5790TIP3    H117376   6.262   0.288   4.715
 5790TIP3    H217377   6.237   0.203   4.838
 5791TIP3   OH217378   2.097   5.247   3.301
 5791TIP3    H117379   2.133   5.288   3.222
 5791TIP3    H217380   2.129   5.157   3.297
 5792TIP3   OH217381   4.336   0.574   4.231
 5792TIP3    H117382   4.292   0.510   4.176
 5792TIP3    H217383   4.427   0.573   4.202
 5793TIP3   OH217384   2.314   4.895   3.260
 5793TIP3    H117385   2.283   4.962   3.199
 5793TIP3    H217386   2.291   4.812   3.218
 5794TIP3   OH217387   4.282   0.824   3.389
 5794TIP3    H117388   4.218   0.857   3.452
 5794TIP3    H217389   4.320   0.902   3.350
 5795TIP3   OH217390   5.894   5.445   1.979
 5795TIP3    H117391   5.915   5.460   1.887
 5795TIP3    H217392   5.951   5.372   2.005
 5796TIP3   OH217393   2.978   2.721   0.977
 5796TIP3    H117394   3.066   2.732   1.013
 5796TIP3    H217395   2.985   2.753   0.887
 5797TIP3   OH217396   4.538   5.863   4.878
 5797TIP3    H117397   4.535   5.839   4.971
 5797TIP3    H217398   4.613   5.921   4.870
 5798TIP3   OH217399   4.606   2.029   1.174
 5798TIP3    H117400   4.574   2.092   1.239
 5798TIP3    H217401   4.526   1.996   1.132
 5799TIP3   OH217402   0.913   3.627   0.024
 5799TIP3    H117403   0.885   3.668   0.105
 5799TIP3    H217404   1.001   3.596   0.042
 5800TIP3   OH217405   2.019   0.710   0.540
 5800TIP3    H117406   1.988   0.794   0.572
 5800TIP3    H217407   2.036   0.725   0.447
 5801TIP3   OH217408   0.895   4.722   2.530
 5801TIP3    H117409   0.824   4.786   2.522
 5801TIP3    H217410   0.956   4.745   2.459
 5802TIP3   OH217411   0.401   4.265   3.545
 5802TIP3    H117412   0.488   4.250   3.507
 5802TIP3    H217413   0.345   4.201   3.502
 5803TIP3   OH217414   0.866   1.006   0.084
 5803TIP3    H117415   0.825   1.090   0.104
 5803TIP3    H217416   0.902   1.018  -0.004
 5804TIP3   OH217417   5.846   4.716   2.692
 5804TIP3    H117418   5.925   4.707   2.637
 5804TIP3    H217419   5.776   4.734   2.629
 5805TIP3   OH217420   1.729   2.500   3.270
 5805TIP3    H117421   1.634   2.505   3.278
 5805TIP3    H217422   1.745   2.421   3.218
 5806TIP3   OH217423   2.587   0.898   3.934
 5806TIP3    H117424   2.519   0.848   3.978
 5806TIP3    H217425   2.558   0.904   3.843
 5807TIP3   OH217426   5.130   1.902   4.371
 5807TIP3    H117427   5.183   1.973   4.334
 5807TIP3    H217428   5.128   1.835   4.303
 5808TIP3   OH217429   3.111   4.393   1.025
 5808TIP3    H117430   3.017   4.400   1.007
 5808TIP3    H217431   3.116   4.363   1.116
 5809TIP3   OH217432   5.207   2.699   2.040
 5809TIP3    H117433   5.217   2.608   2.011
 5809TIP3    H217434   5.275   2.746   1.991
 5810TIP3   OH217435   2.406   0.368   5.105
 5810TIP3    H117436   2.435   0.365   5.196
 5810TIP3    H217437   2.313   0.389   5.109
 5811TIP3   OH217438   2.661   4.531   5.005
 5811TIP3    H117439   2.748   4.495   4.990
 5811TIP3    H217440   2.640   4.578   4.924
 5812TIP3   OH217441   1.990   2.605   2.229
 5812TIP3    H117442   2.082   2.633   2.237
 5812TIP3    H217443   1.941   2.687   2.221
 5813TIP3   OH217444   2.823   5.076   3.957
 5813TIP3    H117445   2.844   4.982   3.961
 5813TIP3    H217446   2.889   5.113   3.898
 5814TIP3   OH217447   2.614   3.641   0.901
 5814TIP3    H117448   2.703   3.620   0.930
 5814TIP3    H217449   2.558   3.583   0.952
 5815TIP3   OH217450   2.386   5.401   3.948
 5815TIP3    H117451   2.446   5.331   3.921
 5815TIP3    H217452   2.444   5.473   3.972
 5816TIP3   OH217453   2.102   0.692   1.827
 5816TIP3    H117454   2.087   0.599   1.815
 5816TIP3    H217455   2.166   0.715   1.760
 5817TIP3   OH217456   1.473   0.011   0.834
 5817TIP3    H117457   1.391  -0.020   0.871
 5817TIP3    H217458   1.451   0.034   0.744
 5818TIP3   OH217459   5.624   2.765   0.947
 5818TIP3    H117460   5.560   2.745   0.879
 5818TIP3    H217461   5.571   2.782   1.025
 5819TIP3   OH217462   1.040   3.896   1.443
 5819TIP3    H117463   0.997   3.894   1.528
 5819TIP3    H217464   1.063   3.805   1.425
 5820TIP3   OH217465   3.185   1.019   1.368
 5820TIP3    H117466   3.233   0.946   1.406
 5820TIP3    H217467   3.167   1.078   1.441
 5821TIP3   OH217468   0.192   4.276   5.088
 5821TIP3    H117469   0.276   4.311   5.114
 5821TIP3    H217470   0.129   4.317   5.147
 5822TIP3   OH217471   4.323   4.614   3.254
 5822TIP3    H117472   4.321   4.567   3.338
 5822TIP3    H217473   4.232   4.636   3.237
 5823TIP3   OH217474   1.056   0.751   3.589
 5823TIP3    H117475   1.053   0.847   3.590
 5823TIP3    H217476   0.968   0.724   3.613
 5824TIP3   OH217477   4.306   2.014   4.048
 5824TIP3    H117478   4.367   2.036   4.119
 5824TIP3    H217479   4.222   2.049   4.078
 5825TIP3   OH217480   2.489   4.145   3.130
 5825TIP3    H117481   2.428   4.081   3.092
 5825TIP3    H217482   2.522   4.194   3.055
 5826TIP3   OH217483   0.658   3.171   1.660
 5826TIP3    H117484   0.604   3.163   1.581
 5826TIP3    H217485   0.683   3.081   1.681
 5827TIP3   OH217486   4.723   1.927   2.858
 5827TIP3    H117487   4.729   1.832   2.844
 5827TIP3    H217488   4.811   1.959   2.838
 5828TIP3   OH217489   0.207   5.003   2.455
 5828TIP3    H117490   0.296   5.013   2.421
 5828TIP3    H217491   0.170   4.932   2.404
 5829TIP3   OH217492   0.402   4.025   2.696
 5829TIP3    H117493   0.314   4.056   2.714
 5829TIP3    H217494   0.390   3.947   2.641
 5830TIP3   OH217495   3.454   4.481   3.173
 5830TIP3    H117496   3.360   4.487   3.190
 5830TIP3    H217497   3.492   4.550   3.227
 5831TIP3   OH217498   5.797   5.501   0.442
 5831TIP3    H117499   5.835   5.448   0.372
 5831TIP3    H217500   5.753   5.572   0.396
 5832TIP3   OH217501   1.954   3.348   4.282
 5832TIP3    H117502   1.990   3.420   4.333
 5832TIP3    H217503   1.936   3.279   4.346
 5833TIP3   OH217504   6.011   1.120   4.711
 5833TIP3    H117505   6.059   1.042   4.682
 5833TIP3    H217506   6.052   1.143   4.794
 5834TIP3   OH217507   1.200   5.467   4.838
 5834TIP3    H117508   1.202   5.377   4.805
 5834TIP3    H217509   1.178   5.521   4.763
 5835TIP3   OH217510   2.386   3.919   2.964
 5835TIP3    H117511   2.381   3.912   2.869
 5835TIP3    H217512   2.445   3.848   2.990
 5836TIP3   OH217513   3.063   4.955   4.825
 5836TIP3    H117514   3.142   4.960   4.772
 5836TIP3    H217515   3.084   5.004   4.905
 5837TIP3   OH217516   0.906   5.875   0.149
 5837TIP3    H117517   0.853   5.831   0.082
 5837TIP3    H217518   0.854   5.952   0.174
 5838TIP3   OH217519   2.368   1.191   3.136
 5838TIP3    H117520   2.315   1.113   3.148
 5838TIP3    H217521   2.391   1.192   3.043
 5839TIP3   OH217522   3.258   5.299   2.515
 5839TIP3    H117523   3.291   5.235   2.579
 5839TIP3    H217524   3.256   5.252   2.432
 5840TIP3   OH217525   0.753   2.078   0.568
 5840TIP3    H117526   0.844   2.106   0.559
 5840TIP3    H217527   0.739   2.071   0.663
 5841TIP3   OH217528   3.223   1.237   2.787
 5841TIP3    H117529   3.156   1.173   2.762
 5841TIP3    H217530   3.209   1.251   2.880
 5842TIP3   OH217531   2.850   0.093   0.242
 5842TIP3    H117532   2.894   0.095   0.327
 5842TIP3    H217533   2.758   0.109   0.262
 5843TIP3   OH217534   0.076   0.902   0.041
 5843TIP3    H117535   0.090   0.926  -0.051
 5843TIP3    H217536   0.153   0.935   0.087
 5844TIP3   OH217537   1.151   5.827   2.457
 5844TIP3    H117538   1.123   5.912   2.423
 5844TIP3    H217539   1.084   5.766   2.428
 5845TIP3   OH217540   1.794   5.354   4.618
 5845TIP3    H117541   1.824   5.359   4.709
 5845TIP3    H217542   1.787   5.446   4.591
 5846TIP3   OH217543   2.687   5.384   1.438
 5846TIP3    H117544   2.663   5.465   1.394
 5846TIP3    H217545   2.612   5.326   1.424
 5847TIP3   OH217546   1.856   3.865   2.930
 5847TIP3    H117547   1.787   3.810   2.891
 5847TIP3    H217548   1.845   3.950   2.887
 5848TIP3   OH217549   5.795   2.492   4.122
 5848TIP3    H117550   5.763   2.496   4.212
 5848TIP3    H217551   5.848   2.571   4.112
 5849TIP3   OH217552   0.400   5.455   2.047
 5849TIP3    H117553   0.388   5.546   2.021
 5849TIP3    H217554   0.334   5.407   1.997
 5850TIP3   OH217555   5.526   4.932   4.544
 5850TIP3    H117556   5.528   4.981   4.462
 5850TIP3    H217557   5.534   4.840   4.518
 5851TIP3   OH217558   4.400   4.106   0.019
 5851TIP3    H117559   4.384   4.109   0.113
 5851TIP3    H217560   4.402   4.013  -0.003
 5852TIP3   OH217561   0.925   5.926   3.930
 5852TIP3    H117562   0.969   5.859   3.877
 5852TIP3    H217563   0.899   5.881   4.010
 5853TIP3   OH217564   3.692   4.485   1.801
 5853TIP3    H117565   3.693   4.394   1.828
 5853TIP3    H217566   3.676   4.481   1.706
 5854TIP3   OH217567   4.761   0.113   0.430
 5854TIP3    H117568   4.794   0.099   0.519
 5854TIP3    H217569   4.668   0.093   0.435
 5855TIP3   OH217570   6.185   1.105   2.026
 5855TIP3    H117571   6.156   1.196   2.037
 5855TIP3    H217572   6.279   1.107   2.044
 5856TIP3   OH217573   5.889   3.433   2.758
 5856TIP3    H117574   5.964   3.408   2.812
 5856TIP3    H217575   5.872   3.356   2.704
 5857TIP3   OH217576   3.616   4.485   4.163
 5857TIP3    H117577   3.588   4.394   4.170
 5857TIP3    H217578   3.681   4.496   4.232
 5858TIP3   OH217579   2.414   1.842   4.935
 5858TIP3    H117580   2.439   1.750   4.926
 5858TIP3    H217581   2.429   1.878   4.847
 5859TIP3   OH217582   1.986   1.216   5.067
 5859TIP3    H117583   1.925   1.289   5.061
 5859TIP3    H217584   2.070   1.253   5.041
 5860TIP3   OH217585   6.138   1.341   1.791
 5860TIP3    H117586   6.122   1.364   1.883
 5860TIP3    H217587   6.051   1.345   1.751
 5861TIP3   OH217588   3.757   3.481   2.747
 5861TIP3    H117589   3.668   3.455   2.723
 5861TIP3    H217590   3.746   3.549   2.813
 5862TIP3   OH217591   3.139   2.535   1.978
 5862TIP3    H117592   3.143   2.469   2.047
 5862TIP3    H217593   3.080   2.498   1.912
 5863TIP3   OH217594   0.185   1.688   2.256
 5863TIP3    H117595   0.210   1.600   2.284
 5863TIP3    H217596   0.172   1.680   2.161
 5864TIP3   OH217597   3.455   2.271   0.163
 5864TIP3    H117598   3.472   2.199   0.223
 5864TIP3    H217599   3.502   2.247   0.083
 5865TIP3   OH217600   0.361   0.564   4.737
 5865TIP3    H117601   0.359   0.481   4.784
 5865TIP3    H217602   0.412   0.546   4.658
 5866TIP3   OH217603   2.379   4.909   3.951
 5866TIP3    H117604   2.330   4.969   3.894
 5866TIP3    H217605   2.312   4.869   4.007
 5867TIP3   OH217606   3.336   2.052   1.980
 5867TIP3    H117607   3.253   2.066   2.025
 5867TIP3    H217608   3.391   2.008   2.044
 5868TIP3   OH217609   5.180   5.674   0.110
 5868TIP3    H117610   5.118   5.601   0.106
 5868TIP3    H217611   5.251   5.642   0.166
 5869TIP3   OH217612   5.683   2.128   4.443
 5869TIP3    H117613   5.760   2.155   4.492
 5869TIP3    H217614   5.701   2.154   4.353
 5870TIP3   OH217615   0.268   2.876   0.994
 5870TIP3    H117616   0.174   2.874   1.014
 5870TIP3    H217617   0.274   2.845   0.903
 5871TIP3   OH217618   4.069   4.304   3.377
 5871TIP3    H117619   4.124   4.358   3.433
 5871TIP3    H217620   4.092   4.214   3.401
 5872TIP3   OH217621   1.636   4.147   4.328
 5872TIP3    H117622   1.708   4.172   4.269
 5872TIP3    H217623   1.655   4.056   4.351
 5873TIP3   OH217624   2.923   1.233   0.026
 5873TIP3    H117625   2.909   1.258   0.117
 5873TIP3    H217626   2.884   1.146   0.019
 5874TIP3   OH217627   3.058   1.611   4.279
 5874TIP3    H117628   3.066   1.560   4.360
 5874TIP3    H217629   2.974   1.655   4.287
 5875TIP3   OH217630   6.257   2.475   4.910
 5875TIP3    H117631   6.181   2.521   4.947
 5875TIP3    H217632   6.289   2.420   4.982
 5876TIP3   OH217633   5.147   4.015   4.600
 5876TIP3    H117634   5.163   4.082   4.666
 5876TIP3    H217635   5.232   3.974   4.586
 5877TIP3   OH217636   5.345   2.662   2.313
 5877TIP3    H117637   5.385   2.744   2.341
 5877TIP3    H217638   5.307   2.682   2.227
 5878TIP3   OH217639   4.217   2.345   3.801
 5878TIP3    H117640   4.187   2.417   3.746
 5878TIP3    H217641   4.193   2.266   3.753
 5879TIP3   OH217642   4.226   3.617   1.478
 5879TIP3    H117643   4.209   3.554   1.548
 5879TIP3    H217644   4.317   3.644   1.491
 5880TIP3   OH217645   2.553   0.279   2.276
 5880TIP3    H117646   2.519   0.294   2.365
 5880TIP3    H217647   2.488   0.321   2.219
 5881TIP3   OH217648   1.853   5.559   1.886
 5881TIP3    H117649   1.925   5.579   1.827
 5881TIP3    H217650   1.782   5.617   1.858
 5882TIP3   OH217651   4.463   2.411   4.236
 5882TIP3    H117652   4.458   2.460   4.318
 5882TIP3    H217653   4.554   2.384   4.229
 5883TIP3   OH217654   2.780   4.122   2.836
 5883TIP3    H117655   2.783   4.045   2.778
 5883TIP3    H217656   2.775   4.085   2.924
 5884TIP3   OH217657   2.793   4.272   1.691
 5884TIP3    H117658   2.748   4.352   1.665
 5884TIP3    H217659   2.885   4.297   1.696
 5885TIP3   OH217660   6.329   1.868   4.047
 5885TIP3    H117661   6.383   1.916   3.985
 5885TIP3    H217662   6.239   1.896   4.027
 5886TIP3   OH217663   4.379   1.196   0.274
 5886TIP3    H117664   4.447   1.164   0.215
 5886TIP3    H217665   4.370   1.289   0.253
 5887TIP3   OH217666   3.654   1.014   2.609
 5887TIP3    H117667   3.724   1.029   2.546
 5887TIP3    H217668   3.580   1.065   2.576
 5888TIP3   OH217669   0.471   2.851   0.387
 5888TIP3    H117670   0.447   2.938   0.420
 5888TIP3    H217671   0.436   2.790   0.451
 5889TIP3   OH217672   6.041   4.905   2.279
 5889TIP3    H117673   6.077   4.993   2.280
 5889TIP3    H217674   5.946   4.918   2.281
 5890TIP3   OH217675   0.206   0.809   2.977
 5890TIP3    H117676   0.246   0.876   2.922
 5890TIP3    H217677   0.148   0.761   2.918
 5891TIP3   OH217678   5.409   2.795   4.747
 5891TIP3    H117679   5.461   2.748   4.682
 5891TIP3    H217680   5.326   2.748   4.750
 5892TIP3   OH217681   0.716   0.199   1.572
 5892TIP3    H117682   0.776   0.250   1.628
 5892TIP3    H217683   0.705   0.254   1.494
 5893TIP3   OH217684   3.045   4.251   1.985
 5893TIP3    H117685   3.022   4.273   2.075
 5893TIP3    H217686   2.976   4.192   1.956
 5894TIP3   OH217687   1.572   3.150   0.756
 5894TIP3    H117688   1.533   3.068   0.786
 5894TIP3    H217689   1.595   3.133   0.664
 5895TIP3   OH217690   2.561   4.971   4.392
 5895TIP3    H117691   2.629   4.957   4.458
 5895TIP3    H217692   2.553   5.066   4.386
 5896TIP3   OH217693   1.821   1.692   0.938
 5896TIP3    H117694   1.800   1.729   1.024
 5896TIP3    H217695   1.916   1.694   0.934
 5897TIP3   OH217696   2.342   0.210   4.089
 5897TIP3    H117697   2.331   0.226   3.996
 5897TIP3    H217698   2.253   0.198   4.122
 5898TIP3   OH217699   4.325   3.470   3.752
 5898TIP3    H117700   4.254   3.531   3.772
 5898TIP3    H217701   4.283   3.384   3.751
 5899TIP3   OH217702   0.495   1.832   1.354
 5899TIP3    H117703   0.524   1.741   1.365
 5899TIP3    H217704   0.402   1.825   1.334
 5900TIP3   OH217705   3.962   3.030   1.180
 5900TIP3    H117706   3.940   2.946   1.222
 5900TIP3    H217707   3.913   3.029   1.098
 5901TIP3   OH217708   5.009   0.601   3.061
 5901TIP3    H117709   4.967   0.675   3.017
 5901TIP3    H217710   4.955   0.583   3.138
 5902TIP3   OH217711   2.511   2.025   1.340
 5902TIP3    H117712   2.456   2.098   1.312
 5902TIP3    H217713   2.574   2.065   1.401
 5903TIP3   OH217714   4.885   2.794   3.148
 5903TIP3    H117715   4.816   2.727   3.144
 5903TIP3    H217716   4.945   2.770   3.078
 5904TIP3   OH217717   0.205   2.457   4.497
 5904TIP3    H117718   0.200   2.551   4.510
 5904TIP3    H217719   0.125   2.433   4.451
 5905TIP3   OH217720   5.912   4.511   3.124
 5905TIP3    H117721   5.988   4.459   3.149
 5905TIP3    H217722   5.842   4.482   3.182
 5906TIP3   OH217723   1.854   2.526   1.354
 5906TIP3    H117724   1.824   2.461   1.291
 5906TIP3    H217725   1.787   2.595   1.352
 5907TIP3   OH217726   5.108   0.037   4.121
 5907TIP3    H117727   5.141   0.074   4.202
 5907TIP3    H217728   5.181  -0.016   4.087
 5908TIP3   OH217729   3.391   0.026   1.006
 5908TIP3    H117730   3.389  -0.058   0.960
 5908TIP3    H217731   3.303   0.035   1.042
 5909TIP3   OH217732   4.053   0.294   0.401
 5909TIP3    H117733   3.980   0.272   0.343
 5909TIP3    H217734   4.012   0.310   0.486
 5910TIP3   OH217735   0.026   2.118   2.849
 5910TIP3    H117736   0.082   2.118   2.771
 5910TIP3    H217737  -0.054   2.074   2.819
 5911TIP3   OH217738   0.127   4.084   0.120
 5911TIP3    H117739   0.117   4.051   0.031
 5911TIP3    H217740   0.213   4.051   0.148
 5912TIP3   OH217741   1.810   4.643   0.646
 5912TIP3    H117742   1.884   4.582   0.637
 5912TIP3    H217743   1.826   4.709   0.579
 5913TIP3   OH217744   1.648   0.207   4.264
 5913TIP3    H117745   1.653   0.272   4.334
 5913TIP3    H217746   1.739   0.182   4.248
 5914TIP3   OH217747   6.181   2.461   4.215
 5914TIP3    H117748   6.219   2.538   4.257
 5914TIP3    H217749   6.188   2.478   4.121
 5915TIP3   OH217750   2.123   4.290   0.279
 5915TIP3    H117751   2.064   4.302   0.205
 5915TIP3    H217752   2.067   4.259   0.350
 5916TIP3   OH217753   0.698   5.838   0.458
 5916TIP3    H117754   0.772   5.785   0.428
 5916TIP3    H217755   0.660   5.788   0.530
 5917TIP3   OH217756   0.314   5.019   2.778
 5917TIP3    H117757   0.251   4.994   2.711
 5917TIP3    H217758   0.364   5.091   2.739
 5918TIP3   OH217759   1.656   3.540   4.636
 5918TIP3    H117760   1.586   3.569   4.577
 5918TIP3    H217761   1.620   3.551   4.724
 5919TIP3   OH217762   3.776   2.680   3.713
 5919TIP3    H117763   3.725   2.699   3.792
 5919TIP3    H217764   3.771   2.761   3.662
 5920TIP3   OH217765   0.666   5.311   4.600
 5920TIP3    H117766   0.750   5.351   4.580
 5920TIP3    H217767   0.602   5.382   4.593
 5921TIP3   OH217768   5.645   3.614   3.014
 5921TIP3    H117769   5.700   3.572   3.080
 5921TIP3    H217770   5.628   3.701   3.048
 5922TIP3   OH217771   3.902   1.937   3.282
 5922TIP3    H117772   3.942   1.928   3.195
 5922TIP3    H217773   3.873   1.849   3.305
 5923TIP3   OH217774   4.803   0.296   4.369
 5923TIP3    H117775   4.828   0.211   4.406
 5923TIP3    H217776   4.719   0.280   4.327
 5924TIP3   OH217777   2.049   1.907   3.994
 5924TIP3    H117778   2.094   1.931   4.075
 5924TIP3    H217779   2.078   1.972   3.930
 5925TIP3   OH217780   5.654   2.433   0.736
 5925TIP3    H117781   5.683   2.480   0.659
 5925TIP3    H217782   5.600   2.361   0.702
 5926TIP3   OH217783   5.467   1.941   1.978
 5926TIP3    H117784   5.464   1.846   1.991
 5926TIP3    H217785   5.557   1.966   1.997
 5927TIP3   OH217786   3.795   0.593   5.173
 5927TIP3    H117787   3.762   0.614   5.086
 5927TIP3    H217788   3.800   0.497   5.174
 5928TIP3   OH217789   4.688   5.819   2.938
 5928TIP3    H117790   4.710   5.777   3.021
 5928TIP3    H217791   4.768   5.863   2.911
 5929TIP3   OH217792   3.457   2.607   4.328
 5929TIP3    H117793   3.526   2.576   4.269
 5929TIP3    H217794   3.502   2.665   4.389
 5930TIP3   OH217795   0.149   5.078   1.007
 5930TIP3    H117796   0.232   5.052   0.967
 5930TIP3    H217797   0.154   5.044   1.096
 5931TIP3   OH217798   1.555   1.848   0.754
 5931TIP3    H117799   1.583   1.762   0.724
 5931TIP3    H217800   1.468   1.834   0.790
 5932TIP3   OH217801   1.593   1.274   4.495
 5932TIP3    H117802   1.670   1.216   4.497
 5932TIP3    H217803   1.528   1.229   4.548
 5933TIP3   OH217804   2.094   1.987   3.664
 5933TIP3    H117805   2.188   1.967   3.660
 5933TIP3    H217806   2.089   2.071   3.710
 5934TIP3   OH217807   4.525   4.414   2.632
 5934TIP3    H117808   4.540   4.396   2.539
 5934TIP3    H217809   4.548   4.332   2.676
 5935TIP3   OH217810   1.513   0.898   4.225
 5935TIP3    H117811   1.469   0.827   4.178
 5935TIP3    H217812   1.536   0.962   4.157
 5936TIP3   OH217813   3.658   3.022   1.037
 5936TIP3    H117814   3.585   3.081   1.015
 5936TIP3    H217815   3.735   3.067   1.004
 5937TIP3   OH217816   0.384   0.060   3.823
 5937TIP3    H117817   0.330   0.061   3.902
 5937TIP3    H217818   0.470   0.091   3.852
 5938TIP3   OH217819   1.543   5.248   3.675
 5938TIP3    H117820   1.504   5.250   3.587
 5938TIP3    H217821   1.506   5.169   3.715
 5939TIP3   OH217822   5.120   2.393   1.672
 5939TIP3    H117823   5.174   2.316   1.658
 5939TIP3    H217824   5.084   2.414   1.585
 5940TIP3   OH217825   3.495   2.031   0.284
 5940TIP3    H117826   3.402   2.021   0.305
 5940TIP3    H217827   3.505   1.992   0.198
 5941TIP3   OH217828   2.257   3.429   2.158
 5941TIP3    H117829   2.270   3.493   2.228
 5941TIP3    H217830   2.321   3.453   2.091
 5942TIP3   OH217831   2.488   4.984   2.208
 5942TIP3    H117832   2.555   5.044   2.176
 5942TIP3    H217833   2.440   4.958   2.129
 5943TIP3   OH217834   1.103   1.697   4.665
 5943TIP3    H117835   1.086   1.627   4.727
 5943TIP3    H217836   1.106   1.654   4.579
 5944TIP3   OH217837   3.390   4.514   0.928
 5944TIP3    H117838   3.369   4.592   0.979
 5944TIP3    H217839   3.390   4.443   0.992
 5945TIP3   OH217840   2.547   2.579   2.595
 5945TIP3    H117841   2.519   2.619   2.678
 5945TIP3    H217842   2.637   2.551   2.611
 5946TIP3   OH217843   6.081   0.475   1.195
 5946TIP3    H117844   6.046   0.458   1.107
 5946TIP3    H217845   6.006   0.510   1.244
 5947TIP3   OH217846   4.156   2.191   1.977
 5947TIP3    H117847   4.110   2.202   2.060
 5947TIP3    H217848   4.145   2.098   1.956
 5948TIP3   OH217849   4.706   4.546   4.714
 5948TIP3    H117850   4.733   4.624   4.762
 5948TIP3    H217851   4.668   4.580   4.633
 5949TIP3   OH217852   0.617   4.847   0.722
 5949TIP3    H117853   0.580   4.770   0.679
 5949TIP3    H217854   0.708   4.850   0.691
 5950TIP3   OH217855   5.574   4.720   1.900
 5950TIP3    H117856   5.620   4.738   1.819
 5950TIP3    H217857   5.524   4.640   1.882
 5951TIP3   OH217858   2.208   2.995   2.381
 5951TIP3    H117859   2.183   3.069   2.326
 5951TIP3    H217860   2.127   2.965   2.422
 5952TIP3   OH217861   2.334   1.635   3.466
 5952TIP3    H117862   2.375   1.657   3.549
 5952TIP3    H217863   2.394   1.573   3.424
 5953TIP3   OH217864   0.345   4.752   2.870
 5953TIP3    H117865   0.312   4.801   2.795
 5953TIP3    H217866   0.412   4.694   2.833
 5954TIP3   OH217867   4.139   1.523   3.223
 5954TIP3    H117868   4.205   1.541   3.289
 5954TIP3    H217869   4.084   1.455   3.262
 5955TIP3   OH217870   0.963   2.906   3.799
 5955TIP3    H117871   1.017   2.836   3.835
 5955TIP3    H217872   0.880   2.863   3.777
 5956TIP3   OH217873   4.247   2.154   1.338
 5956TIP3    H117874   4.218   2.160   1.429
 5956TIP3    H217875   4.181   2.201   1.288
 5957TIP3   OH217876   2.105   0.908   1.217
 5957TIP3    H117877   2.044   0.906   1.143
 5957TIP3    H217878   2.190   0.884   1.180
 5958TIP3   OH217879   5.422   1.122   4.208
 5958TIP3    H117880   5.505   1.118   4.256
 5958TIP3    H217881   5.447   1.106   4.117
 5959TIP3   OH217882   2.895   0.717   3.216
 5959TIP3    H117883   2.977   0.740   3.172
 5959TIP3    H217884   2.880   0.789   3.278
 5960TIP3   OH217885   2.712   3.046   4.225
 5960TIP3    H117886   2.689   3.003   4.143
 5960TIP3    H217887   2.807   3.051   4.224
 5961TIP3   OH217888   5.869   0.878   2.376
 5961TIP3    H117889   5.789   0.833   2.348
 5961TIP3    H217890   5.896   0.930   2.300
 5962TIP3   OH217891   1.775   4.775   4.064
 5962TIP3    H117892   1.712   4.782   4.136
 5962TIP3    H217893   1.856   4.747   4.105
 5963TIP3   OH217894   0.268   5.655   2.879
 5963TIP3    H117895   0.238   5.675   2.967
 5963TIP3    H217896   0.263   5.560   2.873
 5964TIP3   OH217897   3.702   5.662   1.727
 5964TIP3    H117898   3.632   5.639   1.787
 5964TIP3    H217899   3.712   5.585   1.670
 5965TIP3   OH217900   2.263   5.328   1.063
 5965TIP3    H117901   2.201   5.400   1.072
 5965TIP3    H217902   2.261   5.305   0.970
 5966TIP3   OH217903   4.476   1.468   1.746
 5966TIP3    H117904   4.516   1.527   1.810
 5966TIP3    H217905   4.456   1.389   1.796
 5967TIP3   OH217906   4.890   2.156   1.243
 5967TIP3    H117907   4.825   2.194   1.184
 5967TIP3    H217908   4.916   2.074   1.202
 5968TIP3   OH217909   3.815   2.641   3.213
 5968TIP3    H117910   3.818   2.634   3.118
 5968TIP3    H217911   3.786   2.555   3.242
 5969TIP3   OH217912   5.596   4.976   3.575
 5969TIP3    H117913   5.577   5.015   3.660
 5969TIP3    H217914   5.688   4.997   3.559
 5970TIP3   OH217915   0.753   0.555   4.775
 5970TIP3    H117916   0.757   0.584   4.866
 5970TIP3    H217917   0.694   0.616   4.733
 5971TIP3   OH217918   0.204   0.919   4.928
 5971TIP3    H117919   0.108   0.920   4.924
 5971TIP3    H217920   0.224   0.935   5.020
 5972TIP3   OH217921   4.350   5.428   4.042
 5972TIP3    H117922   4.266   5.444   3.999
 5972TIP3    H217923   4.373   5.513   4.080
 5973TIP3   OH217924   0.256   4.472   4.509
 5973TIP3    H117925   0.324   4.418   4.550
 5973TIP3    H217926   0.180   4.462   4.566
 5974TIP3   OH217927   4.036   0.129   3.511
 5974TIP3    H117928   4.053   0.049   3.462
 5974TIP3    H217929   3.941   0.131   3.522
 5975TIP3   OH217930   1.032   3.275   2.026
 5975TIP3    H117931   1.121   3.300   2.003
 5975TIP3    H217932   1.024   3.295   2.119
 5976TIP3   OH217933   2.227   5.693   3.039
 5976TIP3    H117934   2.133   5.695   3.055
 5976TIP3    H217935   2.235   5.675   2.946
 5977TIP3   OH217936   5.768   2.876   4.381
 5977TIP3    H117937   5.818   2.937   4.434
 5977TIP3    H217938   5.822   2.797   4.377
 5978TIP3   OH217939   5.337   0.696   4.923
 5978TIP3    H117940   5.414   0.713   4.976
 5978TIP3    H217941   5.342   0.603   4.902
 5979TIP3   OH217942   5.096   1.358   4.837
 5979TIP3    H117943   5.068   1.280   4.884
 5979TIP3    H217944   5.160   1.327   4.773
 5980TIP3   OH217945   2.757   0.922   5.143
 5980TIP3    H117946   2.690   0.853   5.148
 5980TIP3    H217947   2.828   0.882   5.092
 5981TIP3   OH217948   2.624   4.551   0.600
 5981TIP3    H117949   2.571   4.472   0.586
 5981TIP3    H217950   2.560   4.622   0.609
 5982TIP3   OH217951   6.052   2.254   4.807
 5982TIP3    H117952   6.129   2.281   4.857
 5982TIP3    H217953   6.055   2.159   4.808
 5983TIP3   OH217954   2.794   1.777   4.793
 5983TIP3    H117955   2.776   1.828   4.714
 5983TIP3    H217956   2.811   1.689   4.761
 5984TIP3   OH217957   2.903   5.230   2.473
 5984TIP3    H117958   2.849   5.206   2.549
 5984TIP3    H217959   2.951   5.307   2.501
 5985TIP3   OH217960   0.200   1.216   1.845
 5985TIP3    H117961   0.257   1.229   1.921
 5985TIP3    H217962   0.253   1.242   1.770
 5986TIP3   OH217963   2.790   0.726   0.519
 5986TIP3    H117964   2.723   0.794   0.509
 5986TIP3    H217965   2.811   0.700   0.429
 5987TIP3   OH217966   3.971   2.678   0.777
 5987TIP3    H117967   4.022   2.754   0.805
 5987TIP3    H217968   4.030   2.627   0.722
 5988TIP3   OH217969   4.017   3.464   1.388
 5988TIP3    H117970   4.085   3.529   1.405
 5988TIP3    H217971   4.033   3.394   1.450
 5989TIP3   OH217972   2.638   2.295   5.162
 5989TIP3    H117973   2.660   2.203   5.151
 5989TIP3    H217974   2.718   2.335   5.196
 5990TIP3   OH217975   5.172   3.550   2.959
 5990TIP3    H117976   5.246   3.491   2.973
 5990TIP3    H217977   5.105   3.519   3.020
 5991TIP3   OH217978   2.996   0.584   2.421
 5991TIP3    H117979   2.908   0.568   2.387
 5991TIP3    H217980   3.054   0.546   2.355
 5992TIP3   OH217981   1.422   3.288   3.457
 5992TIP3    H117982   1.355   3.277   3.390
 5992TIP3    H217983   1.399   3.368   3.503
 5993TIP3   OH217984   4.799   3.719   4.821
 5993TIP3    H117985   4.773   3.763   4.741
 5993TIP3    H217986   4.784   3.626   4.803
 5994TIP3   OH217987   2.265   5.584   2.780
 5994TIP3    H117988   2.251   5.667   2.734
 5994TIP3    H217989   2.292   5.523   2.711
 5995TIP3   OH217990   4.039   5.793   4.816
 5995TIP3    H117991   4.022   5.708   4.858
 5995TIP3    H217992   4.060   5.851   4.889
 5996TIP3   OH217993   3.081   3.096   2.202
 5996TIP3    H117994   3.129   3.019   2.233
 5996TIP3    H217995   3.076   3.084   2.107
 5997TIP3   OH217996   4.657   1.806   3.075
 5997TIP3    H117997   4.691   1.882   3.027
 5997TIP3    H217998   4.689   1.730   3.025
 5998TIP3   OH217999   4.755   4.458   3.908
 5998TIP3    H118000   4.781   4.374   3.868
 5998TIP3    H218001   4.833   4.513   3.900
 5999TIP3   OH218002   2.443   3.674   2.806
 5999TIP3    H118003   2.378   3.604   2.804
 5999TIP3    H218004   2.482   3.668   2.894
 6000TIP3   OH218005   4.038   4.817   1.339
 6000TIP3    H118006   4.009   4.803   1.428
 6000TIP3    H218007   4.015   4.737   1.292
 6001TIP3   OH218008   3.495   1.464   1.606
 6001TIP3    H118009   3.445   1.464   1.525
 6001TIP3    H218010   3.436   1.503   1.671
 6002TIP3   OH218011   1.527   2.421   0.528
 6002TIP3    H118012   1.609   2.459   0.497
 6002TIP3    H218013   1.502   2.477   0.602
 6003TIP3   OH218014   3.757   5.402   2.559
 6003TIP3    H118015   3.786   5.314   2.585
 6003TIP3    H218016   3.772   5.405   2.464
 6004TIP3   OH218017   5.751   0.174   4.810
 6004TIP3    H118018   5.776   0.145   4.898
 6004TIP3    H218019   5.832   0.170   4.759
 6005TIP3   OH218020   0.477   3.398   1.278
 6005TIP3    H118021   0.568   3.424   1.294
 6005TIP3    H218022   0.460   3.328   1.341
 6006TIP3   OH218023   6.132   0.926   0.987
 6006TIP3    H118024   6.193   0.998   0.970
 6006TIP3    H218025   6.134   0.873   0.907
 6007TIP3   OH218026   1.194   5.534   1.419
 6007TIP3    H118027   1.213   5.603   1.355
 6007TIP3    H218028   1.217   5.453   1.374
 6008TIP3   OH218029   6.217   5.444   1.815
 6008TIP3    H118030   6.185   5.501   1.745
 6008TIP3    H218031   6.312   5.457   1.815
 6009TIP3   OH218032   3.000   0.637   4.018
 6009TIP3    H118033   2.924   0.582   4.001
 6009TIP3    H218034   2.981   0.720   3.973
 6010TIP3   OH218035   2.942   1.186   1.108
 6010TIP3    H118036   2.901   1.100   1.119
 6010TIP3    H218037   2.876   1.248   1.138
 6011TIP3   OH218038   4.724   3.532   3.491
 6011TIP3    H118039   4.638   3.560   3.523
 6011TIP3    H218040   4.786   3.571   3.552
 6012TIP3   OH218041   6.317   3.078   0.959
 6012TIP3    H118042   6.253   3.127   1.011
 6012TIP3    H218043   6.320   2.992   1.001
 6013TIP3   OH218044   2.338   5.845   2.223
 6013TIP3    H118045   2.430   5.857   2.243
 6013TIP3    H218046   2.329   5.872   2.131
 6014TIP3   OH218047   3.396   3.599   1.470
 6014TIP3    H118048   3.479   3.587   1.517
 6014TIP3    H218049   3.329   3.571   1.533
 6015TIP3   OH218050   4.464   3.057   3.823
 6015TIP3    H118051   4.376   3.042   3.789
 6015TIP3    H218052   4.517   2.986   3.784
 6016TIP3   OH218053   2.878   4.576   3.313
 6016TIP3    H118054   2.812   4.532   3.259
 6016TIP3    H218055   2.868   4.669   3.293
 6017TIP3   OH218056   3.978   5.844   3.608
 6017TIP3    H118057   4.002   5.803   3.691
 6017TIP3    H218058   4.050   5.823   3.549
 6018TIP3   OH218059   5.726   5.669   4.328
 6018TIP3    H118060   5.788   5.715   4.385
 6018TIP3    H218061   5.667   5.738   4.298
 6019TIP3   OH218062   1.123   1.608   3.816
 6019TIP3    H118063   1.175   1.689   3.811
 6019TIP3    H218064   1.057   1.626   3.883
 6020TIP3   OH218065   0.303   0.685   1.208
 6020TIP3    H118066   0.208   0.684   1.206
 6020TIP3    H218067   0.327   0.636   1.287
 6021TIP3   OH218068   1.393   2.017   0.155
 6021TIP3    H118069   1.473   2.062   0.128
 6021TIP3    H218070   1.408   1.994   0.246
 6022TIP3   OH218071   2.904   0.598   4.291
 6022TIP3    H118072   2.962   0.611   4.366
 6022TIP3    H218073   2.939   0.656   4.223
 6023TIP3   OH218074   4.973   2.369   3.224
 6023TIP3    H118075   5.010   2.413   3.147
 6023TIP3    H218076   4.905   2.312   3.189
 6024TIP3   OH218077   3.460   3.966   4.827
 6024TIP3    H118078   3.478   4.022   4.751
 6024TIP3    H218079   3.536   3.976   4.883
 6025TIP3   OH218080   4.748   2.468   0.399
 6025TIP3    H118081   4.820   2.530   0.389
 6025TIP3    H218082   4.761   2.405   0.328
 6026TIP3   OH218083   3.730   5.795   2.597
 6026TIP3    H118084   3.745   5.888   2.580
 6026TIP3    H218085   3.801   5.769   2.655
 6027TIP3   OH218086   4.139   3.776   1.778
 6027TIP3    H118087   4.151   3.812   1.690
 6027TIP3    H218088   4.228   3.762   1.810
 6028TIP3   OH218089   1.586   2.278   3.469
 6028TIP3    H118090   1.538   2.240   3.543
 6028TIP3    H218091   1.519   2.316   3.414
 6029TIP3   OH218092   6.152   4.206   1.991
 6029TIP3    H118093   6.192   4.227   1.906
 6029TIP3    H218094   6.091   4.279   2.007
 6030TIP3   OH218095   1.063   5.911   4.799
 6030TIP3    H118096   0.973   5.881   4.806
 6030TIP3    H218097   1.069   5.986   4.857
 6031TIP3   OH218098   4.230   2.546   0.206
 6031TIP3    H118099   4.197   2.466   0.167
 6031TIP3    H218100   4.324   2.532   0.216
 6032TIP3   OH218101   3.691   4.689   0.964
 6032TIP3    H118102   3.639   4.665   0.886
 6032TIP3    H218103   3.693   4.785   0.962
 6033TIP3   OH218104   1.668   5.885   3.944
 6033TIP3    H118105   1.674   5.811   4.005
 6033TIP3    H218106   1.758   5.897   3.912
 6034TIP3   OH218107   5.354   2.375   3.970
 6034TIP3    H118108   5.332   2.435   4.040
 6034TIP3    H218109   5.447   2.392   3.952
 6035TIP3   OH218110   5.790   4.759   2.073
 6035TIP3    H118111   5.763   4.795   2.157
 6035TIP3    H218112   5.708   4.743   2.026
 6036TIP3   OH218113   2.840   5.631   4.729
 6036TIP3    H118114   2.867   5.697   4.665
 6036TIP3    H218115   2.840   5.678   4.813
 6037TIP3   OH218116   0.027   5.526   3.377
 6037TIP3    H118117   0.067   5.520   3.463
 6037TIP3    H218118   0.029   5.619   3.356
 6038TIP3   OH218119   4.264   4.755   2.331
 6038TIP3    H118120   4.205   4.823   2.298
 6038TIP3    H218121   4.324   4.737   2.258
 6039TIP3   OH218122   3.427   1.093   0.897
 6039TIP3    H118123   3.380   1.016   0.867
 6039TIP3    H218124   3.362   1.144   0.945
 6040TIP3   OH218125   3.267   3.019   1.380
 6040TIP3    H118126   3.315   3.101   1.387
 6040TIP3    H218127   3.287   2.972   1.461
 6041TIP3   OH218128   5.102   1.555   3.037
 6041TIP3    H118129   5.109   1.502   2.957
 6041TIP3    H218130   5.188   1.596   3.046
 6042TIP3   OH218131   2.171   5.335   3.805
 6042TIP3    H118132   2.255   5.345   3.848
 6042TIP3    H218133   2.189   5.353   3.713
 6043TIP3   OH218134   2.442   3.958   4.750
 6043TIP3    H118135   2.509   3.979   4.685
 6043TIP3    H218136   2.476   3.881   4.796
 6044TIP3   OH218137   5.116   3.035   4.587
 6044TIP3    H118138   5.186   3.077   4.636
 6044TIP3    H218139   5.051   3.105   4.573
 6045TIP3   OH218140   2.487   5.818   2.635
 6045TIP3    H118141   2.566   5.870   2.622
 6045TIP3    H218142   2.502   5.773   2.719
 6046TIP3   OH218143   2.916   3.763   2.038
 6046TIP3    H118144   2.936   3.856   2.044
 6046TIP3    H218145   2.937   3.740   1.947
 6047TIP3   OH218146   0.596   2.134   2.124
 6047TIP3    H118147   0.549   2.125   2.042
 6047TIP3    H218148   0.634   2.047   2.140
 6048TIP3   OH218149   0.543   1.101   0.152
 6048TIP3    H118150   0.515   1.170   0.212
 6048TIP3    H218151   0.626   1.132   0.116
 6049TIP3   OH218152   5.223   3.521   1.152
 6049TIP3    H118153   5.281   3.496   1.224
 6049TIP3    H218154   5.213   3.616   1.162
 6050TIP3   OH218155   3.959   2.812   1.615
 6050TIP3    H118156   3.925   2.781   1.699
 6050TIP3    H218157   3.906   2.766   1.549
 6051TIP3   OH218158   6.337   0.158   4.286
 6051TIP3    H118159   6.300   0.113   4.362
 6051TIP3    H218160   6.324   0.251   4.304
 6052TIP3   OH218161   5.304   4.487   3.143
 6052TIP3    H118162   5.258   4.409   3.113
 6052TIP3    H218163   5.319   4.471   3.237
 6053TIP3   OH218164   4.908   0.762   1.279
 6053TIP3    H118165   4.858   0.744   1.199
 6053TIP3    H218166   4.843   0.799   1.339
 6054TIP3   OH218167   3.980   4.997   1.613
 6054TIP3    H118168   4.015   4.923   1.663
 6054TIP3    H218169   3.885   4.981   1.610
 6055TIP3   OH218170   5.807   1.461   4.066
 6055TIP3    H118171   5.823   1.523   4.138
 6055TIP3    H218172   5.860   1.494   3.994
 6056TIP3   OH218173   2.065   3.729   3.040
 6056TIP3    H118174   2.056   3.760   3.130
 6056TIP3    H218175   2.002   3.781   2.991
 6057TIP3   OH218176   4.239   3.481   4.469
 6057TIP3    H118177   4.151   3.518   4.470
 6057TIP3    H218178   4.272   3.494   4.558
 6058TIP3   OH218179   5.589   4.583   1.537
 6058TIP3    H118180   5.573   4.609   1.446
 6058TIP3    H218181   5.603   4.666   1.583
 6059TIP3   OH218182   3.519   5.907   0.648
 6059TIP3    H118183   3.608   5.908   0.612
 6059TIP3    H218184   3.495   5.814   0.651
 6060TIP3   OH218185   1.572   2.881   2.063
 6060TIP3    H118186   1.664   2.863   2.086
 6060TIP3    H218187   1.577   2.925   1.979
 6061TIP3   OH218188   5.529   5.808   2.852
 6061TIP3    H118189   5.517   5.774   2.940
 6061TIP3    H218190   5.540   5.902   2.863
 6062TIP3   OH218191   0.789   3.826   2.025
 6062TIP3    H118192   0.723   3.832   1.956
 6062TIP3    H218193   0.869   3.801   1.979
 6063TIP3   OH218194   4.958   0.038   4.699
 6063TIP3    H118195   4.932   0.027   4.607
 6063TIP3    H218196   5.053   0.046   4.696
 6064TIP3   OH218197   3.405   4.271   3.545
 6064TIP3    H118198   3.448   4.356   3.540
 6064TIP3    H218199   3.417   4.234   3.457
 6065TIP3   OH218200   5.110   3.440   1.810
 6065TIP3    H118201   5.057   3.450   1.889
 6065TIP3    H218202   5.181   3.381   1.836
 6066TIP3   OH218203   4.274   5.443   1.442
 6066TIP3    H118204   4.222   5.446   1.362
 6066TIP3    H218205   4.342   5.378   1.424
 6067TIP3   OH218206   5.013   3.039   3.510
 6067TIP3    H118207   5.045   3.061   3.597
 6067TIP3    H218208   4.938   3.096   3.496
 6068TIP3   OH218209   1.716   4.546   2.946
 6068TIP3    H118210   1.621   4.544   2.958
 6068TIP3    H218211   1.752   4.537   3.035
 6069TIP3   OH218212   4.852   0.520   3.560
 6069TIP3    H118213   4.897   0.594   3.600
 6069TIP3    H218214   4.860   0.449   3.625
 6070TIP3   OH218215   2.535   0.276   4.883
 6070TIP3    H118216   2.477   0.305   4.954
 6070TIP3    H218217   2.477   0.262   4.808
 6071TIP3   OH218218   0.852   5.334   2.950
 6071TIP3    H118219   0.827   5.362   3.038
 6071TIP3    H218220   0.803   5.253   2.936
 6072TIP3   OH218221   3.112   5.097   5.058
 6072TIP3    H118222   3.140   5.087   5.149
 6072TIP3    H218223   3.123   5.190   5.039
 6073TIP3   OH218224   2.832   4.921   4.999
 6073TIP3    H118225   2.808   4.912   5.092
 6073TIP3    H218226   2.918   4.964   5.001
 6074TIP3   OH218227   2.912   0.006   2.213
 6074TIP3    H118228   2.818   0.001   2.197
 6074TIP3    H218229   2.921   0.063   2.290
 6075TIP3   OH218230   0.126   3.747   0.904
 6075TIP3    H118231   0.200   3.807   0.917
 6075TIP3    H218232   0.166   3.660   0.901
 6076TIP3   OH218233   0.268   2.795   2.479
 6076TIP3    H118234   0.196   2.735   2.460
 6076TIP3    H218235   0.257   2.815   2.572
 6077TIP3   OH218236   6.230   1.743   3.247
 6077TIP3    H118237   6.279   1.782   3.319
 6077TIP3    H218238   6.237   1.649   3.260
 6078TIP3   OH218239   2.133   3.302   1.429
 6078TIP3    H118240   2.196   3.260   1.370
 6078TIP3    H218241   2.048   3.272   1.396
 6079TIP3   OH218242   2.837   4.344   3.554
 6079TIP3    H118243   2.769   4.408   3.574
 6079TIP3    H218244   2.805   4.298   3.476
 6080TIP3   OH218245   5.033   1.107   2.073
 6080TIP3    H118246   5.102   1.172   2.088
 6080TIP3    H218247   4.999   1.127   1.986
 6081TIP3   OH218248   5.711   4.519   0.135
 6081TIP3    H118249   5.744   4.430   0.126
 6081TIP3    H218250   5.616   4.511   0.130
 6082TIP3   OH218251   4.840   1.268   0.077
 6082TIP3    H118252   4.873   1.237   0.161
 6082TIP3    H218253   4.881   1.211   0.012
 6083TIP3   OH218254   3.840   4.710   2.386
 6083TIP3    H118255   3.773   4.771   2.418
 6083TIP3    H218256   3.879   4.674   2.466
 6084TIP3   OH218257   2.712   3.102   2.888
 6084TIP3    H118258   2.765   3.182   2.885
 6084TIP3    H218259   2.676   3.095   2.799
 6085TIP3   OH218260   0.148   4.771   2.294
 6085TIP3    H118261   0.187   4.684   2.300
 6085TIP3    H218262   0.057   4.755   2.267
 6086TIP3   OH218263   5.583   2.709   3.262
 6086TIP3    H118264   5.491   2.726   3.278
 6086TIP3    H218265   5.621   2.697   3.349
 6087TIP3   OH218266   0.292   1.536   2.853
 6087TIP3    H118267   0.340   1.557   2.773
 6087TIP3    H218268   0.210   1.586   2.846
 6088TIP3   OH218269   1.466   2.766   4.985
 6088TIP3    H118270   1.392   2.824   4.970
 6088TIP3    H218271   1.463   2.747   5.079
 6089TIP3   OH218272   5.562   1.946   4.595
 6089TIP3    H118273   5.529   1.887   4.526
 6089TIP3    H218274   5.627   2.000   4.550
 6090TIP3   OH218275   5.878   0.521   1.361
 6090TIP3    H118276   5.788   0.496   1.379
 6090TIP3    H218277   5.930   0.471   1.425
 6091TIP3   OH218278   0.626   2.148   4.251
 6091TIP3    H118279   0.707   2.102   4.272
 6091TIP3    H218280   0.619   2.217   4.317
 6092TIP3   OH218281   0.973   3.618   2.332
 6092TIP3    H118282   0.923   3.597   2.410
 6092TIP3    H218283   0.913   3.602   2.259
 6093TIP3   OH218284   0.633   2.780   2.196
 6093TIP3    H118285   0.595   2.712   2.251
 6093TIP3    H218286   0.709   2.811   2.244
 6094TIP3   OH218287   2.890   5.876   0.049
 6094TIP3    H118288   2.934   5.792   0.060
 6094TIP3    H218289   2.962   5.940   0.049
 6095TIP3   OH218290   0.285   4.270   1.080
 6095TIP3    H118291   0.292   4.345   1.021
 6095TIP3    H218292   0.372   4.260   1.118
 6096TIP3   OH218293   0.185   1.900   0.649
 6096TIP3    H118294   0.108   1.894   0.592
 6096TIP3    H218295   0.223   1.812   0.648
 6097TIP3   OH218296   2.588   4.718   3.045
 6097TIP3    H118297   2.573   4.807   3.076
 6097TIP3    H218298   2.641   4.729   2.965
 6098TIP3   OH218299   4.654   5.040   1.427
 6098TIP3    H118300   4.666   5.063   1.335
 6098TIP3    H218301   4.743   5.040   1.464
 6099TIP3   OH218302   4.795   4.597   4.339
 6099TIP3    H118303   4.828   4.535   4.274
 6099TIP3    H218304   4.835   4.680   4.315
 6100TIP3   OH218305   2.418   2.321   4.021
 6100TIP3    H118306   2.392   2.315   4.113
 6100TIP3    H218307   2.470   2.242   4.006
 6101TIP3   OH218308   2.372   1.386   3.633
 6101TIP3    H118309   2.397   1.357   3.720
 6101TIP3    H218310   2.431   1.339   3.574
 6102TIP3   OH218311   5.771   3.040   5.040
 6102TIP3    H118312   5.819   2.973   5.088
 6102TIP3    H218313   5.697   2.994   5.001
 6103TIP3   OH218314   1.657   4.812   3.265
 6103TIP3    H118315   1.604   4.886   3.234
 6103TIP3    H218316   1.600   4.736   3.258
 6104TIP3   OH218317   5.302   4.696   4.354
 6104TIP3    H118318   5.365   4.662   4.290
 6104TIP3    H218319   5.351   4.762   4.403
 6105TIP3   OH218320   3.754   1.241   0.625
 6105TIP3    H118321   3.689   1.195   0.572
 6105TIP3    H218322   3.708   1.264   0.705
 6106TIP3   OH218323   1.764   0.732   1.553
 6106TIP3    H118324   1.811   0.794   1.497
 6106TIP3    H218325   1.784   0.761   1.642
 6107TIP3   OH218326   5.377   0.533   4.692
 6107TIP3    H118327   5.374   0.617   4.646
 6107TIP3    H218328   5.416   0.473   4.628
 6108TIP3   OH218329   5.617   1.271   2.705
 6108TIP3    H118330   5.555   1.340   2.728
 6108TIP3    H218331   5.593   1.197   2.761
 6109TIP3   OH218332   3.100   0.091   4.308
 6109TIP3    H118333   3.105   0.078   4.403
 6109TIP3    H218334   3.137   0.178   4.294
 6110TIP3   OH218335   3.940   1.019   1.903
 6110TIP3    H118336   3.898   1.040   1.820
 6110TIP3    H218337   4.023   1.068   1.901
 6111TIP3   OH218338   4.171   3.286   4.274
 6111TIP3    H118339   4.076   3.297   4.283
 6111TIP3    H218340   4.208   3.344   4.341
 6112TIP3   OH218341   4.630   3.693   3.826
 6112TIP3    H118342   4.595   3.749   3.895
 6112TIP3    H218343   4.568   3.701   3.754
 6113TIP3   OH218344   3.178   3.307   1.074
 6113TIP3    H118345   3.113   3.243   1.103
 6113TIP3    H218346   3.258   3.257   1.063
 6114TIP3   OH218347   1.295   1.071   1.800
 6114TIP3    H118348   1.352   0.997   1.823
 6114TIP3    H218349   1.328   1.100   1.715
 6115TIP3   OH218350   3.426   2.803   5.006
 6115TIP3    H118351   3.389   2.891   4.997
 6115TIP3    H218352   3.352   2.744   4.989
 6116TIP3   OH218353   4.342   5.593   5.046
 6116TIP3    H118354   4.346   5.510   5.094
 6116TIP3    H218355   4.385   5.656   5.103
 6117TIP3   OH218356   2.770   2.328   1.643
 6117TIP3    H118357   2.767   2.237   1.614
 6117TIP3    H218358   2.678   2.356   1.641
 6118TIP3   OH218359   1.681   0.969   2.901
 6118TIP3    H118360   1.763   0.987   2.947
 6118TIP3    H218361   1.675   1.039   2.836
 6119TIP3   OH218362   3.615   1.703   4.430
 6119TIP3    H118363   3.652   1.663   4.508
 6119TIP3    H218364   3.666   1.783   4.417
 6120TIP3   OH218365   0.108   4.198   2.101
 6120TIP3    H118366   0.020   4.192   2.064
 6120TIP3    H218367   0.097   4.249   2.181
 6121TIP3   OH218368   4.700   0.840   3.464
 6121TIP3    H118369   4.768   0.852   3.397
 6121TIP3    H218370   4.749   0.813   3.542
 6122TIP3   OH218371   1.990   2.780   0.872
 6122TIP3    H118372   1.915   2.796   0.816
 6122TIP3    H218373   2.021   2.693   0.848
 6123TIP3   OH218374   4.120   2.300   3.276
 6123TIP3    H118375   4.119   2.225   3.215
 6123TIP3    H218376   4.212   2.324   3.283
 6124TIP3   OH218377   2.301   2.870   4.048
 6124TIP3    H118378   2.242   2.844   3.977
 6124TIP3    H218379   2.351   2.791   4.068
 6125TIP3   OH218380   6.011   4.379   2.593
 6125TIP3    H118381   5.937   4.382   2.533
 6125TIP3    H218382   5.974   4.394   2.680
 6126TIP3   OH218383   0.838   3.302   1.146
 6126TIP3    H118384   0.814   3.393   1.160
 6126TIP3    H218385   0.840   3.264   1.234
 6127TIP3   OH218386   1.091   1.403   4.175
 6127TIP3    H118387   1.103   1.318   4.132
 6127TIP3    H218388   1.101   1.467   4.104
 6128TIP3   OH218389   3.273   2.757   1.014
 6128TIP3    H118390   3.322   2.797   0.942
 6128TIP3    H218391   3.285   2.818   1.088
 6129TIP3   OH218392   3.642   2.333   1.502
 6129TIP3    H118393   3.669   2.349   1.592
 6129TIP3    H218394   3.720   2.349   1.450
 6130TIP3   OH218395   1.219   2.161   4.188
 6130TIP3    H118396   1.143   2.218   4.197
 6130TIP3    H218397   1.189   2.075   4.218
 6131TIP3   OH218398   4.496   0.624   3.843
 6131TIP3    H118399   4.434   0.603   3.773
 6131TIP3    H218400   4.480   0.556   3.909
 6132TIP3   OH218401   0.944   5.695   0.394
 6132TIP3    H118402   0.915   5.608   0.368
 6132TIP3    H218403   0.947   5.745   0.312
 6133TIP3   OH218404   1.894   3.390   0.977
 6133TIP3    H118405   1.944   3.461   1.018
 6133TIP3    H218406   1.873   3.422   0.889
 6134TIP3   OH218407   5.406   5.588   0.254
 6134TIP3    H118408   5.471   5.592   0.183
 6134TIP3    H218409   5.400   5.495   0.276
 6135TIP3   OH218410   1.709   5.936   0.871
 6135TIP3    H118411   1.724   5.844   0.848
 6135TIP3    H218412   1.644   5.932   0.941
 6136TIP3   OH218413   4.185   2.551   1.669
 6136TIP3    H118414   4.209   2.643   1.656
 6136TIP3    H218415   4.218   2.507   1.590
 6137TIP3   OH218416   4.202   4.256   0.454
 6137TIP3    H118417   4.166   4.169   0.473
 6137TIP3    H218418   4.127   4.316   0.462
 6138TIP3   OH218419   3.569   5.397   3.486
 6138TIP3    H118420   3.539   5.484   3.459
 6138TIP3    H218421   3.562   5.343   3.408
 6139TIP3   OH218422   4.757   5.070   2.022
 6139TIP3    H118423   4.671   5.077   2.062
 6139TIP3    H218424   4.745   5.100   1.932
 6140TIP3   OH218425   3.708   3.014   4.237
 6140TIP3    H118426   3.737   2.933   4.278
 6140TIP3    H218427   3.771   3.030   4.167
 6141TIP3   OH218428   2.096   4.975   2.161
 6141TIP3    H118429   2.150   5.024   2.100
 6141TIP3    H218430   2.155   4.909   2.198
 6142TIP3   OH218431   1.519   1.543   4.037
 6142TIP3    H118432   1.481   1.566   4.122
 6142TIP3    H218433   1.600   1.497   4.059
 6143TIP3   OH218434   4.099   1.834   1.448
 6143TIP3    H118435   4.126   1.830   1.539
 6143TIP3    H218436   4.029   1.900   1.447
 6144TIP3   OH218437   1.989   4.468   0.563
 6144TIP3    H118438   1.996   4.373   0.555
 6144TIP3    H218439   2.009   4.502   0.475
 6145TIP3   OH218440   5.176   3.501   4.791
 6145TIP3    H118441   5.161   3.590   4.759
 6145TIP3    H218442   5.267   3.501   4.821
 6146TIP3   OH218443   0.462   0.179   0.950
 6146TIP3    H118444   0.403   0.253   0.967
 6146TIP3    H218445   0.422   0.133   0.876
 6147TIP3   OH218446   5.410   3.911   3.318
 6147TIP3    H118447   5.475   3.870   3.375
 6147TIP3    H218448   5.414   3.860   3.237
 6148TIP3   OH218449   5.588   0.624   0.486
 6148TIP3    H118450   5.627   0.671   0.412
 6148TIP3    H218451   5.625   0.666   0.564
 6149TIP3   OH218452   0.883   5.434   0.327
 6149TIP3    H118453   0.825   5.480   0.266
 6149TIP3    H218454   0.902   5.351   0.284
 6150TIP3   OH218455   2.066   1.326   4.341
 6150TIP3    H118456   2.109   1.376   4.410
 6150TIP3    H218457   2.127   1.329   4.267
 6151TIP3   OH218458   3.530   0.132   1.557
 6151TIP3    H118459   3.451   0.147   1.507
 6151TIP3    H218460   3.510   0.166   1.644
 6152TIP3   OH218461   4.013   1.587   3.702
 6152TIP3    H118462   4.089   1.530   3.715
 6152TIP3    H218463   3.938   1.533   3.725
 6153TIP3   OH218464   5.004   2.630   0.463
 6153TIP3    H118465   4.920   2.670   0.486
 6153TIP3    H218466   5.060   2.704   0.440
 6154TIP3   OH218467   3.711   2.287   0.955
 6154TIP3    H118468   3.616   2.280   0.957
 6154TIP3    H218469   3.730   2.350   0.886
 6155TIP3   OH218470   2.379   0.508   1.683
 6155TIP3    H118471   2.446   0.543   1.742
 6155TIP3    H218472   2.335   0.585   1.647
 6156TIP3   OH218473   3.074   2.438   3.871
 6156TIP3    H118474   3.148   2.443   3.931
 6156TIP3    H218475   3.102   2.376   3.803
 6157TIP3   OH218476   5.061   5.564   2.705
 6157TIP3    H118477   4.983   5.509   2.719
 6157TIP3    H218478   5.036   5.624   2.635
 6158TIP3   OH218479   2.647   5.587   3.948
 6158TIP3    H118480   2.625   5.529   4.020
 6158TIP3    H218481   2.604   5.670   3.969
 6159TIP3   OH218482   5.300   2.205   3.166
 6159TIP3    H118483   5.352   2.282   3.144
 6159TIP3    H218484   5.232   2.203   3.098
 6160TIP3   OH218485   3.933   0.880   0.354
 6160TIP3    H118486   3.976   0.845   0.277
 6160TIP3    H218487   4.004   0.891   0.418
 6161TIP3   OH218488   1.558   2.207   4.862
 6161TIP3    H118489   1.553   2.274   4.794
 6161TIP3    H218490   1.514   2.246   4.937
 6162TIP3   OH218491   4.016   4.921   1.095
 6162TIP3    H118492   4.010   4.877   1.180
 6162TIP3    H218493   4.106   4.906   1.066
 6163TIP3   OH218494   4.904   3.911   3.099
 6163TIP3    H118495   4.921   3.824   3.136
 6163TIP3    H218496   4.874   3.963   3.174
 6164TIP3   OH218497   2.586   3.012   4.459
 6164TIP3    H118498   2.644   3.067   4.511
 6164TIP3    H218499   2.620   3.019   4.370
 6165TIP3   OH218500   4.193   5.791   4.140
 6165TIP3    H118501   4.193   5.747   4.055
 6165TIP3    H218502   4.270   5.755   4.185
 6166TIP3   OH218503   2.778   2.558   3.663
 6166TIP3    H118504   2.786   2.472   3.705
 6166TIP3    H218505   2.814   2.619   3.727
 6167TIP3   OH218506   5.093   3.611   1.443
 6167TIP3    H118507   5.150   3.688   1.439
 6167TIP3    H218508   5.016   3.636   1.391
 6168TIP3   OH218509   2.957   2.514   4.814
 6168TIP3    H118510   2.901   2.591   4.811
 6168TIP3    H218511   2.934   2.464   4.736
 6169TIP3   OH218512   2.401   4.139   2.438
 6169TIP3    H118513   2.334   4.203   2.413
 6169TIP3    H218514   2.476   4.192   2.464
 6170TIP3   OH218515   6.158   0.507   3.937
 6170TIP3    H118516   6.154   0.547   3.850
 6170TIP3    H218517   6.232   0.551   3.980
 6171TIP3   OH218518   4.826   2.569   3.650
 6171TIP3    H118519   4.909   2.569   3.698
 6171TIP3    H218520   4.852   2.576   3.558
 6172TIP3   OH218521   0.285   5.800   3.601
 6172TIP3    H118522   0.357   5.832   3.656
 6172TIP3    H218523   0.206   5.836   3.641
 6173TIP3   OH218524   6.019   3.658   3.113
 6173TIP3    H118525   5.938   3.638   3.159
 6173TIP3    H218526   6.054   3.573   3.087
 6174TIP3   OH218527   2.910   3.189   2.409
 6174TIP3    H118528   2.908   3.283   2.391
 6174TIP3    H218529   2.952   3.150   2.332
 6175TIP3   OH218530   3.913   0.907   4.765
 6175TIP3    H118531   3.823   0.879   4.779
 6175TIP3    H218532   3.910   0.959   4.685
 6176TIP3   OH218533   1.177   4.546   5.080
 6176TIP3    H118534   1.169   4.455   5.051
 6176TIP3    H218535   1.269   4.567   5.069
 6177TIP3   OH218536   5.746   2.318   3.803
 6177TIP3    H118537   5.794   2.249   3.849
 6177TIP3    H218538   5.790   2.326   3.719
 6178TIP3   OH218539   2.121   4.200   0.563
 6178TIP3    H118540   2.201   4.149   0.550
 6178TIP3    H218541   2.101   4.190   0.656
 6179TIP3   OH218542   5.791   1.936   4.022
 6179TIP3    H118543   5.748   1.910   3.940
 6179TIP3    H218544   5.754   1.878   4.088
 6180TIP3   OH218545   2.362   4.566   1.578
 6180TIP3    H118546   2.448   4.537   1.608
 6180TIP3    H218547   2.327   4.616   1.652
 6181TIP3   OH218548   3.417   0.357   3.081
 6181TIP3    H118549   3.492   0.416   3.075
 6181TIP3    H218550   3.418   0.327   3.172
 6182TIP3   OH218551   6.176   4.378   3.172
 6182TIP3    H118552   6.203   4.411   3.257
 6182TIP3    H218553   6.242   4.413   3.111
 6183TIP3   OH218554   5.585   1.606   3.582
 6183TIP3    H118555   5.492   1.625   3.574
 6183TIP3    H218556   5.595   1.574   3.671
 6184TIP3   OH218557   0.910   5.221   4.409
 6184TIP3    H118558   0.904   5.296   4.468
 6184TIP3    H218559   0.966   5.252   4.337
 6185TIP3   OH218560   0.450   3.310   3.180
 6185TIP3    H118561   0.377   3.282   3.234
 6185TIP3    H218562   0.451   3.246   3.108
 6186TIP3   OH218563   4.679   3.794   4.583
 6186TIP3    H118564   4.655   3.715   4.535
 6186TIP3    H218565   4.602   3.814   4.636
 6187TIP3   OH218566   1.167   2.224   4.578
 6187TIP3    H118567   1.247   2.263   4.543
 6187TIP3    H218568   1.102   2.295   4.572
 6188TIP3   OH218569   3.641   1.518   3.976
 6188TIP3    H118570   3.601   1.480   3.898
 6188TIP3    H218571   3.729   1.481   3.978
 6189TIP3   OH218572   2.085   0.548   4.781
 6189TIP3    H118573   2.137   0.611   4.732
 6189TIP3    H218574   1.995   0.581   4.776
 6190TIP3   OH218575   4.077   0.571   4.567
 6190TIP3    H118576   4.000   0.579   4.511
 6190TIP3    H218577   4.042   0.540   4.651
 6191TIP3   OH218578   5.450   1.944   3.079
 6191TIP3    H118579   5.479   2.007   3.145
 6191TIP3    H218580   5.434   1.997   3.001
 6192TIP3   OH218581   1.868   1.841   1.543
 6192TIP3    H118582   1.822   1.770   1.500
 6192TIP3    H218583   1.882   1.810   1.633
 6193TIP3   OH218584   1.337   3.076   2.394
 6193TIP3    H118585   1.328   3.012   2.465
 6193TIP3    H218586   1.333   3.024   2.314
 6194TIP3   OH218587   1.311   4.398   2.036
 6194TIP3    H118588   1.379   4.336   2.062
 6194TIP3    H218589   1.234   4.372   2.087
 6195TIP3   OH218590   2.513   2.516   1.744
 6195TIP3    H118591   2.467   2.442   1.784
 6195TIP3    H218592   2.491   2.510   1.651
 6196TIP3   OH218593   4.361   4.028   3.751
 6196TIP3    H118594   4.447   3.987   3.762
 6196TIP3    H218595   4.334   4.051   3.840
 6197TIP3   OH218596   2.004   5.053   1.165
 6197TIP3    H118597   1.917   5.054   1.205
 6197TIP3    H218598   2.036   4.964   1.179
 6198TIP3   OH218599   0.446   3.386   3.947
 6198TIP3    H118600   0.407   3.300   3.933
 6198TIP3    H218601   0.404   3.419   4.027
 6199TIP3   OH218602   6.205   3.354   2.557
 6199TIP3    H118603   6.262   3.414   2.605
 6199TIP3    H218604   6.194   3.279   2.616
 6200TIP3   OH218605   3.941   3.919   4.661
 6200TIP3    H118606   4.037   3.921   4.659
 6200TIP3    H218607   3.916   3.887   4.574
 6201TIP3   OH218608   1.628   5.141   4.872
 6201TIP3    H118609   1.723   5.145   4.877
 6201TIP3    H218610   1.604   5.206   4.806
 6202TIP3   OH218611   2.998   1.980   2.563
 6202TIP3    H118612   2.921   1.971   2.619
 6202TIP3    H218613   2.963   2.012   2.480
 6203TIP3   OH218614   1.740   0.856   4.840
 6203TIP3    H118615   1.700   0.886   4.921
 6203TIP3    H218616   1.731   0.761   4.842
 6204TIP3   OH218617   3.633   4.868   1.882
 6204TIP3    H118618   3.679   4.894   1.962
 6204TIP3    H218619   3.700   4.873   1.814
 6205TIP3   OH218620   2.773   1.197   4.227
 6205TIP3    H118621   2.703   1.142   4.260
 6205TIP3    H218622   2.848   1.138   4.219
 6206TIP3   OH218623   1.984   4.000   1.666
 6206TIP3    H118624   2.039   4.031   1.594
 6206TIP3    H218625   2.015   3.911   1.684
 6207TIP3   OH218626   2.984   0.425   4.922
 6207TIP3    H118627   2.964   0.363   4.992
 6207TIP3    H218628   2.958   0.511   4.957
 6208TIP3   OH218629   3.566   5.451   3.983
 6208TIP3    H118630   3.657   5.434   4.006
 6208TIP3    H218631   3.559   5.546   3.978
 6209TIP3   OH218632   0.430   0.719   4.956
 6209TIP3    H118633   0.345   0.707   4.999
 6209TIP3    H218634   0.414   0.696   4.865
 6210TIP3   OH218635   2.013   3.603   2.028
 6210TIP3    H118636   1.998   3.516   1.992
 6210TIP3    H218637   2.018   3.590   2.122
 6211TIP3   OH218638   0.468   1.389   0.151
 6211TIP3    H118639   0.519   1.456   0.106
 6211TIP3    H218640   0.461   1.317   0.088
 6212TIP3   OH218641   5.689   5.294   2.870
 6212TIP3    H118642   5.617   5.236   2.894
 6212TIP3    H218643   5.691   5.359   2.940
 6213TIP3   OH218644   1.620   4.411   0.624
 6213TIP3    H118645   1.615   4.340   0.688
 6213TIP3    H218646   1.676   4.477   0.666
 6214TIP3   OH218647   1.077   3.752   3.776
 6214TIP3    H118648   1.006   3.742   3.713
 6214TIP3    H218649   1.149   3.700   3.739
 6215TIP3   OH218650   4.048   3.603   3.402
 6215TIP3    H118651   4.017   3.513   3.396
 6215TIP3    H218652   3.996   3.641   3.473
 6216TIP3   OH218653   6.237   0.037   4.525
 6216TIP3    H118654   6.233   0.095   4.601
 6216TIP3    H218655   6.155  -0.013   4.529
 6217TIP3   OH218656   3.773   1.159   4.437
 6217TIP3    H118657   3.748   1.247   4.411
 6217TIP3    H218658   3.697   1.126   4.486
 6218TIP3   OH218659   2.908   2.268   2.163
 6218TIP3    H118660   2.890   2.180   2.195
 6218TIP3    H218661   2.869   2.326   2.228
 6219TIP3   OH218662   4.676   1.941   3.824
 6219TIP3    H118663   4.673   1.972   3.914
 6219TIP3    H218664   4.705   2.017   3.773
 6220TIP3   OH218665   5.622   2.187   3.089
 6220TIP3    H118666   5.667   2.248   3.031
 6220TIP3    H218667   5.582   2.242   3.156
 6221TIP3   OH218668   3.586   1.011   3.784
 6221TIP3    H118669   3.660   1.071   3.792
 6221TIP3    H218670   3.527   1.052   3.720
 6222TIP3   OH218671   2.448   0.299   1.094
 6222TIP3    H118672   2.354   0.310   1.081
 6222TIP3    H218673   2.483   0.388   1.097
 6223TIP3   OH218674   4.975   5.580   4.257
 6223TIP3    H118675   4.888   5.557   4.288
 6223TIP3    H218676   4.966   5.590   4.163
 6224TIP3   OH218677   2.301   4.962   0.077
 6224TIP3    H118678   2.261   4.998   0.156
 6224TIP3    H218679   2.235   4.902   0.042
 6225TIP3   OH218680   0.544   0.523   0.083
 6225TIP3    H118681   0.569   0.608   0.046
 6225TIP3    H218682   0.459   0.537   0.123
 6226TIP3   OH218683   5.518   4.847   0.753
 6226TIP3    H118684   5.539   4.930   0.710
 6226TIP3    H218685   5.424   4.835   0.739
 6227TIP3   OH218686   3.011   3.429   3.380
 6227TIP3    H118687   3.065   3.353   3.362
 6227TIP3    H218688   3.072   3.502   3.381
 6228TIP3   OH218689   2.507   4.935   1.745
 6228TIP3    H118690   2.564   4.863   1.717
 6228TIP3    H218691   2.568   5.006   1.768
 6229TIP3   OH218692   0.337   3.334   3.694
 6229TIP3    H118693   0.417   3.284   3.709
 6229TIP3    H218694   0.328   3.389   3.771
 6230TIP3   OH218695   2.350   2.292   4.284
 6230TIP3    H118696   2.388   2.213   4.323
 6230TIP3    H218697   2.343   2.354   4.356
 6231TIP3   OH218698   1.428   2.270   0.908
 6231TIP3    H118699   1.509   2.301   0.868
 6231TIP3    H218700   1.383   2.349   0.937
 6232TIP3   OH218701   1.758   1.417   2.924
 6232TIP3    H118702   1.784   1.452   3.009
 6232TIP3    H218703   1.690   1.476   2.893
 6233TIP3   OH218704   5.303   3.815   1.400
 6233TIP3    H118705   5.347   3.818   1.486
 6233TIP3    H218706   5.301   3.906   1.371
 6234TIP3   OH218707   2.599   5.642   2.396
 6234TIP3    H118708   2.684   5.609   2.422
 6234TIP3    H218709   2.617   5.730   2.361
 6235TIP3   OH218710   1.809   2.015   1.757
 6235TIP3    H118711   1.803   2.006   1.662
 6235TIP3    H218712   1.868   2.089   1.771
 6236TIP3   OH218713   6.184   4.138   4.365
 6236TIP3    H118714   6.197   4.047   4.340
 6236TIP3    H218715   6.232   4.188   4.299
 6237TIP3   OH218716   5.883   5.783   1.782
 6237TIP3    H118717   5.938   5.823   1.715
 6237TIP3    H218718   5.818   5.850   1.803
 6238TIP3   OH218719   5.380   0.171   2.364
 6238TIP3    H118720   5.374   0.170   2.269
 6238TIP3    H218721   5.336   0.252   2.390
 6239TIP3   OH218722   4.516   0.011   1.998
 6239TIP3    H118723   4.598  -0.037   2.014
 6239TIP3    H218724   4.540   0.103   2.000
 6240TIP3   OH218725   2.369   2.585   4.439
 6240TIP3    H118726   2.450   2.635   4.427
 6240TIP3    H218727   2.300   2.650   4.439
 6241TIP3   OH218728   1.100   2.365   1.082
 6241TIP3    H118729   1.190   2.396   1.082
 6241TIP3    H218730   1.105   2.276   1.117
 6242TIP3   OH218731   6.282   0.607   4.900
 6242TIP3    H118732   6.299   0.527   4.949
 6242TIP3    H218733   6.369   0.637   4.873
 6243TIP3   OH218734   4.032   0.772   5.139
 6243TIP3    H118735   3.937   0.784   5.147
 6243TIP3    H218736   4.054   0.807   5.053
 6244TIP3   OH218737   3.115   0.744   0.584
 6244TIP3    H118738   3.021   0.758   0.579
 6244TIP3    H218739   3.154   0.829   0.564
 6245TIP3   OH218740   0.418   2.205   3.619
 6245TIP3    H118741   0.378   2.288   3.592
 6245TIP3    H218742   0.478   2.229   3.689
 6246TIP3   OH218743   6.282   4.483   3.922
 6246TIP3    H118744   6.271   4.392   3.952
 6246TIP3    H218745   6.197   4.506   3.885
 6247TIP3   OH218746   6.143   5.881   4.181
 6247TIP3    H118747   6.107   5.842   4.260
 6247TIP3    H218748   6.069   5.887   4.120
 6248TIP3   OH218749   3.196   5.202   3.626
 6248TIP3    H118750   3.259   5.251   3.679
 6248TIP3    H218751   3.189   5.252   3.545
 6249TIP3   OH218752   2.003   4.376   3.726
 6249TIP3    H118753   1.943   4.446   3.701
 6249TIP3    H218754   2.075   4.384   3.664
 6250TIP3   OH218755   5.762   2.929   0.766
 6250TIP3    H118756   5.727   2.861   0.824
 6250TIP3    H218757   5.772   2.885   0.682
 6251TIP3   OH218758   1.491   3.248   0.999
 6251TIP3    H118759   1.523   3.205   0.920
 6251TIP3    H218760   1.435   3.182   1.040
 6252TIP3   OH218761   1.797   2.360   1.133
 6252TIP3    H118762   1.812   2.369   1.039
 6252TIP3    H218763   1.857   2.290   1.160
 6253TIP3   OH218764   5.938   2.776   0.237
 6253TIP3    H118765   6.000   2.736   0.176
 6253TIP3    H218766   5.994   2.817   0.303
 6254TIP3   OH218767   3.614   5.191   1.786
 6254TIP3    H118768   3.545   5.132   1.755
 6254TIP3    H218769   3.685   5.181   1.722
 6255TIP3   OH218770   4.823   0.838   4.875
 6255TIP3    H118771   4.904   0.825   4.923
 6255TIP3    H218772   4.786   0.751   4.866
 6256TIP3   OH218773   3.982   0.335   0.648
 6256TIP3    H118774   3.942   0.249   0.643
 6256TIP3    H218775   3.929   0.383   0.712
 6257TIP3   OH218776   5.398   2.708   4.104
 6257TIP3    H118777   5.445   2.650   4.043
 6257TIP3    H218778   5.465   2.736   4.166
 6258TIP3   OH218779   4.126   2.727   3.154
 6258TIP3    H118780   4.042   2.716   3.198
 6258TIP3    H218781   4.190   2.686   3.213
 6259TIP3   OH218782   2.046   0.355   0.205
 6259TIP3    H118783   1.974   0.309   0.250
 6259TIP3    H218784   2.124   0.334   0.257
 6260TIP3   OH218785   2.812   1.737   4.374
 6260TIP3    H118786   2.788   1.816   4.421
 6260TIP3    H218787   2.750   1.732   4.301
 6261TIP3   OH218788   3.727   0.396   2.035
 6261TIP3    H118789   3.801   0.448   2.066
 6261TIP3    H218790   3.650   0.438   2.074
 6262TIP3   OH218791   0.993   0.866   4.476
 6262TIP3    H118792   0.956   0.920   4.547
 6262TIP3    H218793   0.968   0.912   4.396
 6263TIP3   OH218794   2.940   0.963   4.226
 6263TIP3    H118795   3.006   0.913   4.275
 6263TIP3    H218796   2.912   0.904   4.156
 6264TIP3   OH218797   0.922   5.198   0.196
 6264TIP3    H118798   0.961   5.113   0.214
 6264TIP3    H218799   0.835   5.179   0.162
 6265TIP3   OH218800   3.903   3.999   1.651
 6265TIP3    H118801   3.985   3.956   1.628
 6265TIP3    H218802   3.870   4.034   1.568
 6266TIP3   OH218803   4.484   3.622   2.420
 6266TIP3    H118804   4.442   3.672   2.350
 6266TIP3    H218805   4.454   3.532   2.405
 6267TIP3   OH218806   3.740   1.826   0.185
 6267TIP3    H118807   3.768   1.917   0.177
 6267TIP3    H218808   3.649   1.825   0.154
 6268TIP3   OH218809   3.329   5.248   4.792
 6268TIP3    H118810   3.252   5.200   4.760
 6268TIP3    H218811   3.382   5.182   4.836
 6269TIP3   OH218812   4.086   3.284   3.793
 6269TIP3    H118813   4.015   3.322   3.741
 6269TIP3    H218814   4.063   3.304   3.884
 6270TIP3   OH218815   1.982   3.038   0.638
 6270TIP3    H118816   1.997   2.953   0.597
 6270TIP3    H218817   1.887   3.048   0.640
 6271TIP3   OH218818   6.023   2.538   1.763
 6271TIP3    H118819   5.984   2.624   1.774
 6271TIP3    H218820   6.010   2.495   1.848
 6272TIP3   OH218821   5.485   2.555   1.603
 6272TIP3    H118822   5.469   2.465   1.633
 6272TIP3    H218823   5.580   2.562   1.600
 6273TIP3   OH218824   3.540   2.752   0.114
 6273TIP3    H118825   3.618   2.796   0.078
 6273TIP3    H218826   3.567   2.661   0.123
 6274TIP3   OH218827   4.427   3.697   3.571
 6274TIP3    H118828   4.342   3.723   3.607
 6274TIP3    H218829   4.458   3.774   3.523
 6275TIP3   OH218830   2.931   5.541   0.301
 6275TIP3    H118831   2.962   5.577   0.218
 6275TIP3    H218832   2.864   5.477   0.276
 6276TIP3   OH218833   5.455   2.486   0.222
 6276TIP3    H118834   5.424   2.395   0.229
 6276TIP3    H218835   5.550   2.478   0.215
 6277TIP3   OH218836   1.091   1.838   3.095
 6277TIP3    H118837   1.085   1.745   3.075
 6277TIP3    H218838   1.126   1.877   3.015
 6278TIP3   OH218839   3.461   3.904   0.770
 6278TIP3    H118840   3.453   3.820   0.725
 6278TIP3    H218841   3.481   3.881   0.861
 6279TIP3   OH218842   4.463   1.619   5.070
 6279TIP3    H118843   4.414   1.688   5.025
 6279TIP3    H218844   4.404   1.544   5.069
 6280TIP3   OH218845   4.077   3.926   2.622
 6280TIP3    H118846   4.157   3.970   2.650
 6280TIP3    H218847   4.108   3.854   2.567
 6281TIP3   OH218848   4.032   0.762   2.035
 6281TIP3    H118849   4.108   0.741   1.981
 6281TIP3    H218850   3.991   0.837   1.992
 6282TIP3   OH218851   1.879   1.885   3.513
 6282TIP3    H118852   1.943   1.919   3.576
 6282TIP3    H218853   1.856   1.960   3.459
 6283TIP3   OH218854   4.191   5.621   3.647
 6283TIP3    H118855   4.249   5.673   3.592
 6283TIP3    H218856   4.150   5.559   3.587
 6284TIP3   OH218857   0.847   1.286   2.782
 6284TIP3    H118858   0.795   1.322   2.853
 6284TIP3    H218859   0.884   1.205   2.817
 6285TIP3   OH218860   5.847   4.403   3.615
 6285TIP3    H118861   5.890   4.332   3.663
 6285TIP3    H218862   5.761   4.369   3.593
 6286TIP3   OH218863   5.503   0.663   3.497
 6286TIP3    H118864   5.412   0.635   3.497
 6286TIP3    H218865   5.544   0.610   3.566
 6287TIP3   OH218866   3.061   5.705   3.896
 6287TIP3    H118867   3.010   5.626   3.909
 6287TIP3    H218868   3.113   5.715   3.975
 6288TIP3   OH218869   1.111   1.038   1.013
 6288TIP3    H118870   1.205   1.051   1.028
 6288TIP3    H218871   1.071   1.121   1.039
 6289TIP3   OH218872   5.370   3.550   3.250
 6289TIP3    H118873   5.462   3.551   3.275
 6289TIP3    H218874   5.367   3.494   3.172
 6290TIP3   OH218875   0.800   0.744   0.090
 6290TIP3    H118876   0.828   0.833   0.111
 6290TIP3    H218877   0.706   0.752   0.072
 6291TIP3   OH218878   0.305   0.003   0.041
 6291TIP3    H118879   0.252   0.067   0.089
 6291TIP3    H218880   0.322   0.043  -0.044
 6292TIP3   OH218881   3.813   1.192   4.166
 6292TIP3    H118882   3.806   1.160   4.256
 6292TIP3    H218883   3.722   1.196   4.136
 6293TIP3   OH218884   5.279   0.631   2.606
 6293TIP3    H118885   5.295   0.623   2.700
 6293TIP3    H218886   5.231   0.552   2.583
 6294TIP3   OH218887   4.984   1.475   3.417
 6294TIP3    H118888   5.057   1.530   3.386
 6294TIP3    H218889   5.024   1.414   3.479
 6295TIP3   OH218890   1.092   4.876   0.690
 6295TIP3    H118891   1.026   4.923   0.637
 6295TIP3    H218892   1.040   4.820   0.748
 6296TIP3   OH218893   1.025   2.502   0.688
 6296TIP3    H118894   1.097   2.487   0.627
 6296TIP3    H218895   1.061   2.561   0.754
 6297TIP3   OH218896   5.657   0.496   4.222
 6297TIP3    H118897   5.673   0.580   4.266
 6297TIP3    H218898   5.741   0.451   4.224
 6298TIP3   OH218899   5.173   3.396   4.178
 6298TIP3    H118900   5.238   3.466   4.180
 6298TIP3    H218901   5.175   3.359   4.267
 6299TIP3   OH218902   2.167   4.882   4.126
 6299TIP3    H118903   2.180   4.950   4.193
 6299TIP3    H218904   2.092   4.912   4.075
 6300TIP3   OH218905   2.811   3.498   4.214
 6300TIP3    H118906   2.878   3.549   4.169
 6300TIP3    H218907   2.758   3.564   4.260
 6301TIP3   OH218908   4.361   0.547   1.583
 6301TIP3    H118909   4.311   0.468   1.561
 6301TIP3    H218910   4.420   0.518   1.653
 6302TIP3   OH218911   2.812   3.132   4.606
 6302TIP3    H118912   2.865   3.119   4.685
 6302TIP3    H218913   2.875   3.135   4.534
 6303TIP3   OH218914   1.711   3.420   3.562
 6303TIP3    H118915   1.619   3.403   3.543
 6303TIP3    H218916   1.713   3.512   3.590
 6304TIP3   OH218917   1.179   5.827   0.129
 6304TIP3    H118918   1.222   5.844   0.213
 6304TIP3    H218919   1.085   5.831   0.149
 6305TIP3   OH218920   3.472   0.527   2.745
 6305TIP3    H118921   3.492   0.598   2.683
 6305TIP3    H218922   3.391   0.489   2.712
 6306TIP3   OH218923   2.064   2.642   4.872
 6306TIP3    H118924   2.132   2.709   4.876
 6306TIP3    H218925   2.112   2.559   4.877
 6307TIP3   OH218926   0.180   1.331   0.204
 6307TIP3    H118927   0.161   1.263   0.268
 6307TIP3    H218928   0.268   1.360   0.225
 6308TIP3   OH218929   3.662   0.710   3.454
 6308TIP3    H118930   3.757   0.717   3.446
 6308TIP3    H218931   3.633   0.800   3.471
 6309TIP3   OH218932   3.097   4.905   4.136
 6309TIP3    H118933   3.013   4.878   4.099
 6309TIP3    H218934   3.162   4.854   4.088
 6310TIP3   OH218935   0.515   1.058   3.081
 6310TIP3    H118936   0.575   1.119   3.124
 6310TIP3    H218937   0.446   1.043   3.145
 6311TIP3   OH218938   5.290   1.545   2.529
 6311TIP3    H118939   5.201   1.530   2.497
 6311TIP3    H218940   5.316   1.628   2.488
 6312TIP3   OH218941   4.576   2.492   3.656
 6312TIP3    H118942   4.550   2.530   3.740
 6312TIP3    H218943   4.670   2.511   3.649
 6313TIP3   OH218944   3.782   1.393   1.484
 6313TIP3    H118945   3.722   1.339   1.433
 6313TIP3    H218946   3.740   1.478   1.488
 6314TIP3   OH218947   0.936   2.570   2.775
 6314TIP3    H118948   0.854   2.545   2.731
 6314TIP3    H218949   0.916   2.565   2.868
 6315TIP3   OH218950   0.490   2.525   4.763
 6315TIP3    H118951   0.441   2.468   4.822
 6315TIP3    H218952   0.491   2.479   4.679
 6316TIP3   OH218953   0.154   5.277   2.343
 6316TIP3    H118954   0.219   5.325   2.394
 6316TIP3    H218955   0.165   5.186   2.371
 6317TIP3   OH218956   2.901   0.218   3.359
 6317TIP3    H118957   2.896   0.136   3.310
 6317TIP3    H218958   2.926   0.283   3.293
 6318TIP3   OH218959   4.939   4.070   2.692
 6318TIP3    H118960   4.856   4.047   2.652
 6318TIP3    H218961   4.949   4.163   2.674
 6319TIP3   OH218962   1.721   0.519   0.701
 6319TIP3    H118963   1.779   0.592   0.725
 6319TIP3    H218964   1.641   0.561   0.671
 6320TIP3   OH218965   2.349   0.039   2.296
 6320TIP3    H118966   2.324   0.079   2.379
 6320TIP3    H218967   2.328   0.105   2.230
 6321TIP3   OH218968   0.385   4.093   0.846
 6321TIP3    H118969   0.446   4.088   0.920
 6321TIP3    H218970   0.391   4.184   0.816
 6322TIP3   OH218971   6.117   1.917   0.011
 6322TIP3    H118972   6.056   1.914  -0.062
 6322TIP3    H218973   6.115   1.828   0.047
 6323TIP3   OH218974   6.194   1.676   4.537
 6323TIP3    H118975   6.226   1.671   4.447
 6323TIP3    H218976   6.120   1.736   4.534
 6324TIP3   OH218977   0.507   2.937   1.401
 6324TIP3    H118978   0.583   2.936   1.343
 6324TIP3    H218979   0.432   2.927   1.342
 6325TIP3   OH218980   1.791   5.868   1.808
 6325TIP3    H118981   1.862   5.884   1.745
 6325TIP3    H218982   1.721   5.828   1.755
 6326TIP3   OH218983   1.738   4.614   2.172
 6326TIP3    H118984   1.830   4.620   2.150
 6326TIP3    H218985   1.694   4.671   2.110
 6327TIP3   OH218986   2.870   4.370   0.185
 6327TIP3    H118987   2.966   4.379   0.179
 6327TIP3    H218988   2.853   4.360   0.279
 6328TIP3   OH218989   2.180   3.230   0.576
 6328TIP3    H118990   2.111   3.175   0.613
 6328TIP3    H218991   2.254   3.170   0.565
 6329TIP3   OH218992   0.812   2.469   4.516
 6329TIP3    H118993   0.892   2.440   4.560
 6329TIP3    H218994   0.835   2.554   4.479
 6330TIP3   OH218995   3.055   4.647   2.937
 6330TIP3    H118996   3.009   4.586   2.879
 6330TIP3    H218997   3.127   4.682   2.884
 6331TIP3   OH218998   6.218   0.264   5.030
 6331TIP3    H118999   6.145   0.326   5.038
 6331TIP3    H219000   6.295   0.320   5.020
 6332TIP3   OH219001   3.534   4.339   0.021
 6332TIP3    H119002   3.607   4.390  -0.015
 6332TIP3    H219003   3.561   4.248   0.011
 6333TIP3   OH219004   3.551   2.842   2.460
 6333TIP3    H119005   3.595   2.823   2.377
 6333TIP3    H219006   3.593   2.922   2.491
 6334TIP3   OH219007   2.530   5.520   3.073
 6334TIP3    H119008   2.625   5.509   3.070
 6334TIP3    H219009   2.517   5.608   3.108
 6335TIP3   OH219010   2.596   5.658   2.830
 6335TIP3    H119011   2.534   5.586   2.842
 6335TIP3    H219012   2.632   5.672   2.918
 6336TIP3   OH219013   0.245   1.697   3.615
 6336TIP3    H119014   0.312   1.736   3.671
 6336TIP3    H219015   0.172   1.758   3.619
 6337TIP3   OH219016   1.855   2.077   2.456
 6337TIP3    H119017   1.818   2.010   2.514
 6337TIP3    H219018   1.948   2.054   2.450
 6338TIP3   OH219019   0.898   4.669   3.612
 6338TIP3    H119020   0.947   4.642   3.690
 6338TIP3    H219021   0.848   4.592   3.587
 6339TIP3   OH219022   2.872   2.625   3.933
 6339TIP3    H119023   2.811   2.599   4.002
 6339TIP3    H219024   2.926   2.547   3.918
 6340TIP3   OH219025   4.147   3.328   1.940
 6340TIP3    H119026   4.121   3.237   1.929
 6340TIP3    H219027   4.218   3.326   2.005
 6341TIP3   OH219028   5.268   2.159   1.940
 6341TIP3    H119029   5.311   2.077   1.962
 6341TIP3    H219030   5.297   2.221   2.007
 6342TIP3   OH219031   5.587   5.273   4.654
 6342TIP3    H119032   5.591   5.363   4.622
 6342TIP3    H219033   5.648   5.225   4.598
 6343TIP3   OH219034   4.438   3.727   2.746
 6343TIP3    H119035   4.385   3.690   2.675
 6343TIP3    H219036   4.401   3.689   2.826
 6344TIP3   OH219037   0.720   2.280   1.148
 6344TIP3    H119038   0.798   2.262   1.201
 6344TIP3    H219039   0.656   2.215   1.178
 6345TIP3   OH219040   2.723   4.131   2.543
 6345TIP3    H119041   2.736   4.048   2.589
 6345TIP3    H219042   2.749   4.113   2.452
 6346TIP3   OH219043   3.965   0.500   2.391
 6346TIP3    H119044   3.999   0.486   2.302
 6346TIP3    H219045   3.994   0.588   2.414
 6347TIP3   OH219046   1.713   4.475   4.096
 6347TIP3    H119047   1.692   4.451   4.187
 6347TIP3    H219048   1.768   4.552   4.105
 6348TIP3   OH219049   5.225   2.976   2.980
 6348TIP3    H119050   5.319   2.957   2.970
 6348TIP3    H219051   5.223   3.066   3.013
 6349TIP3   OH219052   4.754   4.195   3.545
 6349TIP3    H119053   4.765   4.230   3.457
 6349TIP3    H219054   4.842   4.197   3.583
 6350TIP3   OH219055   1.744   3.697   1.047
 6350TIP3    H119056   1.817   3.756   1.065
 6350TIP3    H219057   1.672   3.731   1.100
 6351TIP3   OH219058   1.343  -0.016   3.962
 6351TIP3    H119059   1.281   0.018   4.026
 6351TIP3    H219060   1.302   0.001   3.877
 6352TIP3   OH219061   3.586   2.263   2.797
 6352TIP3    H119062   3.508   2.263   2.853
 6352TIP3    H219063   3.562   2.321   2.724
 6353TIP3   OH219064   1.435   3.882   1.477
 6353TIP3    H119065   1.451   3.959   1.423
 6353TIP3    H219066   1.520   3.860   1.514
 6354TIP3   OH219067   6.273   2.828   5.033
 6354TIP3    H119068   6.264   2.885   5.109
 6354TIP3    H219069   6.193   2.843   4.982
 6355TIP3   OH219070   4.562   3.594   4.437
 6355TIP3    H119071   4.506   3.547   4.498
 6355TIP3    H219072   4.504   3.619   4.365
 6356TIP3   OH219073   1.430   0.598   0.347
 6356TIP3    H119074   1.397   0.558   0.267
 6356TIP3    H219075   1.508   0.547   0.369
 6357TIP3   OH219076   1.872   2.898   1.706
 6357TIP3    H119077   1.893   2.811   1.741
 6357TIP3    H219078   1.913   2.959   1.767
 6358TIP3   OH219079   1.019   5.007   4.903
 6358TIP3    H119080   0.972   5.029   4.984
 6358TIP3    H219081   1.010   4.912   4.895
 6359TIP3   OH219082   2.105   0.502   2.669
 6359TIP3    H119083   2.137   0.486   2.580
 6359TIP3    H219084   2.095   0.597   2.675
 6360TIP3   OH219085   1.814   5.099   3.781
 6360TIP3    H119086   1.839   5.189   3.800
 6360TIP3    H219087   1.788   5.101   3.689
 6361TIP3   OH219088   2.268   4.936   1.069
 6361TIP3    H119089   2.285   4.857   1.017
 6361TIP3    H219090   2.225   4.996   1.008
 6362TIP3   OH219091   4.917   4.892   1.420
 6362TIP3    H119092   4.999   4.904   1.373
 6362TIP3    H219093   4.888   4.804   1.397
 6363TIP3   OH219094   5.930   1.369   0.249
 6363TIP3    H119095   5.893   1.449   0.286
 6363TIP3    H219096   5.855   1.323   0.211
 6364TIP3   OH219097   3.331   0.195   0.066
 6364TIP3    H119098   3.279   0.124   0.031
 6364TIP3    H219099   3.297   0.209   0.155
 6365TIP3   OH219100   1.133   1.008   2.436
 6365TIP3    H119101   1.188   0.986   2.361
 6365TIP3    H219102   1.164   0.951   2.507
 6366TIP3   OH219103   0.587   0.511   2.686
 6366TIP3    H119104   0.604   0.467   2.603
 6366TIP3    H219105   0.517   0.572   2.667
 6367TIP3   OH219106   2.202   3.178   1.900
 6367TIP3    H119107   2.207   3.212   1.810
 6367TIP3    H219108   2.293   3.176   1.929
 6368TIP3   OH219109   4.736   2.031   2.212
 6368TIP3    H119110   4.765   2.024   2.303
 6368TIP3    H219111   4.794   2.098   2.174
 6369TIP3   OH219112   0.834   3.116   2.763
 6369TIP3    H119113   0.894   3.183   2.796
 6369TIP3    H219114   0.833   3.130   2.668
 6370TIP3   OH219115   0.331   0.503   1.724
 6370TIP3    H119116   0.291   0.438   1.782
 6370TIP3    H219117   0.392   0.551   1.780
 6371TIP3   OH219118   5.736   1.777   2.477
 6371TIP3    H119119   5.655   1.759   2.429
 6371TIP3    H219120   5.796   1.812   2.411
 6372TIP3   OH219121   0.896   5.463   4.529
 6372TIP3    H119122   0.903   5.488   4.437
 6372TIP3    H219123   0.943   5.531   4.577
 6373TIP3   OH219124   3.717   4.096   4.678
 6373TIP3    H119125   3.802   4.057   4.657
 6373TIP3    H219126   3.739   4.182   4.714
 6374TIP3   OH219127   1.737   1.583   0.048
 6374TIP3    H119128   1.813   1.560  -0.005
 6374TIP3    H219129   1.679   1.630  -0.012
 6375TIP3   OH219130   4.924   4.618   1.446
 6375TIP3    H119131   4.929   4.534   1.491
 6375TIP3    H219132   4.956   4.682   1.509
 6376TIP3   OH219133   0.632   0.281   4.631
 6376TIP3    H119134   0.598   0.249   4.715
 6376TIP3    H219135   0.594   0.368   4.622
 6377TIP3   OH219136   3.099   2.067   4.535
 6377TIP3    H119137   3.008   2.060   4.566
 6377TIP3    H219138   3.100   2.021   4.452
 6378TIP3   OH219139   3.678   5.397   1.232
 6378TIP3    H119140   3.667   5.491   1.221
 6378TIP3    H219141   3.709   5.366   1.147
 6379TIP3   OH219142   1.012   5.866   1.308
 6379TIP3    H119143   0.994   5.827   1.393
 6379TIP3    H219144   0.982   5.957   1.316
 6380TIP3   OH219145   1.916   2.789   3.946
 6380TIP3    H119146   1.999   2.742   3.938
 6380TIP3    H219147   1.939   2.881   3.934
 6381TIP3   OH219148   1.478   4.475   3.680
 6381TIP3    H119149   1.476   4.505   3.770
 6381TIP3    H219150   1.428   4.540   3.631
 6382TIP3   OH219151   2.578   4.234   4.264
 6382TIP3    H119152   2.521   4.158   4.256
 6382TIP3    H219153   2.620   4.241   4.178
 6383TIP3   OH219154   1.262   1.527   3.280
 6383TIP3    H119155   1.317   1.456   3.247
 6383TIP3    H219156   1.174   1.489   3.283
 6384TIP3   OH219157   6.236   2.675   4.398
 6384TIP3    H119158   6.212   2.624   4.475
 6384TIP3    H219159   6.318   2.718   4.422
 6385TIP3   OH219160   6.029   1.522   0.005
 6385TIP3    H119161   6.089   1.449  -0.009
 6385TIP3    H219162   6.070   1.575   0.073
 6386TIP3   OH219163   2.972   4.078   0.746
 6386TIP3    H119164   3.042   4.032   0.699
 6386TIP3    H219165   2.938   4.014   0.808
 6387TIP3   OH219166   5.250   2.885   1.294
 6387TIP3    H119167   5.210   2.970   1.271
 6387TIP3    H219168   5.178   2.834   1.330
 6388TIP3   OH219169   4.151   0.222   1.948
 6388TIP3    H119170   4.111   0.263   1.871
 6388TIP3    H219171   4.151   0.129   1.928
 6389TIP3   OH219172   1.112   2.683   4.191
 6389TIP3    H119173   1.028   2.710   4.227
 6389TIP3    H219174   1.100   2.688   4.096
 6390TIP3   OH219175   1.751   5.448   3.287
 6390TIP3    H119176   1.846   5.455   3.301
 6390TIP3    H219177   1.715   5.529   3.321
 6391TIP3   OH219178   0.721   2.308   2.823
 6391TIP3    H119179   0.738   2.282   2.732
 6391TIP3    H219180   0.786   2.260   2.874
 6392TIP3   OH219181   3.547   3.778   4.092
 6392TIP3    H119182   3.547   3.842   4.021
 6392TIP3    H219183   3.456   3.774   4.121
 6393TIP3   OH219184   2.787   1.924   2.715
 6393TIP3    H119185   2.706   1.885   2.682
 6393TIP3    H219186   2.760   1.980   2.788
 6394TIP3   OH219187   1.058   0.178   1.475
 6394TIP3    H119188   1.040   0.101   1.422
 6394TIP3    H219189   0.978   0.231   1.467
 6395TIP3   OH219190   2.326   3.752   0.254
 6395TIP3    H119191   2.299   3.791   0.338
 6395TIP3    H219192   2.412   3.714   0.272
 6396TIP3   OH219193   4.135   2.307   0.137
 6396TIP3    H119194   4.192   2.241   0.175
 6396TIP3    H219195   4.148   2.299   0.042
 6397TIP3   OH219196   1.890   1.378   1.878
 6397TIP3    H119197   1.860   1.293   1.912
 6397TIP3    H219198   1.973   1.394   1.923
 6398TIP3   OH219199   5.707   1.992   3.317
 6398TIP3    H119200   5.752   1.992   3.402
 6398TIP3    H219201   5.651   2.069   3.319
 6399TIP3   OH219202   1.229   5.254   4.315
 6399TIP3    H119203   1.235   5.168   4.355
 6399TIP3    H219204   1.222   5.237   4.221
 6400TIP3   OH219205   4.764   1.777   0.642
 6400TIP3    H119206   4.752   1.821   0.727
 6400TIP3    H219207   4.810   1.696   0.664
 6401TIP3   OH219208   1.232   4.018   0.398
 6401TIP3    H119209   1.154   4.030   0.452
 6401TIP3    H219210   1.279   3.946   0.439
 6402TIP3   OH219211   4.860   0.215   2.834
 6402TIP3    H119212   4.832   0.212   2.925
 6402TIP3    H219213   4.790   0.261   2.789
 6403TIP3   OH219214   1.473   3.014   1.814
 6403TIP3    H119215   1.418   2.977   1.745
 6403TIP3    H219216   1.537   3.067   1.766
 6404TIP3   OH219217   0.219   3.446   0.285
 6404TIP3    H119218   0.127   3.468   0.270
 6404TIP3    H219219   0.268   3.516   0.243
 6405TIP3   OH219220   5.110   0.145   2.512
 6405TIP3    H119221   5.120   0.064   2.461
 6405TIP3    H219222   5.077   0.209   2.448
 6406TIP3   OH219223   1.662   3.946   0.266
 6406TIP3    H119224   1.622   3.883   0.206
 6406TIP3    H219225   1.733   3.898   0.307
 6407TIP3   OH219226   4.726   1.738   4.873
 6407TIP3    H119227   4.765   1.711   4.790
 6407TIP3    H219228   4.698   1.828   4.858
 6408TIP3   OH219229   5.669   5.950   0.087
 6408TIP3    H119230   5.576   5.930   0.080
 6408TIP3    H219231   5.672   6.044   0.105
 6409TIP3   OH219232   5.025   2.085   2.515
 6409TIP3    H119233   4.979   2.049   2.439
 6409TIP3    H219234   5.038   2.178   2.493
 6410TIP3   OH219235   4.848  -0.018   2.666
 6410TIP3    H119236   4.840   0.025   2.581
 6410TIP3    H219237   4.872   0.052   2.727
 6411TIP3   OH219238   1.774   2.187   3.796
 6411TIP3    H119239   1.684   2.221   3.807
 6411TIP3    H219240   1.762   2.102   3.754
 6412TIP3   OH219241   3.562   3.329   3.572
 6412TIP3    H119242   3.485   3.278   3.549
 6412TIP3    H219243   3.528   3.415   3.597
 6413TIP3   OH219244   4.304   3.789   2.125
 6413TIP3    H119245   4.299   3.885   2.122
 6413TIP3    H219246   4.366   3.766   2.056
 6414TIP3   OH219247   2.261   3.187   4.587
 6414TIP3    H119248   2.289   3.100   4.558
 6414TIP3    H219249   2.336   3.244   4.568
 6415TIP3   OH219250   3.725   4.490   3.532
 6415TIP3    H119251   3.784   4.541   3.588
 6415TIP3    H219252   3.762   4.402   3.531
 6416TIP3   OH219253   5.052   5.666   5.142
 6416TIP3    H119254   5.106   5.602   5.096
 6416TIP3    H219255   5.056   5.744   5.086
 6417TIP3   OH219256   5.526   2.290   1.667
 6417TIP3    H119257   5.584   2.266   1.596
 6417TIP3    H219258   5.463   2.217   1.672
 6418TIP3   OH219259   6.166   3.254   1.450
 6418TIP3    H119260   6.100   3.185   1.445
 6418TIP3    H219261   6.118   3.329   1.486
 6419TIP3   OH219262   4.429   5.501   1.841
 6419TIP3    H119263   4.421   5.411   1.808
 6419TIP3    H219264   4.478   5.493   1.922
 6420TIP3   OH219265   1.248   5.224   1.253
 6420TIP3    H119266   1.324   5.252   1.203
 6420TIP3    H219267   1.257   5.129   1.260
 6421TIP3   OH219268   2.208   2.887   3.167
 6421TIP3    H119269   2.274   2.883   3.237
 6421TIP3    H219270   2.257   2.872   3.087
 6422TIP3   OH219271   4.957   5.899   0.437
 6422TIP3    H119272   5.021   5.830   0.423
 6422TIP3    H219273   4.877   5.853   0.463
 6423TIP3   OH219274   1.009   5.516   1.098
 6423TIP3    H119275   1.040   5.586   1.040
 6423TIP3    H219276   0.917   5.506   1.076
 6424TIP3   OH219277   1.568   3.328   2.130
 6424TIP3    H119278   1.478   3.303   2.109
 6424TIP3    H219279   1.584   3.406   2.077
 6425TIP3   OH219280   2.829   4.551   0.824
 6425TIP3    H119281   2.901   4.504   0.784
 6425TIP3    H219282   2.756   4.542   0.763
 6426TIP3   OH219283   5.536   0.738   2.616
 6426TIP3    H119284   5.520   0.828   2.588
 6426TIP3    H219285   5.498   0.684   2.547
 6427TIP3   OH219286   6.216   0.392   3.517
 6427TIP3    H119287   6.133   0.344   3.506
 6427TIP3    H219288   6.212   0.461   3.450
 6428TIP3   OH219289   5.714   2.127   1.340
 6428TIP3    H119290   5.754   2.137   1.426
 6428TIP3    H219291   5.620   2.128   1.357
 6429TIP3   OH219292   4.638   0.350   4.917
 6429TIP3    H119293   4.588   0.373   4.995
 6429TIP3    H219294   4.589   0.388   4.845
 6430TIP3   OH219295   2.890   3.067   0.797
 6430TIP3    H119296   2.969   3.092   0.748
 6430TIP3    H219297   2.849   3.150   0.820
 6431TIP3   OH219298   0.108   2.713   4.838
 6431TIP3    H119299   0.043   2.645   4.854
 6431TIP3    H219300   0.088   2.781   4.903
 6432TIP3   OH219301   3.050   1.544   3.302
 6432TIP3    H119302   3.141   1.540   3.332
 6432TIP3    H219303   3.013   1.621   3.346
 6433TIP3   OH219304   3.760   4.368   4.698
 6433TIP3    H119305   3.839   4.423   4.699
 6433TIP3    H219306   3.698   4.416   4.644
 6434TIP3   OH219307   4.556   4.981   0.881
 6434TIP3    H119308   4.633   4.991   0.826
 6434TIP3    H219309   4.531   5.071   0.903
 6435TIP3   OH219310   2.397   1.816   0.682
 6435TIP3    H119311   2.464   1.751   0.661
 6435TIP3    H219312   2.391   1.870   0.604
 6436TIP3   OH219313   2.431   5.144   1.172
 6436TIP3    H119314   2.386   5.060   1.167
 6436TIP3    H219315   2.370   5.206   1.130
 6437TIP3   OH219316   0.617   3.143   4.020
 6437TIP3    H119317   0.596   3.236   4.022
 6437TIP3    H219318   0.677   3.131   4.094
 6438TIP3   OH219319   0.844   3.357   5.120
 6438TIP3    H119320   0.791   3.417   5.068
 6438TIP3    H219321   0.926   3.403   5.134
 6439TIP3   OH219322   5.626   4.370   4.458
 6439TIP3    H119323   5.702   4.422   4.484
 6439TIP3    H219324   5.640   4.285   4.500
 6440TIP3   OH219325   0.937   1.369   1.548
 6440TIP3    H119326   0.859   1.341   1.596
 6440TIP3    H219327   0.902   1.423   1.477
 6441TIP3   OH219328   0.626   5.942   3.413
 6441TIP3    H119329   0.603   5.866   3.361
 6441TIP3    H219330   0.722   5.947   3.408
 6442TIP3   OH219331   1.619   4.423   4.354
 6442TIP3    H119332   1.546   4.464   4.400
 6442TIP3    H219333   1.595   4.330   4.348
 6443TIP3   OH219334   4.620   0.726   2.335
 6443TIP3    H119335   4.583   0.675   2.263
 6443TIP3    H219336   4.543   0.765   2.377
 6444TIP3   OH219337   2.588   3.742   0.654
 6444TIP3    H119338   2.588   3.676   0.723
 6444TIP3    H219339   2.499   3.742   0.620
 6445TIP3   OH219340   4.046   4.415   3.125
 6445TIP3    H119341   4.044   4.373   3.211
 6445TIP3    H219342   4.058   4.508   3.144
 6446TIP3   OH219343   0.064   1.363   3.502
 6446TIP3    H119344   0.140   1.420   3.518
 6446TIP3    H219345   0.102   1.279   3.476
 6447TIP3   OH219346   0.822   0.421   2.022
 6447TIP3    H119347   0.780   0.352   1.971
 6447TIP3    H219348   0.762   0.496   2.016
 6448TIP3   OH219349   6.339   2.736   0.847
 6448TIP3    H119350   6.369   2.671   0.784
 6448TIP3    H219351   6.244   2.734   0.841
 6449TIP3   OH219352   3.490   2.848   0.848
 6449TIP3    H119353   3.550   2.824   0.778
 6449TIP3    H219354   3.538   2.911   0.901
 6450TIP3   OH219355   4.920   2.828   4.109
 6450TIP3    H119356   4.905   2.921   4.126
 6450TIP3    H219357   4.929   2.822   4.014
 6451TIP3   OH219358   2.733   0.350   4.536
 6451TIP3    H119359   2.707   0.352   4.444
 6451TIP3    H219360   2.733   0.257   4.559
 6452TIP3   OH219361   1.277   0.846   3.221
 6452TIP3    H119362   1.231   0.788   3.161
 6452TIP3    H219363   1.248   0.934   3.196
 6453TIP3   OH219364   5.790   4.746   3.003
 6453TIP3    H119365   5.745   4.662   2.992
 6453TIP3    H219366   5.873   4.723   3.045
 6454TIP3   OH219367   2.149   3.120   3.453
 6454TIP3    H119368   2.107   3.199   3.487
 6454TIP3    H219369   2.144   3.129   3.358
 6455TIP3   OH219370   3.690   5.707   4.577
 6455TIP3    H119371   3.627   5.720   4.648
 6455TIP3    H219372   3.657   5.630   4.530
 6456TIP3   OH219373   2.317   1.486   0.975
 6456TIP3    H119374   2.286   1.499   0.885
 6456TIP3    H219375   2.238   1.484   1.028
 6457TIP3   OH219376   6.104   4.589   1.763
 6457TIP3    H119377   6.054   4.603   1.683
 6457TIP3    H219378   6.191   4.564   1.732
 6458TIP3   OH219379   1.278   2.481   4.301
 6458TIP3    H119380   1.313   2.478   4.390
 6458TIP3    H219381   1.245   2.570   4.291
 6459TIP3   OH219382   5.599   3.028   0.418
 6459TIP3    H119383   5.620   2.988   0.334
 6459TIP3    H219384   5.651   2.978   0.481
 6460TIP3   OH219385   5.357   4.360   5.069
 6460TIP3    H119386   5.283   4.299   5.062
 6460TIP3    H219387   5.433   4.309   5.038
 6461TIP3   OH219388   4.663   3.168   0.529
 6461TIP3    H119389   4.707   3.117   0.461
 6461TIP3    H219390   4.577   3.125   0.538
 6462TIP3   OH219391   3.551   5.033   2.920
 6462TIP3    H119392   3.574   5.083   2.842
 6462TIP3    H219393   3.606   4.955   2.916
 6463TIP3   OH219394   1.197   5.543   0.585
 6463TIP3    H119395   1.112   5.552   0.627
 6463TIP3    H219396   1.199   5.452   0.553
 6464TIP3   OH219397   1.789   1.476   4.114
 6464TIP3    H119398   1.767   1.388   4.144
 6464TIP3    H219399   1.830   1.463   4.029
 6465TIP3   OH219400   1.250   1.240   1.549
 6465TIP3    H119401   1.158   1.216   1.545
 6465TIP3    H219402   1.281   1.234   1.459
 6466TIP3   OH219403   4.687   0.025   4.985
 6466TIP3    H119404   4.686  -0.071   4.989
 6466TIP3    H219405   4.602   0.048   4.948
 6467TIP3   OH219406   1.061   2.957   1.136
 6467TIP3    H119407   1.062   2.977   1.042
 6467TIP3    H219408   0.999   2.884   1.143
 6468TIP3   OH219409   0.623   1.700   4.238
 6468TIP3    H119410   0.611   1.728   4.148
 6468TIP3    H219411   0.556   1.633   4.252
 6469TIP3   OH219412   2.590   4.650   0.330
 6469TIP3    H119413   2.657   4.657   0.263
 6469TIP3    H219414   2.552   4.563   0.317
 6470TIP3   OH219415   3.529   4.573   0.245
 6470TIP3    H119416   3.552   4.660   0.213
 6470TIP3    H219417   3.610   4.523   0.241
 6471TIP3   OH219418   2.759   0.706   1.509
 6471TIP3    H119419   2.816   0.638   1.548
 6471TIP3    H219420   2.706   0.659   1.445
 6472TIP3   OH219421   5.994   5.000   3.323
 6472TIP3    H119422   5.915   4.952   3.297
 6472TIP3    H219423   6.010   5.061   3.252
 6473TIP3   OH219424   0.776   4.091   0.872
 6473TIP3    H119425   0.717   4.053   0.937
 6473TIP3    H219426   0.800   4.017   0.816
 6474TIP3   OH219427   2.005   1.583   2.645
 6474TIP3    H119428   2.008   1.508   2.587
 6474TIP3    H219429   1.914   1.613   2.641
 6475TIP3   OH219430   3.544   5.605   0.492
 6475TIP3    H119431   3.565   5.680   0.437
 6475TIP3    H219432   3.448   5.600   0.490
 6476TIP3   OH219433   3.108   0.210   1.589
 6476TIP3    H119434   3.017   0.184   1.602
 6476TIP3    H219435   3.159   0.143   1.634
 6477TIP3   OH219436   5.052   3.999   3.895
 6477TIP3    H119437   4.987   3.929   3.898
 6477TIP3    H219438   5.069   4.020   3.987
 6478TIP3   OH219439   2.638   2.877   4.007
 6478TIP3    H119440   2.593   2.919   3.934
 6478TIP3    H219441   2.684   2.802   3.967
 6479TIP3   OH219442   4.258   1.703   0.885
 6479TIP3    H119443   4.235   1.740   0.800
 6479TIP3    H219444   4.173   1.688   0.928
 6480TIP3   OH219445   1.706   1.665   2.693
 6480TIP3    H119446   1.647   1.623   2.756
 6480TIP3    H219447   1.647   1.703   2.627
 6481TIP3   OH219448   0.781   0.179   1.886
 6481TIP3    H119449   0.723   0.107   1.862
 6481TIP3    H219450   0.852   0.137   1.935
 6482TIP3   OH219451   1.023   2.575   0.083
 6482TIP3    H119452   1.062   2.634   0.019
 6482TIP3    H219453   0.956   2.527   0.034
 6483TIP3   OH219454   6.025   3.634   4.577
 6483TIP3    H119455   5.969   3.557   4.585
 6483TIP3    H219456   6.103   3.612   4.628
 6484TIP3   OH219457   4.244   5.026   3.837
 6484TIP3    H119458   4.326   4.994   3.799
 6484TIP3    H219459   4.214   4.955   3.894
 6485TIP3   OH219460   2.673   3.091   3.180
 6485TIP3    H119461   2.646   3.183   3.181
 6485TIP3    H219462   2.708   3.078   3.092
 6486TIP3   OH219463   1.011   5.586   3.051
 6486TIP3    H119464   0.962   5.530   3.111
 6486TIP3    H219465   1.073   5.527   3.008
 6487TIP3   OH219466   6.041   3.153   3.736
 6487TIP3    H119467   6.091   3.159   3.655
 6487TIP3    H219468   6.018   3.061   3.744
 6488TIP3   OH219469   1.061   0.213   2.518
 6488TIP3    H119470   1.116   0.200   2.441
 6488TIP3    H219471   1.120   0.254   2.582
 6489TIP3   OH219472   5.133   2.011   3.594
 6489TIP3    H119473   5.209   2.070   3.593
 6489TIP3    H219474   5.068   2.056   3.540
 6490TIP3   OH219475   6.220   1.691   0.175
 6490TIP3    H119476   6.288   1.678   0.109
 6490TIP3    H219477   6.266   1.681   0.258
 6491TIP3   OH219478   1.275   5.276   1.791
 6491TIP3    H119479   1.365   5.243   1.797
 6491TIP3    H219480   1.258   5.315   1.877
 6492TIP3   OH219481   4.330   4.307   1.788
 6492TIP3    H119482   4.416   4.268   1.802
 6492TIP3    H219483   4.315   4.298   1.694
 6493TIP3   OH219484   3.991   4.747   4.321
 6493TIP3    H119485   3.960   4.833   4.292
 6493TIP3    H219486   4.081   4.742   4.291
 6494TIP3   OH219487   0.836   1.716   3.360
 6494TIP3    H119488   0.834   1.808   3.333
 6494TIP3    H219489   0.926   1.701   3.388
 6495TIP3   OH219490  -0.009   0.351   1.558
 6495TIP3    H119491  -0.036   0.338   1.467
 6495TIP3    H219492   0.069   0.296   1.568
 6496TIP3   OH219493   5.146   1.701   3.778
 6496TIP3    H119494   5.204   1.703   3.702
 6496TIP3    H219495   5.135   1.607   3.797
 6497TIP3   OH219496   3.906   4.546   1.338
 6497TIP3    H119497   3.964   4.558   1.414
 6497TIP3    H219498   3.962   4.506   1.272
 6498TIP3   OH219499   3.476   2.226   1.283
 6498TIP3    H119500   3.506   2.147   1.327
 6498TIP3    H219501   3.495   2.297   1.345
 6499TIP3   OH219502   4.223   0.405   3.207
 6499TIP3    H119503   4.262   0.341   3.146
 6499TIP3    H219504   4.277   0.483   3.197
 6500TIP3   OH219505   1.718   4.433   0.968
 6500TIP3    H119506   1.649   4.368   0.951
 6500TIP3    H219507   1.799   4.389   0.942
 6501TIP3   OH219508   0.318   3.839   1.651
 6501TIP3    H119509   0.283   3.750   1.653
 6501TIP3    H219510   0.271   3.882   1.579
 6502TIP3   OH219511   0.012   0.383   2.030
 6502TIP3    H119512   0.082   0.440   2.063
 6502TIP3    H219513   0.000   0.410   1.939
 6503TIP3   OH219514   1.955   5.625   3.692
 6503TIP3    H119515   2.032   5.660   3.737
 6503TIP3    H219516   1.986   5.546   3.649
 6504TIP3   OH219517   5.208   0.824   0.691
 6504TIP3    H119518   5.142   0.790   0.753
 6504TIP3    H219519   5.178   0.793   0.606
 6505TIP3   OH219520   4.434   4.219   0.737
 6505TIP3    H119521   4.485   4.177   0.807
 6505TIP3    H219522   4.414   4.147   0.677
 6506TIP3   OH219523   3.882   5.088   3.370
 6506TIP3    H119524   3.869   4.996   3.394
 6506TIP3    H219525   3.970   5.091   3.333
 6507TIP3   OH219526   2.513   2.048   2.787
 6507TIP3    H119527   2.438   2.062   2.845
 6507TIP3    H219528   2.584   2.095   2.829
 6508TIP3   OH219529   0.586   5.771   4.137
 6508TIP3    H119530   0.498   5.801   4.113
 6508TIP3    H219531   0.611   5.712   4.066
 6509TIP3   OH219532   0.831   1.172   0.961
 6509TIP3    H119533   0.901   1.226   0.999
 6509TIP3    H219534   0.766   1.165   1.031
 6510TIP3   OH219535   4.025   2.638   4.826
 6510TIP3    H119536   4.011   2.620   4.919
 6510TIP3    H219537   4.117   2.616   4.811
 6511TIP3   OH219538   0.936   3.285   0.806
 6511TIP3    H119539   0.893   3.292   0.720
 6511TIP3    H219540   0.930   3.192   0.828
 6512TIP3   OH219541   3.639   2.040   3.337
 6512TIP3    H119542   3.714   2.012   3.390
 6512TIP3    H219543   3.676   2.052   3.249
 6513TIP3   OH219544   1.349   4.280   4.916
 6513TIP3    H119545   1.339   4.185   4.918
 6513TIP3    H219546   1.443   4.294   4.918
 6514TIP3   OH219547   0.349   4.971   3.755
 6514TIP3    H119548   0.294   4.897   3.732
 6514TIP3    H219549   0.426   4.963   3.699
 6515TIP3   OH219550   4.800   0.942   1.763
 6515TIP3    H119551   4.861   0.917   1.694
 6515TIP3    H219552   4.713   0.932   1.724
 6516TIP3   OH219553   3.909   2.486   0.235
 6516TIP3    H119554   3.990   2.440   0.213
 6516TIP3    H219555   3.892   2.461   0.326
 6517TIP3   OH219556   4.476   0.279   2.239
 6517TIP3    H119557   4.408   0.228   2.283
 6517TIP3    H219558   4.522   0.323   2.311
 6518TIP3   OH219559   5.924   1.607   4.271
 6518TIP3    H119560   5.918   1.534   4.332
 6518TIP3    H219561   6.014   1.639   4.279
 6519TIP3   OH219562   2.885   5.473   1.184
 6519TIP3    H119563   2.965   5.424   1.167
 6519TIP3    H219564   2.814   5.411   1.168
 6520TIP3   OH219565   3.697   3.244   2.969
 6520TIP3    H119566   3.655   3.293   3.040
 6520TIP3    H219567   3.786   3.280   2.964
 6521TIP3   OH219568   4.210   3.038   4.861
 6521TIP3    H119569   4.221   2.980   4.936
 6521TIP3    H219570   4.130   3.008   4.818
 6522TIP3   OH219571   4.402   5.154   0.672
 6522TIP3    H119572   4.384   5.183   0.762
 6522TIP3    H219573   4.356   5.071   0.664
 6523TIP3   OH219574   5.990   3.974   3.862
 6523TIP3    H119575   5.990   4.015   3.948
 6523TIP3    H219576   5.961   3.884   3.879
 6524TIP3   OH219577   5.363   5.292   1.071
 6524TIP3    H119578   5.313   5.212   1.086
 6524TIP3    H219579   5.334   5.321   0.984
 6525TIP3   OH219580   2.906   2.987   3.802
 6525TIP3    H119581   2.892   3.059   3.741
 6525TIP3    H219582   2.847   2.918   3.771
 6526TIP3   OH219583   5.731   4.858   4.061
 6526TIP3    H119584   5.780   4.939   4.047
 6526TIP3    H219585   5.724   4.850   4.156
 6527TIP3   OH219586   3.073   5.161   1.070
 6527TIP3    H119587   3.074   5.213   1.150
 6527TIP3    H219588   3.087   5.225   1.000
 6528TIP3   OH219589   1.717   2.087   0.768
 6528TIP3    H119590   1.801   2.043   0.780
 6528TIP3    H219591   1.653   2.017   0.768
 6529TIP3   OH219592   4.884   0.921   0.919
 6529TIP3    H119593   4.851   1.011   0.918
 6529TIP3    H219594   4.968   0.927   0.965
 6530TIP3   OH219595   5.672   3.598   1.817
 6530TIP3    H119596   5.722   3.627   1.741
 6530TIP3    H219597   5.736   3.555   1.874
 6531TIP3   OH219598   3.546   4.806   3.661
 6531TIP3    H119599   3.561   4.771   3.749
 6531TIP3    H219600   3.456   4.839   3.663
 6532TIP3   OH219601   5.601   0.123   5.051
 6532TIP3    H119602   5.572   0.077   5.129
 6532TIP3    H219603   5.551   0.083   4.980
 6533TIP3   OH219604   1.531   0.911   3.281
 6533TIP3    H119605   1.560   0.849   3.347
 6533TIP3    H219606   1.437   0.894   3.272
 6534TIP3   OH219607   1.194   2.188   1.486
 6534TIP3    H119608   1.182   2.101   1.448
 6534TIP3    H219609   1.226   2.241   1.413
 6535TIP3   OH219610   0.424   4.439   1.491
 6535TIP3    H119611   0.504   4.449   1.542
 6535TIP3    H219612   0.375   4.520   1.505
 6536TIP3   OH219613   4.187   5.687   0.770
 6536TIP3    H119614   4.237   5.617   0.728
 6536TIP3    H219615   4.101   5.684   0.727
 6537TIP3   OH219616   6.018   2.776   4.245
 6537TIP3    H119617   6.057   2.862   4.233
 6537TIP3    H219618   6.082   2.728   4.298
 6538TIP3   OH219619   2.653   1.078   4.671
 6538TIP3    H119620   2.681   1.102   4.583
 6538TIP3    H219621   2.560   1.057   4.661
 6539TIP3   OH219622   0.249   4.219   1.481
 6539TIP3    H119623   0.228   4.225   1.574
 6539TIP3    H219624   0.307   4.294   1.465
 6540TIP3   OH219625   2.233   5.041   3.477
 6540TIP3    H119626   2.288   5.112   3.446
 6540TIP3    H219627   2.256   4.966   3.422
 6541TIP3   OH219628   2.006   1.961   4.844
 6541TIP3    H119629   2.000   1.881   4.792
 6541TIP3    H219630   1.915   1.988   4.858
 6542TIP3   OH219631   3.437   2.576   0.761
 6542TIP3    H119632   3.397   2.657   0.730
 6542TIP3    H219633   3.364   2.514   0.765
 6543TIP3   OH219634   1.309   5.767   3.509
 6543TIP3    H119635   1.306   5.681   3.468
 6543TIP3    H219636   1.230   5.812   3.477
 6544TIP3   OH219637   3.354   2.052   3.093
 6544TIP3    H119638   3.304   1.990   3.146
 6544TIP3    H219639   3.445   2.031   3.112
 6545TIP3   OH219640   0.022   1.516   3.842
 6545TIP3    H119641   0.041   1.440   3.787
 6545TIP3    H219642   0.107   1.560   3.854
 6546TIP3   OH219643   3.017   4.192   4.404
 6546TIP3    H119644   3.088   4.234   4.454
 6546TIP3    H219645   3.063   4.137   4.341
 6547TIP3   OH219646   3.396   1.245   0.396
 6547TIP3    H119647   3.348   1.286   0.323
 6547TIP3    H219648   3.446   1.317   0.435
 6548TIP3   OH219649   6.043   3.480   3.398
 6548TIP3    H119650   6.044   3.436   3.483
 6548TIP3    H219651   6.113   3.545   3.403
 6549TIP3   OH219652   3.268   5.676   0.650
 6549TIP3    H119653   3.254   5.759   0.697
 6549TIP3    H219654   3.292   5.614   0.718
 6550TIP3   OH219655   3.929   4.166   0.373
 6550TIP3    H119656   3.949   4.084   0.420
 6550TIP3    H219657   3.958   4.150   0.284
 6551TIP3   OH219658   6.208  -0.008   5.019
 6551TIP3    H119659   6.127  -0.025   5.068
 6551TIP3    H219660   6.217   0.087   5.020
 6552TIP3   OH219661   5.018   4.491   2.382
 6552TIP3    H119662   4.934   4.538   2.390
 6552TIP3    H219663   5.075   4.534   2.445
 6553TIP3   OH219664   2.477   1.448   3.300
 6553TIP3    H119665   2.479   1.519   3.237
 6553TIP3    H219666   2.425   1.380   3.257
 6554TIP3   OH219667   4.568   5.439   3.185
 6554TIP3    H119668   4.619   5.377   3.237
 6554TIP3    H219669   4.561   5.517   3.240
 6555TIP3   OH219670   3.852   4.508   4.313
 6555TIP3    H119671   3.909   4.584   4.319
 6555TIP3    H219672   3.907   4.434   4.338
 6556TIP3   OH219673   6.273   4.191   4.909
 6556TIP3    H119674   6.240   4.199   4.820
 6556TIP3    H219675   6.220   4.252   4.960
 6557TIP3   OH219676   1.246   1.086   0.630
 6557TIP3    H119677   1.208   1.116   0.548
 6557TIP3    H219678   1.188   1.015   0.660
 6558TIP3   OH219679   1.715   0.346   3.865
 6558TIP3    H119680   1.756   0.263   3.838
 6558TIP3    H219681   1.621   0.328   3.863
 6559TIP3   OH219682   0.549   0.733   0.327
 6559TIP3    H119683   0.542   0.770   0.239
 6559TIP3    H219684   0.503   0.649   0.321
 6560TIP3   OH219685   1.642   3.503   0.768
 6560TIP3    H119686   1.663   3.411   0.748
 6560TIP3    H219687   1.646   3.508   0.864
 6561TIP3   OH219688   5.793   0.175   1.754
 6561TIP3    H119689   5.717   0.148   1.703
 6561TIP3    H219690   5.759   0.191   1.842
 6562TIP3   OH219691   4.267   1.046   5.003
 6562TIP3    H119692   4.275   0.953   4.981
 6562TIP3    H219693   4.298   1.092   4.925
 6563TIP3   OH219694   2.248   1.675   2.617
 6563TIP3    H119695   2.158   1.657   2.643
 6563TIP3    H219696   2.242   1.687   2.522
 6564TIP3   OH219697   2.718   0.134   0.565
 6564TIP3    H119698   2.731   0.104   0.655
 6564TIP3    H219699   2.636   0.091   0.537
 6565TIP3   OH219700   0.397   2.104   1.908
 6565TIP3    H119701   0.349   2.178   1.870
 6565TIP3    H219702   0.330   2.035   1.919
 6566TIP3   OH219703   5.067   3.749   4.690
 6566TIP3    H119704   4.978   3.749   4.725
 6566TIP3    H219705   5.079   3.837   4.654
 6567TIP3   OH219706   4.360   5.863   2.514
 6567TIP3    H119707   4.277   5.887   2.555
 6567TIP3    H219708   4.362   5.910   2.431
 6568TIP3   OH219709   5.591   5.086   0.065
 6568TIP3    H119710   5.570   5.029  -0.009
 6568TIP3    H219711   5.565   5.174   0.036
 6569TIP3   OH219712   3.159   3.837   3.652
 6569TIP3    H119713   3.165   3.780   3.728
 6569TIP3    H219714   3.081   3.890   3.667
 6570TIP3   OH219715   5.125   1.350   1.190
 6570TIP3    H119716   5.156   1.422   1.246
 6570TIP3    H219717   5.202   1.294   1.178
 6571TIP3   OH219718   4.618   1.630   1.925
 6571TIP3    H119719   4.601   1.723   1.937
 6571TIP3    H219720   4.710   1.624   1.901
 6572TIP3   OH219721   0.889   4.049   0.320
 6572TIP3    H119722   0.909   4.077   0.231
 6572TIP3    H219723   0.802   4.084   0.337
 6573TIP3   OH219724   0.751   5.881   1.821
 6573TIP3    H119725   0.826   5.880   1.881
 6573TIP3    H219726   0.677   5.903   1.877
 6574TIP3   OH219727   3.111   2.240   1.653
 6574TIP3    H119728   3.073   2.219   1.738
 6574TIP3    H219729   3.206   2.232   1.666
 6575TIP3   OH219730   0.300   0.160   2.497
 6575TIP3    H119731   0.374   0.104   2.517
 6575TIP3    H219732   0.264   0.124   2.416
 6576TIP3   OH219733   4.496   4.407   3.206
 6576TIP3    H119734   4.534   4.436   3.123
 6576TIP3    H219735   4.433   4.476   3.229
 6577TIP3   OH219736   0.262   4.671   1.506
 6577TIP3    H119737   0.197   4.739   1.524
 6577TIP3    H219738   0.268   4.667   1.411
 6578TIP3   OH219739   0.941   2.882   2.086
 6578TIP3    H119740   0.963   2.828   2.163
 6578TIP3    H219741   0.991   2.843   2.015
 6579TIP3   OH219742   1.307   1.863   4.165
 6579TIP3    H119743   1.337   1.843   4.254
 6579TIP3    H219744   1.212   1.864   4.172
 6580TIP3   OH219745   5.538   3.155   4.515
 6580TIP3    H119746   5.620   3.205   4.514
 6580TIP3    H219747   5.553   3.085   4.578
 6581TIP3   OH219748   0.520   0.961   4.297
 6581TIP3    H119749   0.435   0.971   4.253
 6581TIP3    H219750   0.497   0.929   4.385
 6582TIP3   OH219751   3.440   3.119   2.168
 6582TIP3    H119752   3.357   3.100   2.124
 6582TIP3    H219753   3.493   3.040   2.154
 6583TIP3   OH219754   5.009   3.660   3.601
 6583TIP3    H119755   5.091   3.647   3.553
 6583TIP3    H219756   4.995   3.578   3.648
 6584TIP3   OH219757   1.807   3.308   0.130
 6584TIP3    H119758   1.796   3.215   0.110
 6584TIP3    H219759   1.812   3.351   0.044
 6585TIP3   OH219760   4.852   5.460   1.171
 6585TIP3    H119761   4.765   5.485   1.204
 6585TIP3    H219762   4.911   5.475   1.245
 6586TIP3   OH219763   1.325   3.745   3.191
 6586TIP3    H119764   1.369   3.822   3.154
 6586TIP3    H219765   1.275   3.708   3.118
 6587TIP3   OH219766   6.162   4.123   3.431
 6587TIP3    H119767   6.131   4.186   3.366
 6587TIP3    H219768   6.237   4.081   3.390
 6588TIP3   OH219769   1.395   4.370   2.325
 6588TIP3    H119770   1.370   4.455   2.362
 6588TIP3    H219771   1.312   4.324   2.313
 6589TIP3   OH219772   5.599   5.678   2.207
 6589TIP3    H119773   5.639   5.669   2.121
 6589TIP3    H219774   5.527   5.616   2.207
 6590TIP3   OH219775   1.252   0.955   4.895
 6590TIP3    H119776   1.188   0.884   4.898
 6590TIP3    H219777   1.210   1.024   4.844
 6591TIP3   OH219778   3.787   0.941   1.654
 6591TIP3    H119779   3.772   0.950   1.560
 6591TIP3    H219780   3.719   0.994   1.695
 6592TIP3   OH219781   6.209   1.686   4.251
 6592TIP3    H119782   6.189   1.653   4.163
 6592TIP3    H219783   6.265   1.762   4.236
 6593TIP3   OH219784   4.464   2.880   4.497
 6593TIP3    H119785   4.552   2.910   4.472
 6593TIP3    H219786   4.407   2.953   4.474
 6594TIP3   OH219787   1.639   5.783   3.650
 6594TIP3    H119788   1.630   5.878   3.643
 6594TIP3    H219789   1.727   5.770   3.685
 6595TIP3   OH219790   1.830   0.719   0.862
 6595TIP3    H119791   1.893   0.778   0.903
 6595TIP3    H219792   1.769   0.697   0.932
 6596TIP3   OH219793   2.236   0.506   0.681
 6596TIP3    H119794   2.241   0.558   0.602
 6596TIP3    H219795   2.319   0.520   0.726
 6597TIP3   OH219796   2.739   1.712   0.942
 6597TIP3    H119797   2.752   1.785   0.882
 6597TIP3    H219798   2.757   1.634   0.889
 6598TIP3   OH219799   2.939   4.307   2.962
 6598TIP3    H119800   2.905   4.238   2.905
 6598TIP3    H219801   2.893   4.295   3.045
 6599TIP3   OH219802   5.045   3.383   0.135
 6599TIP3    H119803   5.003   3.452   0.186
 6599TIP3    H219804   5.117   3.427   0.089
 6600TIP3   OH219805   3.178   5.865   3.500
 6600TIP3    H119806   3.123   5.942   3.507
 6600TIP3    H219807   3.264   5.899   3.476
 6601TIP3   OH219808   0.656   4.204   0.422
 6601TIP3    H119809   0.700   4.222   0.505
 6601TIP3    H219810   0.582   4.265   0.420
 6602TIP3   OH219811   5.437   1.214   1.150
 6602TIP3    H119812   5.447   1.122   1.172
 6602TIP3    H219813   5.517   1.255   1.182
 6603TIP3   OH219814   5.941   0.305   3.449
 6603TIP3    H119815   5.916   0.223   3.492
 6603TIP3    H219816   5.869   0.324   3.390
 6604TIP3   OH219817   1.320   2.029   1.003
 6604TIP3    H119818   1.253   2.059   1.065
 6604TIP3    H219819   1.367   2.108   0.979
 6605TIP3   OH219820   2.901   1.567   2.331
 6605TIP3    H119821   2.850   1.647   2.342
 6605TIP3    H219822   2.917   1.536   2.420
 6606TIP3   OH219823   1.543   5.427   3.883
 6606TIP3    H119824   1.457   5.464   3.862
 6606TIP3    H219825   1.557   5.359   3.817
 6607TIP3   OH219826   3.067   5.656   0.084
 6607TIP3    H119827   3.156   5.688   0.100
 6607TIP3    H219828   3.076   5.593   0.012
 6608TIP3   OH219829   4.471   2.177   1.686
 6608TIP3    H119830   4.551   2.222   1.716
 6608TIP3    H219831   4.493   2.145   1.599
 6609TIP3   OH219832   4.324   2.921   2.316
 6609TIP3    H119833   4.284   3.007   2.307
 6609TIP3    H219834   4.293   2.888   2.400
 6610TIP3   OH219835   6.029   0.444   1.825
 6610TIP3    H119836   5.946   0.488   1.841
 6610TIP3    H219837   6.036   0.379   1.896
 6611TIP3   OH219838   1.916   0.962   2.122
 6611TIP3    H119839   1.834   0.916   2.105
 6611TIP3    H219840   1.901   1.007   2.206
 6612TIP3   OH219841   4.859   3.119   5.137
 6612TIP3    H119842   4.932   3.165   5.096
 6612TIP3    H219843   4.884   3.114   5.230
 6613TIP3   OH219844   1.002   1.854   0.709
 6613TIP3    H119845   0.981   1.934   0.662
 6613TIP3    H219846   1.097   1.852   0.715
 6614TIP3   OH219847   6.179   0.911   4.628
 6614TIP3    H119848   6.178   0.816   4.640
 6614TIP3    H219849   6.269   0.931   4.603
 6615TIP3   OH219850   2.664   1.482   4.655
 6615TIP3    H119851   2.746   1.499   4.609
 6615TIP3    H219852   2.689   1.426   4.729
 6616TIP3   OH219853   0.796   0.705   1.360
 6616TIP3    H119854   0.840   0.695   1.275
 6616TIP3    H219855   0.703   0.716   1.338
 6617TIP3   OH219856   1.711   3.900   4.479
 6617TIP3    H119857   1.711   3.810   4.447
 6617TIP3    H219858   1.628   3.909   4.527
 6618TIP3   OH219859   4.852   4.827   1.088
 6618TIP3    H119860   4.768   4.782   1.095
 6618TIP3    H219861   4.829   4.920   1.088
 6619TIP3   OH219862   0.864   3.639   2.877
 6619TIP3    H119863   0.952   3.658   2.909
 6619TIP3    H219864   0.824   3.725   2.868
 6620TIP3   OH219865   5.906   2.205   3.252
 6620TIP3    H119866   5.954   2.131   3.215
 6620TIP3    H219867   5.818   2.171   3.268
 6621TIP3   OH219868   4.915   2.134   2.987
 6621TIP3    H119869   4.885   2.111   3.074
 6621TIP3    H219870   4.916   2.050   2.939
 6622TIP3   OH219871   0.308   4.806   4.392
 6622TIP3    H119872   0.272   4.739   4.334
 6622TIP3    H219873   0.244   4.877   4.390
 6623TIP3   OH219874   1.135   0.729   2.937
 6623TIP3    H119875   1.073   0.792   2.902
 6623TIP3    H219876   1.221   0.770   2.926
 6624TIP3   OH219877   3.377  -0.003   4.176
 6624TIP3    H119878   3.471  -0.014   4.190
 6624TIP3    H219879   3.348   0.051   4.249
 6625TIP3   OH219880   6.110   4.156   1.711
 6625TIP3    H119881   6.117   4.169   1.616
 6625TIP3    H219882   6.025   4.193   1.734
 6626TIP3   OH219883   0.746   1.268   5.071
 6626TIP3    H119884   0.703   1.276   5.156
 6626TIP3    H219885   0.786   1.353   5.055
 6627TIP3   OH219886   1.849   2.626   1.736
 6627TIP3    H119887   1.873   2.543   1.776
 6627TIP3    H219888   1.766   2.649   1.778
 6628TIP3   OH219889   1.938   5.691   4.374
 6628TIP3    H119890   1.962   5.600   4.353
 6628TIP3    H219891   1.892   5.685   4.457
 6629TIP3   OH219892   2.890   2.621   0.433
 6629TIP3    H119893   2.955   2.580   0.375
 6629TIP3    H219894   2.828   2.662   0.373
 6630TIP3   OH219895   1.814   5.253   1.007
 6630TIP3    H119896   1.832   5.278   1.098
 6630TIP3    H219897   1.751   5.182   1.014
 6631TIP3   OH219898   5.185   5.634   2.005
 6631TIP3    H119899   5.261   5.596   1.961
 6631TIP3    H219900   5.179   5.586   2.088
 6632TIP3   OH219901   2.396   2.027   0.404
 6632TIP3    H119902   2.482   2.037   0.445
 6632TIP3    H219903   2.374   2.115   0.373
 6633TIP3   OH219904   5.787   2.802   1.512
 6633TIP3    H119905   5.811   2.786   1.421
 6633TIP3    H219906   5.763   2.716   1.546
 6634TIP3   OH219907   3.184   4.918   2.699
 6634TIP3    H119908   3.230   4.995   2.732
 6634TIP3    H219909   3.229   4.844   2.741
 6635TIP3   OH219910   2.423   5.210   0.008
 6635TIP3    H119911   2.512   5.211  -0.029
 6635TIP3    H219912   2.400   5.117   0.010
 6636TIP3   OH219913   6.053   5.124   0.495
 6636TIP3    H119914   6.031   5.103   0.404
 6636TIP3    H219915   5.974   5.165   0.529
 6637TIP3   OH219916   3.891   1.130   2.157
 6637TIP3    H119917   3.812   1.173   2.124
 6637TIP3    H219918   3.931   1.091   2.080
 6638TIP3   OH219919   3.251   5.577   1.697
 6638TIP3    H119920   3.179   5.544   1.751
 6638TIP3    H219921   3.211   5.587   1.610
 6639TIP3   OH219922   3.342   4.384   1.385
 6639TIP3    H119923   3.250   4.364   1.401
 6639TIP3    H219924   3.353   4.475   1.412
 6640TIP3   OH219925   0.066   4.110   0.975
 6640TIP3    H119926   0.153   4.144   0.997
 6640TIP3    H219927   0.037   4.066   1.055
   6.33667   5.97427   5.17387   0.00000   0.00000  -2.11222   0.00000  -2.11222  -2.98714
